Title
82275
    1SAPS     N    1   3.355   5.218  10.943  0.5638  0.1404 -0.6526
    1SAPS   HN1    2   3.341   5.267  11.034  1.4029 -3.4928  1.6458
    1SAPS   HN2    3   3.267   5.168  10.918  0.8080 -1.7189  1.7928
    1SAPS   HN3    4   3.439   5.157  10.937  1.5709  1.2769  1.1286
    1SAPS   C12    5   3.371   5.328  10.844  0.0380  0.2093 -0.3211
    1SAPS  H12A    6   3.377   5.288  10.744  0.8685  0.3917 -0.3498
    1SAPS   C13    7   3.244   5.421  10.855 -0.4895  0.8602  0.7167
    1SAPS  O13A    8   3.133   5.376  10.907  0.2858 -0.1846  0.1142
    1SAPS  O13B    9   3.244   5.524  10.793 -0.2551  0.3920  0.4798
    1SAPS   C11   10   3.498   5.413  10.883  0.5938  0.3724  0.0686
    1SAPS  H11A   11   3.469   5.453  10.982  0.3739  0.8955 -0.2036
    1SAPS  H11B   12   3.512   5.495  10.809 -1.4899 -1.4257 -2.4937
    1SAPS     P   13   3.688   5.274  10.761  0.1787  0.4475  0.0124
    1SAPS   O13   14   3.836   5.295  10.779  0.9093  0.1593  0.3939
    1SAPS   O14   15   3.644   5.135  10.747  0.6410  0.4498  0.1244
    1SAPS   O12   16   3.615   5.335  10.892 -0.3363  0.2453 -0.0506
    1SAPS   O11   17   3.641   5.365  10.646  0.5236 -0.6775 -0.0433
    1SAPS    C1   18   3.609   5.311  10.512 -0.0038 -0.0602 -0.3009
    1SAPS    HA   19   3.546   5.220  10.519  1.0291 -0.7959 -0.2449
    1SAPS    HB   20   3.546   5.384  10.456 -3.5973 -1.8088  1.1459
    1SAPS    C2   21   3.732   5.282  10.423 -0.0132 -0.1572  0.0612
    1SAPS    HS   22   3.816   5.248  10.487 -1.3712  0.1842  2.1356
    1SAPS   O21   23   3.762   5.402  10.349  0.0915 -0.3812 -0.0056
    1SAPS   C21   24   3.890   5.432  10.335  0.5593  0.6152 -0.3085
    1SAPS   O22   25   3.984   5.367  10.387  0.3475 -0.0885  0.1698
    1SAPS   C22   26   3.910   5.562  10.262 -0.0546  0.0486  0.5072
    1SAPS   H2R   27   3.837   5.570  10.178  0.8191  4.4903 -0.0872
    1SAPS   H2S   28   3.878   5.644  10.330  1.2900 -0.5012  1.8620
    1SAPS    C3   29   3.683   5.179  10.320 -0.4911  0.2814 -0.1185
    1SAPS    HX   30   3.618   5.240  10.254 -3.3889 -1.4788  0.9112
    1SAPS    HY   31   3.629   5.092  10.363  1.2619 -1.0582 -0.5340
    1SAPS   O31   32   3.799   5.125  10.254 -0.5699 -0.2235  0.3242
    1SAPS   C31   33   3.793   5.102  10.129  0.7372  0.3125 -0.4844
    1SAPS   O32   34   3.692   5.121  10.060  0.4879 -0.0489  0.2411
    1SAPS   C32   35   3.925   5.042  10.087  0.0610  0.7104  0.2464
    1SAPS   H2X   36   3.925   4.941  10.134  0.1057  0.9559  0.7772
    1SAPS   H2Y   37   4.009   5.090  10.140  1.2762 -1.4439  0.4003
    1SAPS   C23   38   4.049   5.599  10.202  0.2259  0.3039  0.2952
    1SAPS   H3R   39   4.125   5.584  10.282 -1.3960 -2.5099  1.4589
    1SAPS   H3S   40   4.041   5.708  10.181  2.6488  0.5947  0.6605
    1SAPS   C24   41   4.101   5.521  10.089  0.5564 -0.0807 -0.2246
    1SAPS   H4R   42   4.113   5.414  10.116  0.8558  0.3872  1.6502
    1SAPS   H4S   43   4.205   5.553  10.068  0.8583 -0.7180  0.2678
    1SAPS   C25   44   4.033   5.538   9.957 -0.0823  0.6499 -0.2550
    1SAPS   H5R   45   3.930   5.572   9.968 -0.4642 -0.7726  0.8606
    1SAPS   C26   46   4.087   5.529   9.835  0.1098  0.3184 -0.7031
    1SAPS   H6R   47   4.023   5.534   9.746 -1.6300 -0.7889  0.4353
    1SAPS   C27   48   4.230   5.487   9.813 -0.1742  0.1243 -0.7597
    1SAPS   H7R   49   4.292   5.535   9.891 -0.5760  0.5502 -0.6984
    1SAPS   H7S   50   4.259   5.537   9.718  0.1365 -0.6500 -1.0815
    1SAPS   C28   51   4.261   5.343   9.805 -0.2908 -0.5311  0.1842
    1SAPS   H8R   52   4.286   5.293   9.900 -1.8341  2.0954  2.0915
    1SAPS   C29   53   4.255   5.271   9.688  0.4602  0.4560 -0.8989
    1SAPS   H9R   54   4.271   5.163   9.689  1.5561  0.5568  2.0567
    1SAPS  C210   55   4.220   5.312   9.546  0.6077 -0.2390  0.4399
    1SAPS  H10R   56   4.313   5.322   9.486 -0.0174 -2.9920 -1.1609
    1SAPS  H10S   57   4.175   5.413   9.550 -0.7572 -0.7784 -0.7362
    1SAPS  C211   58   4.125   5.208   9.483  0.1477  0.8244 -0.7461
    1SAPS  H11R   59   4.057   5.155   9.550 -0.2787  1.2218 -0.8604
    1SAPS  C212   60   4.117   5.173   9.353 -0.7139 -0.3500 -0.0005
    1SAPS  H12R   61   4.056   5.087   9.322  0.6307 -1.4940  0.4754
    1SAPS  C213   62   4.192   5.227   9.237 -0.6187 -0.0762 -0.2414
    1SAPS  H13R   63   4.272   5.297   9.267  0.2729 -1.3481  0.4445
    1SAPS  H13S   64   4.132   5.289   9.166  0.3074 -0.1401 -1.1044
    1SAPS  C214   65   4.264   5.126   9.154  0.5702  0.0004 -0.4052
    1SAPS  H14R   66   4.367   5.098   9.183 -0.3600 -0.8370  2.3815
    1SAPS  C215   67   4.203   5.060   9.054 -0.4228 -0.2314 -0.6208
    1SAPS  H15R   68   4.265   4.989   8.997  3.1107  1.7123  0.4668
    1SAPS  C216   69   4.063   5.075   9.008  0.0835 -0.1978 -0.0355
    1SAPS  H16R   70   4.027   5.178   8.990 -1.3932 -0.6208  0.4281
    1SAPS  H16S   71   3.992   5.043   9.087 -0.2205  1.8752  0.5744
    1SAPS  C217   72   4.041   4.991   8.886  0.3257  0.3683 -0.5207
    1SAPS  H17R   73   4.062   4.884   8.903 -3.0657 -0.4933 -1.0164
    1SAPS  H17S   74   4.099   5.027   8.799 -2.8293  0.6781 -2.6670
    1SAPS  C218   75   3.894   5.006   8.836 -0.3248  0.2138 -0.5489
    1SAPS  H18R   76   3.871   5.113   8.818  1.6986  0.9661  0.9691
    1SAPS  H18S   77   3.832   4.963   8.918  2.4831 -2.4186  0.3819
    1SAPS  C219   78   3.870   4.914   8.716 -0.1361 -0.4063 -0.0413
    1SAPS  H19R   79   3.891   4.806   8.726 -2.7600 -1.4050 -3.3338
    1SAPS  H19S   80   3.947   4.947   8.644  1.5591 -1.7047  1.1152
    1SAPS  C220   81   3.728   4.938   8.665 -0.7242 -0.2337  0.2887
    1SAPS  H20R   82   3.723   5.035   8.613 -1.0068 -1.6508 -2.5309
    1SAPS  H20S   83   3.661   4.944   8.754  0.7032  3.1329  1.2773
    1SAPS  H20T   84   3.696   4.861   8.592  3.8966 -0.8893 -1.3840
    1SAPS   C33   85   3.950   5.045   9.942  0.0767  0.0152  0.0096
    1SAPS   H3X   86   4.058   5.020   9.928 -0.2021 -0.4674 -1.5058
    1SAPS   H3Y   87   3.928   5.145   9.898 -0.5090 -0.1748 -0.1292
    1SAPS   C34   88   3.888   4.950   9.847  0.5125  0.1033  0.2669
    1SAPS   H4X   89   3.778   4.960   9.839  0.6034 -0.3925 -3.1876
    1SAPS   H4Y   90   3.920   4.848   9.877  2.8881  0.4454 -0.8359
    1SAPS   C35   91   3.930   4.958   9.696  0.3287 -0.3043 -0.7129
    1SAPS   H5X   92   4.041   4.958   9.696  0.4705  1.7414  2.5774
    1SAPS   H5Y   93   3.895   5.059   9.666  2.2358  0.8862  0.8314
    1SAPS   C36   94   3.884   4.843   9.614  0.6587  1.0560 -0.0840
    1SAPS   H6X   95   3.774   4.841   9.634  0.6049  2.4965 -0.1548
    1SAPS   H6Y   96   3.923   4.748   9.656 -2.4995  0.2544  1.3180
    1SAPS   C37   97   3.903   4.860   9.462 -0.3982  0.4206  0.4830
    1SAPS   H7X   98   4.008   4.869   9.427 -0.6257  1.0130 -0.0679
    1SAPS   H7Y   99   3.843   4.948   9.429 -0.2315  0.1712 -0.5234
    1SAPS   C38  100   3.838   4.743   9.381  0.1005 -0.1810  0.2635
    1SAPS   H8X  101   3.733   4.743   9.417  0.0915 -0.1584  0.2375
    1SAPS   H8Y  102   3.884   4.648   9.415  0.9358  0.2448  0.3649
    1SAPS   C39  103   3.833   4.759   9.231 -0.4325 -0.0176  0.1644
    1SAPS   H9X  104   3.939   4.754   9.199 -0.5665  1.1021 -0.4968
    1SAPS   H9Y  105   3.813   4.866   9.212 -1.1071  0.1637  1.7314
    1SAPS  C310  106   3.742   4.672   9.155 -0.3807 -0.2345  0.3807
    1SAPS  H10X  107   3.640   4.672   9.199 -0.6248  2.4048 -0.0541
    1SAPS  H10Y  108   3.778   4.567   9.159  2.8730  0.7931  0.6969
    1SAPS  C311  109   3.708   4.714   9.009  0.8070  0.0121 -0.5127
    1SAPS  H11X  110   3.800   4.704   8.946  0.2513 -1.9373 -1.0753
    1SAPS  H11Y  111   3.684   4.822   9.005 -0.2496 -0.1376  1.0651
    1SAPS  C312  112   3.590   4.630   8.946 -0.5229 -0.5519  0.1905
    1SAPS  H12X  113   3.567   4.687   8.854 -1.8200 -0.2998  0.6413
    1SAPS  H12Y  114   3.496   4.634   9.005 -0.7237 -0.8720 -0.1104
    1SAPS  C313  115   3.620   4.480   8.928  0.0138  0.2738  1.0572
    1SAPS  H13X  116   3.655   4.435   9.023  2.2528  1.4299  0.8341
    1SAPS  H13Y  117   3.706   4.477   8.858 -0.0785  0.8557  0.9120
    1SAPS  C314  118   3.500   4.402   8.872  0.2227  0.7350  0.0244
    1SAPS  H14X  119   3.429   4.385   8.955  1.7290 -0.6267  1.0866
    1SAPS  H14Y  120   3.530   4.298   8.848  1.6737  0.7175  1.7072
    1SAPS  C315  121   3.433   4.467   8.747  0.1919  0.2077 -0.8179
    1SAPS  H15X  122   3.403   4.573   8.766 -0.6936 -0.5178  2.3427
    1SAPS  H15Y  123   3.341   4.415   8.711 -0.9739  1.5301  0.1311
    1SAPS  C316  124   3.530   4.464   8.636  0.2755 -0.3383  0.4034
    1SAPS  H16X  125   3.584   4.367   8.641 -1.6073 -1.4042  0.6231
    1SAPS  H16Y  126   3.597   4.553   8.634  1.3472 -1.1258 -0.4327
    1SAPS  C317  127   3.458   4.456   8.507  0.6618  0.3489 -0.5839
    1SAPS  H17X  128   3.396   4.548   8.495 -0.7026 -0.6899 -1.9298
    1SAPS  H17Y  129   3.386   4.373   8.492  0.6030  0.3594 -0.3737
    1SAPS  C318  130   3.543   4.478   8.379  0.1937 -0.1153  0.4866
    1SAPS  H18X  131   3.491   4.449   8.285 -0.8252  1.3583  0.5734
    1SAPS  H18Y  132   3.636   4.418   8.388 -0.5207 -0.9952  2.5713
    1SAPS  H18Z  133   3.570   4.585   8.370 -0.5437 -0.0708 -2.2146
    2SAPS     N  134   5.929   3.328  10.955 -0.7113  0.2192 -0.7479
    2SAPS   HN1  135   5.929   3.267  10.871  0.8251  0.3376 -0.8604
    2SAPS   HN2  136   5.898   3.426  10.940 -0.1696  0.7681  1.3353
    2SAPS   HN3  137   6.029   3.339  10.981 -0.4722 -0.2977 -1.4443
    2SAPS   C12  138   5.857   3.275  11.076 -0.0568 -0.0361 -0.5312
    2SAPS  H12A  139   5.840   3.169  11.060  0.5122 -0.5476  1.7480
    2SAPS   C13  140   5.930   3.305  11.204  0.0462 -0.0219 -0.4214
    2SAPS  O13A  141   6.025   3.390  11.205  0.0848  0.4770 -0.2432
    2SAPS  O13B  142   5.878   3.273  11.313 -0.4401  0.2405 -0.3980
    2SAPS   C11  143   5.718   3.341  11.086 -0.2157  0.1075  0.7419
    2SAPS  H11A  144   5.724   3.452  11.082 -2.8983  0.2829 -0.5104
    2SAPS  H11B  145   5.666   3.313  11.181  0.7256 -3.5676  0.3261
    2SAPS     P  146   5.509   3.360  10.940 -0.1115  0.2024  0.0798
    2SAPS   O13  147   5.403   3.262  10.968  0.1390  0.7313  0.0547
    2SAPS   O14  148   5.503   3.497  10.996 -0.3643  0.2519  0.1495
    2SAPS   O12  149   5.643   3.291  10.979 -0.0775  0.3706  0.4123
    2SAPS   O11  150   5.517   3.383  10.785 -0.3238 -0.1123 -0.0792
    2SAPS    C1  151   5.622   3.426  10.695  0.9889  0.7909 -0.5135
    2SAPS    HA  152   5.685   3.486  10.764 -1.5162  2.7207  0.2206
    2SAPS    HB  153   5.675   3.333  10.663 -0.8958 -0.1345 -1.0807
    2SAPS    C2  154   5.572   3.504  10.568  0.1625 -0.5175  0.4168
    2SAPS    HS  155   5.501   3.580  10.608  0.8660 -1.1643  3.0898
    2SAPS   O21  156   5.507   3.415  10.482  0.4411  0.1428  0.4229
    2SAPS   C21  157   5.421   3.460  10.399  0.0233 -0.1167 -0.1108
    2SAPS   O22  158   5.361   3.567  10.399 -0.2979  0.4462 -0.2957
    2SAPS   C22  159   5.399   3.352  10.296  0.1008  0.6966  0.3911
    2SAPS   H2R  160   5.488   3.286  10.286 -2.0420 -2.2641 -0.6546
    2SAPS   H2S  161   5.314   3.286  10.324 -0.2728  0.7398 -0.5970
    2SAPS    C3  162   5.694   3.573  10.494 -0.0216 -0.3942 -0.6986
    2SAPS    HX  163   5.760   3.494  10.453 -0.4585 -1.8963  1.3113
    2SAPS    HY  164   5.747   3.622  10.578 -0.7724 -0.0206 -0.4296
    2SAPS   O31  165   5.648   3.663  10.392  0.2750  0.1532  0.3216
    2SAPS   C31  166   5.644   3.792  10.417  0.2731  0.1511 -0.8242
    2SAPS   O32  167   5.696   3.847  10.513  0.1870  0.6656  0.2482
    2SAPS   C32  168   5.577   3.859  10.290  0.6553 -0.4057 -0.3245
    2SAPS   H2X  169   5.477   3.815  10.270  0.3498  0.6660 -1.2948
    2SAPS   H2Y  170   5.633   3.833  10.198 -0.4187 -0.4292 -0.9932
    2SAPS   C23  171   5.354   3.419  10.163 -0.1203  0.1293  0.2890
    2SAPS   H3R  172   5.266   3.484  10.178 -0.6429 -0.4598 -0.1360
    2SAPS   H3S  173   5.320   3.336  10.096 -0.6458 -0.8147  1.6872
    2SAPS   C24  174   5.469   3.500  10.091  0.0165  0.4484  0.4661
    2SAPS   H4R  175   5.549   3.437  10.047 -0.5801 -0.3187  0.4456
    2SAPS   H4S  176   5.525   3.567  10.159  1.1372 -0.8851  0.9097
    2SAPS   C25  177   5.399   3.573   9.982 -0.3030 -0.1400  0.1128
    2SAPS   H5R  178   5.358   3.668  10.018 -1.0150 -0.3210 -0.2104
    2SAPS   C26  179   5.378   3.554   9.853  0.5948  0.2875 -0.6616
    2SAPS   H6R  180   5.318   3.635   9.809 -0.4411  1.1348  2.1189
    2SAPS   C27  181   5.424   3.433   9.776 -0.5006 -0.3270  1.0757
    2SAPS   H7R  182   5.350   3.411   9.696  0.3253  1.8074 -0.3506
    2SAPS   H7S  183   5.432   3.344   9.842 -1.1589  0.1345  1.7939
    2SAPS   C28  184   5.558   3.463   9.706  0.0603  0.1325 -0.4040
    2SAPS   H8R  185   5.650   3.439   9.761  0.4303  2.0767 -0.0989
    2SAPS   C29  186   5.591   3.536   9.599  0.4074  0.1473  0.6271
    2SAPS   H9R  187   5.698   3.551   9.578  0.3903 -0.1774  0.3003
    2SAPS  C210  188   5.484   3.610   9.521 -0.2255 -0.4533 -0.7423
    2SAPS  H10R  189   5.407   3.656   9.587  2.1958  0.8851  1.2964
    2SAPS  H10S  190   5.421   3.534   9.469 -0.6457 -1.3226  0.9651
    2SAPS  C211  191   5.545   3.720   9.430  0.5705 -0.6535 -0.6310
    2SAPS  H11R  192   5.613   3.793   9.475  0.5032  0.2013 -1.8717
    2SAPS  C212  193   5.523   3.736   9.299  0.3541  0.2496  1.5234
    2SAPS  H12R  194   5.579   3.818   9.252 -1.0512  0.3932  0.0091
    2SAPS  C213  195   5.442   3.647   9.207  0.4381  0.2405 -0.2071
    2SAPS  H13R  196   5.352   3.689   9.156 -0.6218 -1.8717 -0.1687
    2SAPS  H13S  197   5.393   3.565   9.263 -2.9067  2.3505  0.2817
    2SAPS  C214  198   5.521   3.575   9.103 -0.1671 -0.2361  0.2034
    2SAPS  H14R  199   5.520   3.466   9.120 -1.2719 -0.2781 -0.0182
    2SAPS  C215  200   5.577   3.630   8.997  0.5262  0.3766  0.4008
    2SAPS  H15R  201   5.631   3.561   8.931 -0.2098 -2.2710  2.3875
    2SAPS  C216  202   5.568   3.776   8.961 -0.0866 -0.4513 -0.0548
    2SAPS  H16R  203   5.673   3.809   8.941 -0.7539  1.5874 -0.4132
    2SAPS  H16S  204   5.525   3.843   9.038 -0.0571  2.2018 -2.2200
    2SAPS  C217  205   5.500   3.802   8.827 -0.5926 -0.6694 -0.0427
    2SAPS  H17R  206   5.551   3.736   8.754  2.1489  0.0969  1.0436
    2SAPS  H17S  207   5.510   3.904   8.785  0.8283 -0.4140  0.8524
    2SAPS  C218  208   5.346   3.765   8.832  0.4695 -0.0561  0.3255
    2SAPS  H18R  209   5.306   3.786   8.933  1.4380 -2.2967  1.2389
    2SAPS  H18S  210   5.346   3.656   8.809 -1.0593 -0.0461  0.1743
    2SAPS  C219  211   5.258   3.837   8.730  0.2986 -0.1836 -0.0040
    2SAPS  H19R  212   5.251   3.945   8.755 -0.0740  0.0190 -0.9586
    2SAPS  H19S  213   5.158   3.789   8.738 -0.2666  1.2647  2.6583
    2SAPS  C220  214   5.306   3.827   8.582  0.2927 -0.6424 -0.3145
    2SAPS  H20R  215   5.212   3.822   8.523  0.9528 -0.7870 -1.3685
    2SAPS  H20S  216   5.349   3.728   8.557 -1.3800 -1.2902 -0.8115
    2SAPS  H20T  217   5.377   3.909   8.557 -1.6957  2.3937  2.9175
    2SAPS   C33  218   5.577   4.013  10.293 -0.8306 -0.2617  0.7783
    2SAPS   H3X  219   5.669   4.043  10.347  0.3183 -2.5003  0.1846
    2SAPS   H3Y  220   5.496   4.058  10.355  1.6243  2.2663  2.4032
    2SAPS   C34  221   5.585   4.077  10.152 -0.3354 -0.7392 -0.3838
    2SAPS   H4X  222   5.493   4.040  10.102 -0.9866 -2.1359  1.6842
    2SAPS   H4Y  223   5.676   4.032  10.107 -1.2808 -2.3950 -0.7261
    2SAPS   C35  224   5.595   4.227  10.155  0.0680 -0.0340  0.1352
    2SAPS   H5X  225   5.671   4.262  10.228  0.8570  0.5876 -0.9354
    2SAPS   H5Y  226   5.498   4.262  10.196  0.4957 -2.0629  3.1993
    2SAPS   C36  227   5.624   4.282  10.014 -0.1523 -0.3644  0.2038
    2SAPS   H6X  228   5.717   4.241   9.968  0.4966  0.0112  1.1507
    2SAPS   H6Y  229   5.638   4.391  10.028 -1.2349 -0.0579 -0.9020
    2SAPS   C37  230   5.514   4.262   9.911  0.4158 -0.2800 -0.3895
    2SAPS   H7X  231   5.409   4.275   9.947  0.5363 -1.5919  0.4952
    2SAPS   H7Y  232   5.528   4.156   9.883 -0.1754 -0.5240  0.2109
    2SAPS   C38  233   5.540   4.342   9.789  0.1369  0.1472  0.3101
    2SAPS   H8X  234   5.644   4.366   9.757 -0.1623 -1.3478 -2.0499
    2SAPS   H8Y  235   5.507   4.447   9.804 -0.4583  0.0762 -0.4717
    2SAPS   C39  236   5.467   4.279   9.662 -0.7926 -0.5272 -0.0366
    2SAPS   H9X  237   5.361   4.264   9.691 -0.7048  1.1059  1.3237
    2SAPS   H9Y  238   5.525   4.188   9.637  0.3581  0.4401 -1.0386
    2SAPS  C310  239   5.478   4.376   9.540  0.2349  0.6963  0.7353
    2SAPS  H10X  240   5.584   4.409   9.534 -0.1472  1.8035 -0.1694
    2SAPS  H10Y  241   5.416   4.466   9.558  2.1148  2.2661 -0.3474
    2SAPS  C311  242   5.444   4.331   9.399  0.0820  0.4751 -0.7556
    2SAPS  H11X  243   5.460   4.422   9.339 -0.6683  0.3931 -1.0848
    2SAPS  H11Y  244   5.342   4.286   9.397  1.3395 -2.6741 -0.2597
    2SAPS  C312  245   5.545   4.223   9.340 -0.1746  1.0024  0.1162
    2SAPS  H12X  246   5.545   4.128   9.397 -0.0028  1.6276  1.1834
    2SAPS  H12Y  247   5.652   4.255   9.333  0.2211 -0.4166 -0.5925
    2SAPS  C313  248   5.506   4.172   9.200 -0.1188 -0.4520  0.5001
    2SAPS  H13X  249   5.398   4.147   9.192 -1.0028  3.1161 -0.6507
    2SAPS  H13Y  250   5.557   4.077   9.172  0.9340  0.1555  0.3150
    2SAPS  C314  251   5.537   4.273   9.090  0.2146  0.0822  0.2930
    2SAPS  H14X  252   5.644   4.277   9.061 -0.5173  0.9553 -2.5977
    2SAPS  H14Y  253   5.508   4.370   9.136 -0.4910  0.1465 -0.2714
    2SAPS  C315  254   5.456   4.245   8.963 -1.1719  0.0703  0.5277
    2SAPS  H15X  255   5.349   4.235   8.990 -1.1265  0.8145  0.9976
    2SAPS  H15Y  256   5.488   4.149   8.916  2.4893  0.5007  1.7899
    2SAPS  C316  257   5.463   4.356   8.861  0.2230  0.6524 -0.0104
    2SAPS  H16X  258   5.564   4.371   8.817  0.0299 -1.3972 -1.2626
    2SAPS  H16Y  259   5.439   4.446   8.922 -0.5119 -0.7492  1.8765
    2SAPS  C317  260   5.362   4.342   8.745  0.4037  0.3104 -0.1389
    2SAPS  H17X  261   5.260   4.312   8.778 -0.1208  0.0181 -1.9215
    2SAPS  H17Y  262   5.403   4.261   8.681  1.0882  0.6238 -0.1010
    2SAPS  C318  263   5.352   4.475   8.668 -0.1450  0.3140  0.1714
    2SAPS  H18X  264   5.254   4.465   8.618 -0.3606  0.2615  0.5999
    2SAPS  H18Y  265   5.423   4.500   8.586 -0.5180 -0.1579 -0.3039
    2SAPS  H18Z  266   5.341   4.566   8.730 -3.7307  0.0965  0.0292
    3SAPS     N  267   6.773   6.014  10.969  0.2045 -0.2975 -0.1457
    3SAPS   HN1  268   6.743   5.919  10.997 -2.4671  0.3138 -0.6130
    3SAPS   HN2  269   6.693   6.080  10.982  0.1317 -0.5843  0.9334
    3SAPS   HN3  270   6.786   6.004  10.866 -2.6770 -1.1454 -0.5347
    3SAPS   C12  271   6.892   6.068  11.045  0.4131  0.3681  0.2459
    3SAPS  H12A  272   6.883   6.175  11.032 -3.3140  0.1712  0.1172
    3SAPS   C13  273   6.887   6.042  11.200 -0.1055  0.1233  0.0065
    3SAPS  O13A  274   6.811   5.949  11.238  0.1674 -0.3760 -0.2076
    3SAPS  O13B  275   6.973   6.098  11.268  0.2041 -0.2378  0.5603
    3SAPS   C11  276   7.018   6.013  10.985 -0.4892  0.5009  0.3052
    3SAPS  H11A  277   7.006   5.903  10.980  0.9609  0.2354  1.7689
    3SAPS  H11B  278   7.103   6.029  11.054  0.7663 -1.3393 -0.7184
    3SAPS     P  279   7.152   6.172  10.831 -0.1265  0.3134 -0.3218
    3SAPS   O13  280   7.104   6.302  10.892 -0.3752  0.1330  0.0031
    3SAPS   O14  281   7.280   6.129  10.886  0.6142  0.1570  0.3045
    3SAPS   O12  282   7.041   6.069  10.856  0.6224 -0.3001 -0.0876
    3SAPS   O11  283   7.165   6.186  10.673  0.1687 -0.1936  0.0615
    3SAPS    C1  284   7.048   6.209  10.594 -0.3489 -0.1563 -0.3660
    3SAPS    HA  285   6.965   6.138  10.613  0.3044 -0.5515  1.1254
    3SAPS    HB  286   7.001   6.306  10.621 -3.8913 -2.0544  0.9849
    3SAPS    C2  287   7.080   6.202  10.445 -0.6449 -0.2842  0.8654
    3SAPS    HS  288   6.986   6.226  10.390 -0.9210 -0.4357  1.2688
    3SAPS   O21  289   7.127   6.072  10.413  0.2041 -0.2541  0.2751
    3SAPS   C21  290   7.040   5.999  10.341  0.0513  0.0985 -0.0769
    3SAPS   O22  291   6.928   6.028  10.311  0.6188 -0.2287  0.6079
    3SAPS   C22  292   7.100   5.871  10.290 -0.4755  0.1595  0.7182
    3SAPS   H2R  293   7.156   5.829  10.377 -0.6223  0.0761  0.7721
    3SAPS   H2S  294   7.024   5.799  10.252  0.6353  0.6641 -2.7795
    3SAPS    C3  295   7.191   6.294  10.391  0.3442 -0.1178 -0.2172
    3SAPS    HX  296   7.287   6.253  10.429  1.6120  2.1336 -0.7999
    3SAPS    HY  297   7.185   6.394  10.439  0.1106 -0.3957  0.3379
    3SAPS   O31  298   7.203   6.305  10.253 -0.0514  0.0764 -0.0386
    3SAPS   C31  299   7.122   6.386  10.191  0.1618 -0.2002  0.4104
    3SAPS   O32  300   7.033   6.454  10.244 -0.9186 -0.1459  0.1182
    3SAPS   C32  301   7.175   6.389  10.040  0.5385  0.2459 -0.4686
    3SAPS   H2X  302   7.107   6.342   9.965  2.7241 -1.8041 -1.2596
    3SAPS   H2Y  303   7.268   6.329  10.039  1.0470  0.6867  3.9161
    3SAPS   C23  304   7.198   5.889  10.169 -0.7128 -0.2700 -0.0100
    3SAPS   H3R  305   7.276   5.811  10.182  2.1826  2.2787 -0.9999
    3SAPS   H3S  306   7.247   5.988  10.182 -3.2376  0.7808  2.5071
    3SAPS   C24  307   7.139   5.878  10.026  0.5720 -0.2817  0.0513
    3SAPS   H4R  308   7.211   5.893   9.943  0.8517  1.1662  0.5253
    3SAPS   H4S  309   7.064   5.957  10.005  0.9771 -0.1958 -1.1361
    3SAPS   C25  310   7.086   5.741  10.016 -0.1979  0.9190  0.3137
    3SAPS   H5R  311   7.146   5.660  10.061 -0.9394  2.0704  3.6919
    3SAPS   C26  312   6.972   5.713   9.947 -0.5862  0.3671  0.6377
    3SAPS   H6R  313   6.945   5.607   9.937 -0.6378  0.6010 -3.0441
    3SAPS   C27  314   6.883   5.815   9.874  0.2288  0.2078  0.2883
    3SAPS   H7R  315   6.823   5.753   9.803  0.1006  0.3776  0.2478
    3SAPS   H7S  316   6.936   5.893   9.814 -1.0846  0.1036 -1.0673
    3SAPS   C28  317   6.788   5.890   9.974 -0.8270 -0.4069  0.5999
    3SAPS   H8R  318   6.847   5.936  10.055  0.3674  2.3635 -1.6725
    3SAPS   C29  319   6.654   5.916   9.969  0.2088  0.5681 -0.3400
    3SAPS   H9R  320   6.601   5.976  10.045 -1.2164 -2.0067  0.8242
    3SAPS  C210  321   6.550   5.876   9.861  0.4048  0.4998 -0.1740
    3SAPS  H10R  322   6.461   5.833   9.911  0.0925 -0.9294 -1.8477
    3SAPS  H10S  323   6.580   5.795   9.790 -1.4347  0.0724 -0.5017
    3SAPS  C211  324   6.505   5.993   9.772  0.0844  0.5463  0.5443
    3SAPS  H11R  325   6.577   6.014   9.691  1.1908 -4.8819 -0.3071
    3SAPS  C212  326   6.401   6.076   9.794 -0.4300  0.5444  0.8595
    3SAPS  H12R  327   6.366   6.161   9.734 -0.2517  0.0810  0.0826
    3SAPS  C213  328   6.307   6.051   9.904 -0.6296  0.1706 -0.3542
    3SAPS  H13R  329   6.245   5.960   9.890  0.8567 -1.3442  2.1868
    3SAPS  H13S  330   6.235   6.136   9.903 -1.0125 -0.1217  0.7601
    3SAPS  C214  331   6.354   6.062  10.045  0.8267  0.8930 -0.1575
    3SAPS  H14R  332   6.433   6.139  10.049  0.7713  0.8904  1.1733
    3SAPS  C215  333   6.327   5.990  10.160  0.1543  0.1239  0.0018
    3SAPS  H15R  334   6.388   6.013  10.248  2.9628 -0.5864 -1.6234
    3SAPS  C216  335   6.220   5.882  10.165  0.3088  0.7552 -0.1198
    3SAPS  H16R  336   6.174   5.871  10.064  0.4555  1.1943 -0.2318
    3SAPS  H16S  337   6.136   5.922  10.226 -2.8747  2.3990 -4.9213
    3SAPS  C217  338   6.278   5.753  10.215 -0.2650  0.8919 -0.0732
    3SAPS  H17R  339   6.351   5.717  10.140 -0.3963  1.8537 -0.6876
    3SAPS  H17S  340   6.203   5.671  10.216 -0.2382  0.8706  0.8019
    3SAPS  C218  341   6.345   5.768  10.350  0.0973  1.2118  0.3240
    3SAPS  H18R  342   6.438   5.828  10.342 -0.5111  2.1926  0.3502
    3SAPS  H18S  343   6.371   5.662  10.372  1.0411  0.8752 -2.1469
    3SAPS  C219  344   6.259   5.816  10.474 -0.0171  0.2485 -0.5215
    3SAPS  H19R  345   6.192   5.902  10.451 -0.5282  0.0256  0.1106
    3SAPS  H19S  346   6.327   5.848  10.556 -1.0531  0.8187  0.1315
    3SAPS  C220  347   6.169   5.711  10.537 -0.6413  0.4560 -0.3818
    3SAPS  H20R  348   6.080   5.695  10.472 -0.9669 -0.4516  0.2808
    3SAPS  H20S  349   6.134   5.749  10.635  0.9883 -0.0956  0.4343
    3SAPS  H20T  350   6.214   5.611  10.546 -0.0060  0.9386  2.8444
    3SAPS   C33  351   7.211   6.527   9.991 -0.3385 -0.3818 -1.0768
    3SAPS   H3X  352   7.296   6.570  10.048  0.6909 -1.5162 -1.6911
    3SAPS   H3Y  353   7.128   6.595  10.020  1.5420  1.3201  0.6163
    3SAPS   C34  354   7.231   6.547   9.836 -0.6719 -0.6089  0.1439
    3SAPS   H4X  355   7.136   6.519   9.786 -0.7793 -0.3425  0.2001
    3SAPS   H4Y  356   7.310   6.471   9.818 -0.9798 -0.5618 -1.5827
    3SAPS   C35  357   7.288   6.689   9.804 -0.0420  0.3042 -0.2026
    3SAPS   H5X  358   7.383   6.698   9.861  0.0635  1.7171 -0.5591
    3SAPS   H5Y  359   7.207   6.752   9.848 -3.6981 -3.5956 -0.6585
    3SAPS   C36  360   7.324   6.728   9.656  0.4658 -0.5330  0.1134
    3SAPS   H6X  361   7.243   6.692   9.588  0.0771  3.0588 -1.5888
    3SAPS   H6Y  362   7.423   6.687   9.630  0.9673  1.6732 -1.8559
    3SAPS   C37  363   7.347   6.880   9.621  0.2478  0.2975 -1.1882
    3SAPS   H7X  364   7.434   6.922   9.676  0.7160 -0.4310 -1.3441
    3SAPS   H7Y  365   7.257   6.943   9.629  0.0185  0.4110 -3.7397
    3SAPS   C38  366   7.399   6.889   9.471 -0.2927 -0.1445  0.3013
    3SAPS   H8X  367   7.323   6.859   9.396 -1.0972  0.8845  0.6716
    3SAPS   H8Y  368   7.486   6.823   9.453  0.0087  0.9520 -2.9513
    3SAPS   C39  369   7.422   7.040   9.447 -0.3504  0.1054 -0.4235
    3SAPS   H9X  370   7.479   7.107   9.515 -0.1324  1.8102 -2.1914
    3SAPS   H9Y  371   7.319   7.081   9.441 -1.2343 -1.7100  1.1550
    3SAPS  C310  372   7.484   7.051   9.306  0.1909  0.4046 -0.0993
    3SAPS  H10X  373   7.451   6.966   9.243 -0.5008 -1.0863  2.1614
    3SAPS  H10Y  374   7.595   7.047   9.304  0.1655 -0.5866 -2.1568
    3SAPS  C311  375   7.448   7.183   9.230  0.1070 -0.4720  0.3337
    3SAPS  H11X  376   7.337   7.191   9.224  0.1318 -0.8771 -0.8978
    3SAPS  H11Y  377   7.484   7.175   9.125 -1.6395  1.9781 -0.5506
    3SAPS  C312  378   7.508   7.312   9.296 -0.3203  0.2164 -0.7005
    3SAPS  H12X  379   7.610   7.295   9.336 -0.6714 -0.1189  0.0916
    3SAPS  H12Y  380   7.444   7.342   9.382  1.5244 -0.1705  0.8642
    3SAPS  C313  381   7.529   7.438   9.208 -0.4998  0.2778 -0.4083
    3SAPS  H13X  382   7.604   7.412   9.130  2.1694  0.7563  1.8429
    3SAPS  H13Y  383   7.582   7.511   9.274 -2.0515  1.6595 -0.6225
    3SAPS  C314  384   7.399   7.504   9.158  0.3462  0.1470 -0.4406
    3SAPS  H14X  385   7.340   7.553   9.238 -1.7022  0.5922 -2.1598
    3SAPS  H14Y  386   7.337   7.431   9.102 -0.2848  0.5822 -0.3203
    3SAPS  C315  387   7.438   7.616   9.060 -0.4545  0.2443  0.7954
    3SAPS  H15X  388   7.535   7.665   9.087  0.5129 -0.0168 -1.8496
    3SAPS  H15Y  389   7.358   7.693   9.061 -0.3679  0.3603 -0.3436
    3SAPS  C316  390   7.465   7.573   8.917 -0.3482 -0.0038 -0.2846
    3SAPS  H16X  391   7.394   7.492   8.888  0.5350 -0.6245 -0.7620
    3SAPS  H16Y  392   7.564   7.523   8.906  0.5463  1.6537  0.0044
    3SAPS  C317  393   7.448   7.687   8.813 -0.9427 -0.0132 -0.2596
    3SAPS  H17X  394   7.487   7.656   8.714 -2.5692  0.2272 -1.0057
    3SAPS  H17Y  395   7.491   7.783   8.849  0.3421 -0.5451 -0.3411
    3SAPS  C318  396   7.301   7.714   8.773  0.1606  0.4007 -0.5626
    3SAPS  H18X  397   7.289   7.774   8.681 -0.0804 -0.6916 -1.2656
    3SAPS  H18Y  398   7.244   7.767   8.851  0.1468  1.8566 -1.5272
    3SAPS  H18Z  399   7.254   7.614   8.759 -0.7276  0.6161  0.7473
    4SAPS     N  400   6.155   6.237  10.629  0.2989  0.4801  0.6620
    4SAPS   HN1  401   6.117   6.149  10.669 -0.0146 -0.4499 -1.4993
    4SAPS   HN2  402   6.089   6.284  10.563  0.4634  0.5911  0.5762
    4SAPS   HN3  403   6.237   6.210  10.572  0.4232  1.4636  0.3650
    4SAPS   C12  404   6.207   6.327  10.734  0.0601  0.3431  0.5970
    4SAPS  H12A  405   6.133   6.327  10.813 -0.1865 -2.2072  0.4663
    4SAPS   C13  406   6.341   6.289  10.789  0.5436  0.3719 -1.0803
    4SAPS  O13A  407   6.407   6.197  10.736 -0.1173 -0.1619 -0.3237
    4SAPS  O13B  408   6.359   6.322  10.914 -0.1167 -0.4402 -0.2191
    4SAPS   C11  409   6.225   6.472  10.682  0.4672 -0.6888  0.6119
    4SAPS  H11A  410   6.297   6.474  10.597  0.1576 -0.2435  0.3510
    4SAPS  H11B  411   6.274   6.528  10.765  2.2089 -0.4903 -0.4928
    4SAPS     P  412   6.005   6.595  10.755  0.0778 -0.1280  0.0964
    4SAPS   O13  413   6.005   6.508  10.875  0.0156 -0.0377  0.1346
    4SAPS   O14  414   6.038   6.742  10.768 -0.5499 -0.1921 -0.4609
    4SAPS   O12  415   6.101   6.536  10.647  0.1379 -0.1623 -0.5831
    4SAPS   O11  416   5.864   6.577  10.688 -0.1784 -0.0275  0.4769
    4SAPS    C1  417   5.821   6.446  10.649 -0.0281  0.4422 -0.6755
    4SAPS    HA  418   5.893   6.363  10.667 -1.5366 -0.7145  0.4216
    4SAPS    HB  419   5.732   6.417  10.709  0.0663 -0.0091 -0.7468
    4SAPS    C2  420   5.772   6.449  10.496 -0.4273 -0.6990  0.3154
    4SAPS    HS  421   5.736   6.349  10.463  0.2907 -0.0608 -2.6387
    4SAPS   O21  422   5.873   6.501  10.403  0.1889 -0.0244 -0.8697
    4SAPS   C21  423   5.979   6.429  10.397  0.6751 -0.1773  0.4994
    4SAPS   O22  424   5.990   6.309  10.426 -0.0478 -0.8809 -0.4216
    4SAPS   C22  425   6.091   6.516  10.328  0.6056  0.5581 -0.1747
    4SAPS   H2R  426   6.058   6.621  10.337  1.8360  1.0950 -1.5639
    4SAPS   H2S  427   6.171   6.509  10.405 -1.4652  2.3678  2.3191
    4SAPS    C3  428   5.652   6.550  10.491  0.8956  0.2169 -0.2154
    4SAPS    HX  429   5.700   6.650  10.498  1.3563 -0.0830  1.5833
    4SAPS    HY  430   5.594   6.542  10.586 -0.3718 -1.3782 -1.0728
    4SAPS   O31  431   5.562   6.542  10.387 -0.1937 -0.0956 -0.3731
    4SAPS   C31  432   5.532   6.646  10.313 -0.0685 -0.8362 -0.2858
    4SAPS   O32  433   5.559   6.761  10.331  0.4462  0.0083 -0.1563
    4SAPS   C32  434   5.431   6.599  10.208 -0.0922 -0.6227  0.7005
    4SAPS   H2X  435   5.326   6.618  10.238  0.2127  1.1190  0.7401
    4SAPS   H2Y  436   5.450   6.491  10.188  0.4361 -0.2720 -0.8927
    4SAPS   C23  437   6.109   6.481  10.180 -0.3388 -0.3193  0.5061
    4SAPS   H3R  438   6.120   6.577  10.127  1.0405  0.6800  2.4716
    4SAPS   H3S  439   6.018   6.427  10.146  0.2793 -1.0629 -0.0016
    4SAPS   C24  440   6.240   6.406  10.160 -0.1223 -0.0561  0.4362
    4SAPS   H4R  441   6.240   6.368  10.055  0.7353 -0.4508  0.5710
    4SAPS   H4S  442   6.237   6.316  10.225 -1.9643  0.2785  0.8733
    4SAPS   C25  443   6.347   6.504  10.196 -0.2355 -0.7287 -0.2100
    4SAPS   H5R  444   6.365   6.512  10.304  3.0350 -1.2280 -0.6414
    4SAPS   C26  445   6.416   6.574  10.108  0.1525  0.2941  0.3112
    4SAPS   H6R  446   6.494   6.637  10.155  2.6273 -2.9816  1.0018
    4SAPS   C27  447   6.413   6.570   9.953  0.6224 -0.5376 -0.3732
    4SAPS   H7R  448   6.435   6.463   9.934  1.0822 -0.7257  1.0989
    4SAPS   H7S  449   6.500   6.628   9.915  1.0004 -0.4650  0.5583
    4SAPS   C28  450   6.288   6.616   9.881 -0.1911  0.5405 -0.2145
    4SAPS   H8R  451   6.213   6.678   9.932  0.8464  0.1055  1.9903
    4SAPS   C29  452   6.274   6.592   9.751 -0.2111  0.0970 -0.2245
    4SAPS   H9R  453   6.180   6.629   9.707  0.0054 -0.2134 -0.9689
    4SAPS  C210  454   6.371   6.523   9.663  0.2220  0.0505  0.2217
    4SAPS  H10R  455   6.425   6.438   9.709  2.1992  0.0221 -1.9473
    4SAPS  H10S  456   6.447   6.599   9.638  0.4651  0.1545  1.2524
    4SAPS  C211  457   6.313   6.463   9.534 -0.0329 -0.1147 -0.1968
    4SAPS  H11R  458   6.207   6.480   9.509 -0.2679 -2.1265 -0.7157
    4SAPS  C212  459   6.388   6.398   9.449  0.3415  0.1363 -1.1191
    4SAPS  H12R  460   6.341   6.368   9.355 -3.7181 -1.3667  1.1379
    4SAPS  C213  461   6.536   6.375   9.465 -0.0004  0.2296 -1.2065
    4SAPS  H13R  462   6.557   6.276   9.419  0.6497  0.2852 -1.0323
    4SAPS  H13S  463   6.566   6.370   9.572  0.4989 -0.7455 -1.3819
    4SAPS  C214  464   6.619   6.480   9.387  0.0582  0.4954 -0.0506
    4SAPS  H14R  465   6.619   6.580   9.435  1.2448  1.2424 -1.5248
    4SAPS  C215  466   6.695   6.468   9.279  0.2181 -0.0294 -0.1223
    4SAPS  H15R  467   6.756   6.553   9.245  0.7387  0.0189  0.8663
    4SAPS  C216  468   6.705   6.336   9.213  0.1811 -0.0535  0.5117
    4SAPS  H16R  469   6.603   6.295   9.202  0.1572 -0.7032  2.7579
    4SAPS  H16S  470   6.762   6.274   9.286  1.0603  0.3317  0.1701
    4SAPS  C217  471   6.789   6.317   9.080  0.0119 -0.3461 -0.1168
    4SAPS  H17R  472   6.889   6.363   9.093 -0.9605  1.8497  0.0911
    4SAPS  H17S  473   6.726   6.366   9.003  0.3171  0.2489  0.0100
    4SAPS  C218  474   6.803   6.169   9.046 -0.0073  0.2338 -0.4220
    4SAPS  H18R  475   6.837   6.162   8.940 -0.8749  0.1691 -0.7050
    4SAPS  H18S  476   6.711   6.106   9.038  1.2667 -1.5030 -2.2420
    4SAPS  C219  477   6.920   6.108   9.123  0.3499  0.1302 -0.0475
    4SAPS  H19R  478   6.878   6.099   9.226  1.0320  0.7610  0.2961
    4SAPS  H19S  479   7.012   6.170   9.116 -0.5949  1.4078 -1.4597
    4SAPS  C220  480   6.955   5.969   9.070 -0.3184  0.1608 -0.0972
    4SAPS  H20R  481   6.994   5.904   9.151 -0.4999  0.5080  0.2710
    4SAPS  H20S  482   7.034   5.983   8.994 -0.5878  3.9532  0.1449
    4SAPS  H20T  483   6.870   5.914   9.023 -0.8698  1.1046 -0.2329
    4SAPS   C33  484   5.458   6.668  10.071  0.7365  0.0101 -0.2001
    4SAPS   H3X  485   5.563   6.650  10.039  1.2573 -0.8470  1.8348
    4SAPS   H3Y  486   5.442   6.778  10.078 -0.4886 -0.2450  3.2084
    4SAPS   C34  487   5.359   6.614   9.960 -1.1135 -0.5468 -0.5547
    4SAPS   H4X  488   5.260   6.659   9.982 -0.5656  0.0462  0.7881
    4SAPS   H4Y  489   5.341   6.505   9.961  0.9456 -0.9259 -0.8434
    4SAPS   C35  490   5.414   6.632   9.817  0.6979 -1.0771 -0.8580
    4SAPS   H5X  491   5.514   6.583   9.811  2.9995  2.6442  2.1863
    4SAPS   H5Y  492   5.428   6.741   9.807 -0.6316 -0.7046  0.8580
    4SAPS   C36  493   5.331   6.568   9.700 -0.3018 -0.2640 -0.1715
    4SAPS   H6X  494   5.232   6.618   9.696 -1.8930 -3.1949 -0.4935
    4SAPS   H6Y  495   5.309   6.464   9.731  0.4334 -0.2145  0.5666
    4SAPS   C37  496   5.399   6.579   9.562  1.1977 -0.1706 -0.3738
    4SAPS   H7X  497   5.496   6.527   9.554  1.3281 -0.0020  0.0623
    4SAPS   H7Y  498   5.436   6.683   9.548 -1.7177  1.1936  1.1390
    4SAPS   C38  499   5.303   6.530   9.450  0.6119  0.0422 -0.3973
    4SAPS   H8X  500   5.202   6.573   9.468 -0.0807 -1.2100 -1.0743
    4SAPS   H8Y  501   5.293   6.419   9.442 -0.2404  0.1157 -0.5393
    4SAPS   C39  502   5.340   6.579   9.310 -0.3551  0.4950 -0.0651
    4SAPS   H9X  503   5.370   6.684   9.330  0.2642  0.1791  0.7772
    4SAPS   H9Y  504   5.252   6.581   9.243 -1.2143  0.4910  1.0329
    4SAPS  C310  505   5.463   6.494   9.266  0.1366  0.3013 -0.6318
    4SAPS  H10X  506   5.421   6.393   9.245  0.4933 -0.4395  1.9038
    4SAPS  H10Y  507   5.538   6.482   9.346 -0.8866 -2.3119  0.0342
    4SAPS  C311  508   5.541   6.552   9.143 -0.4957 -0.3656  0.3807
    4SAPS  H11X  509   5.623   6.479   9.128 -1.0414 -1.3420  1.8418
    4SAPS  H11Y  510   5.586   6.650   9.171 -0.9831 -0.2057  0.6161
    4SAPS  C312  511   5.448   6.561   9.023 -0.0131 -0.0327 -0.0086
    4SAPS  H12X  512   5.360   6.620   9.056 -1.6078 -2.7838  1.0472
    4SAPS  H12Y  513   5.411   6.458   9.001  0.0341 -0.2954  1.1225
    4SAPS  C313  514   5.507   6.625   8.900  0.3173 -0.5168 -0.6474
    4SAPS  H13X  515   5.470   6.728   8.882  1.4202 -0.0904 -0.5255
    4SAPS  H13Y  516   5.474   6.565   8.813 -0.5334  1.0933 -1.4808
    4SAPS  C314  517   5.663   6.627   8.891 -0.0754  0.2079  0.0877
    4SAPS  H14X  518   5.696   6.522   8.882  1.5844  0.6950  0.0937
    4SAPS  H14Y  519   5.700   6.687   8.977  1.9968 -1.4474  0.4105
    4SAPS  C315  520   5.719   6.683   8.758  0.3406 -0.4107 -0.0415
    4SAPS  H15X  521   5.726   6.793   8.764 -0.3760 -0.3612  0.0060
    4SAPS  H15Y  522   5.645   6.665   8.677 -0.2211  0.6786  0.2144
    4SAPS  C316  523   5.857   6.633   8.710 -0.1720  0.6676 -0.3872
    4SAPS  H16X  524   5.861   6.528   8.674  1.8620  0.2081  1.0101
    4SAPS  H16Y  525   5.935   6.636   8.789 -0.8005 -1.8320  0.4068
    4SAPS  C317  526   5.921   6.709   8.587  0.8154  0.5420  0.3038
    4SAPS  H17X  527   6.017   6.658   8.562  1.0269  2.3539 -3.2271
    4SAPS  H17Y  528   5.927   6.815   8.620 -0.2760  2.0392 -3.6705
    4SAPS  C318  529   5.846   6.701   8.448  0.3596 -0.4832  0.3122
    4SAPS  H18X  530   5.847   6.593   8.420 -1.5774 -1.0190  2.0771
    4SAPS  H18Y  531   5.899   6.762   8.372 -0.5821  0.1669  0.1663
    4SAPS  H18Z  532   5.739   6.727   8.444  0.0506 -1.6463  0.4563
    5SAPS     N  533   4.521   5.892  11.252 -0.1715  0.1663  0.0178
    5SAPS   HN1  534   4.574   5.978  11.228  0.4358 -0.6201 -1.6381
    5SAPS   HN2  535   4.418   5.896  11.248 -0.1938 -0.9949 -1.1244
    5SAPS   HN3  536   4.547   5.872  11.351  1.4228  1.2489 -0.1309
    5SAPS   C12  537   4.591   5.788  11.173  0.0959 -0.3954  0.8577
    5SAPS  H12A  538   4.690   5.780  11.214  0.3222  0.8219  0.5854
    5SAPS   C13  539   4.531   5.645  11.176  0.5109  0.1119 -0.3223
    5SAPS  O13A  540   4.423   5.631  11.239 -0.6832  0.3722 -0.3534
    5SAPS  O13B  541   4.557   5.568  11.083  0.2944  0.1560 -0.2577
    5SAPS   C11  542   4.601   5.843  11.028 -0.0337  0.0868  1.0696
    5SAPS  H11A  543   4.502   5.848  10.978  1.2298  3.9153 -1.5244
    5SAPS  H11B  544   4.652   5.766  10.966 -0.3076  0.5099  0.3010
    5SAPS     P  545   4.823   5.989  10.971 -0.1663  0.0567 -0.4373
    5SAPS   O13  546   4.871   6.130  10.991 -0.0281  0.3323  0.3267
    5SAPS   O14  547   4.899   5.885  11.043  0.4108  0.1226  0.5391
    5SAPS   O12  548   4.666   5.974  11.017 -0.4031  0.3739 -0.1918
    5SAPS   O11  549   4.821   5.953  10.814 -0.4280  0.0355  0.0613
    5SAPS    C1  550   4.719   5.970  10.723  0.2657  0.3159  0.8206
    5SAPS    HA  551   4.660   5.876  10.733  0.8964 -0.2146 -0.2422
    5SAPS    HB  552   4.651   6.055  10.747  1.3275  0.9122  1.7656
    5SAPS    C2  553   4.780   5.971  10.578 -0.6548 -0.1419 -0.5465
    5SAPS    HS  554   4.853   5.890  10.554 -0.6253 -0.4690  0.5946
    5SAPS   O21  555   4.828   6.104  10.568  0.2989  0.6288 -0.1807
    5SAPS   C21  556   4.958   6.130  10.568  0.4717  0.9641 -0.6337
    5SAPS   O22  557   5.044   6.050  10.606  0.6077 -0.1282  0.3438
    5SAPS   C22  558   4.985   6.270  10.529 -0.5723  0.1178  0.5683
    5SAPS   H2R  559   4.925   6.287  10.438 -0.4111 -2.3728 -0.0866
    5SAPS   H2S  560   4.934   6.328  10.608 -1.3980  0.7210 -0.3956
    5SAPS    C3  561   4.676   5.956  10.462 -0.3183 -0.0069 -0.4563
    5SAPS    HX  562   4.588   6.021  10.483  0.3326  1.2120 -1.3176
    5SAPS    HY  563   4.635   5.853  10.462  1.8082 -0.9071  0.4473
    5SAPS   O31  564   4.734   5.987  10.334 -0.4246 -0.4233 -0.2717
    5SAPS   C31  565   4.684   6.083  10.255  0.9188  0.0217  0.4661
    5SAPS   O32  566   4.587   6.154  10.285  0.1429  0.7059 -0.3124
    5SAPS   C32  567   4.772   6.094  10.132  0.7127 -0.5481  1.0327
    5SAPS   H2X  568   4.699   6.065  10.053 -0.8054  3.2201  0.8244
    5SAPS   H2Y  569   4.852   6.018  10.145 -0.1287 -1.3825  1.4310
    5SAPS   C23  570   5.133   6.313  10.529 -0.0605 -0.1189 -0.6167
    5SAPS   H3R  571   5.187   6.264  10.613 -0.4372 -0.4675 -0.5738
    5SAPS   H3S  572   5.142   6.419  10.559 -0.2407  0.1348 -1.4331
    5SAPS   C24  573   5.209   6.297  10.405 -0.2220  0.6880  0.3167
    5SAPS   H4R  574   5.227   6.189  10.385 -2.3414  0.3292  0.1144
    5SAPS   H4S  575   5.306   6.348  10.427 -0.1915  0.2921  1.1170
    5SAPS   C25  576   5.147   6.361  10.276 -0.4952 -0.6996  0.4006
    5SAPS   H5R  577   5.074   6.443  10.284 -0.5265 -0.5673 -1.0278
    5SAPS   C26  578   5.178   6.322  10.150  0.0586 -0.7266 -1.0288
    5SAPS   H6R  579   5.135   6.374  10.063 -0.8973 -1.3807 -0.9558
    5SAPS   C27  580   5.281   6.217  10.125 -0.2166  0.8787  0.3491
    5SAPS   H7R  581   5.339   6.194  10.217 -2.3452 -0.3522  1.4643
    5SAPS   H7S  582   5.356   6.250  10.050  1.0983  0.5170  1.4548
    5SAPS   C28  583   5.199   6.096  10.078 -0.2336  0.9091  0.3188
    5SAPS   H8R  584   5.124   6.063  10.151  1.1284 -0.5219  1.1329
    5SAPS   C29  585   5.214   6.042   9.959  0.0235  0.7647 -0.3646
    5SAPS   H9R  586   5.171   5.942   9.948 -0.3002  0.7869  0.6718
    5SAPS  C210  587   5.315   6.089   9.854 -0.0591 -0.1886 -0.0279
    5SAPS  H10R  588   5.413   6.126   9.891  0.3705 -1.2764 -0.0340
    5SAPS  H10S  589   5.278   6.179   9.801  0.7915  0.2097  0.0527
    5SAPS  C211  590   5.342   5.975   9.749 -0.3604 -0.0012 -0.0884
    5SAPS  H11R  591   5.287   5.882   9.772 -2.2512  1.1449  0.2614
    5SAPS  C212  592   5.399   5.981   9.628  0.2848  0.2452 -0.4527
    5SAPS  H12R  593   5.417   5.888   9.572 -1.8564 -0.4162 -0.1627
    5SAPS  C213  594   5.454   6.109   9.575 -0.2843 -0.2546 -0.1089
    5SAPS  H13R  595   5.436   6.203   9.631 -0.2401  0.4726 -1.2844
    5SAPS  H13S  596   5.409   6.136   9.476  1.5163  2.0854 -0.3808
    5SAPS  C214  597   5.601   6.089   9.565 -0.3313 -0.2936 -0.2462
    5SAPS  H14R  598   5.654   6.075   9.660  1.6971 -0.7290 -1.3790
    5SAPS  C215  599   5.671   6.074   9.451  0.0427 -0.1741  0.5646
    5SAPS  H15R  600   5.781   6.076   9.454  0.1249  1.2942 -1.3948
    5SAPS  C216  601   5.622   6.082   9.306 -0.5476 -0.1297  0.6050
    5SAPS  H16R  602   5.522   6.131   9.300 -0.4336 -0.1013 -2.1695
    5SAPS  H16S  603   5.596   5.981   9.269 -0.5851 -0.0001  0.2786
    5SAPS  C217  604   5.719   6.149   9.209  0.0178 -0.4244 -0.7812
    5SAPS  H17R  605   5.818   6.102   9.232 -0.5555 -1.3409 -0.1097
    5SAPS  H17S  606   5.730   6.256   9.234 -0.2546 -0.5087 -0.2882
    5SAPS  C218  607   5.672   6.130   9.066 -0.2646  0.4934 -0.3393
    5SAPS  H18R  608   5.682   6.022   9.041  1.6593  0.3177  0.9503
    5SAPS  H18S  609   5.567   6.165   9.056 -0.9047 -1.0180  0.8349
    5SAPS  C219  610   5.749   6.218   8.962 -0.0867  0.1970 -0.1946
    5SAPS  H19R  611   5.772   6.318   9.004  3.1845 -0.8397  0.8059
    5SAPS  H19S  612   5.674   6.238   8.883 -0.2203  0.1038 -0.0919
    5SAPS  C220  613   5.869   6.147   8.910  0.0918  0.2327 -0.2458
    5SAPS  H20R  614   5.922   6.198   8.826  1.2728 -1.8280 -0.8374
    5SAPS  H20S  615   5.822   6.052   8.877  0.5118 -0.1058  0.1174
    5SAPS  H20T  616   5.943   6.131   8.992  1.8888  1.5612 -1.5154
    5SAPS   C33  617   4.850   6.223  10.102  0.2076 -0.2259  0.2126
    5SAPS   H3X  618   4.942   6.215  10.041  1.8633 -1.5986  2.7232
    5SAPS   H3Y  619   4.877   6.280  10.194 -2.4444 -1.2426  1.7545
    5SAPS   C34  620   4.763   6.316  10.018 -0.1933  0.0124 -0.2663
    5SAPS   H4X  621   4.671   6.340  10.075  0.8311 -0.2888  1.6058
    5SAPS   H4Y  622   4.732   6.266   9.924 -0.4820 -0.4757  0.0781
    5SAPS   C35  623   4.827   6.450   9.999  0.0456  0.1511  0.0121
    5SAPS   H5X  624   4.910   6.430   9.928 -0.7533 -0.8187 -0.6773
    5SAPS   H5Y  625   4.876   6.489  10.091 -0.5792 -0.3976  0.5905
    5SAPS   C36  626   4.735   6.556   9.947  0.1808 -0.1783  0.0095
    5SAPS   H6X  627   4.653   6.574  10.019  0.5542  0.5487  0.2610
    5SAPS   H6Y  628   4.686   6.519   9.854 -1.2151  0.3344  0.5131
    5SAPS   C37  629   4.801   6.692   9.903 -0.3233 -0.0178  0.2081
    5SAPS   H7X  630   4.843   6.742   9.993 -0.1372 -0.1763  0.2086
    5SAPS   H7Y  631   4.719   6.757   9.865 -0.2540  0.5936  1.0708
    5SAPS   C38  632   4.918   6.681   9.797  0.4709 -0.0286  0.0498
    5SAPS   H8X  633   4.987   6.601   9.833  0.0088  0.0992  1.2748
    5SAPS   H8Y  634   4.966   6.781   9.806  0.3530  0.2703 -2.0683
    5SAPS   C39  635   4.873   6.685   9.655 -0.2410 -0.2901  0.4971
    5SAPS   H9X  636   4.962   6.729   9.605 -1.1502 -0.6067 -1.4889
    5SAPS   H9Y  637   4.778   6.742   9.650  0.2583  0.7717  2.2165
    5SAPS  C310  638   4.845   6.543   9.598 -0.1266  0.4928  0.1014
    5SAPS  H10X  639   4.746   6.514   9.640 -0.8432  0.8007 -1.3071
    5SAPS  H10Y  640   4.930   6.481   9.632  0.2368  0.4966 -0.7910
    5SAPS  C311  641   4.819   6.535   9.444 -0.8722 -0.0979 -0.3294
    5SAPS  H11X  642   4.774   6.437   9.419  1.8023 -1.0125 -2.0155
    5SAPS  H11Y  643   4.918   6.540   9.394 -1.2653 -0.4110 -1.1468
    5SAPS  C312  644   4.754   6.668   9.392  0.8784  0.4423 -0.0379
    5SAPS  H12X  645   4.830   6.747   9.407  1.2135  0.1411 -0.1319
    5SAPS  H12Y  646   4.667   6.680   9.461  1.3988 -0.7390  0.8582
    5SAPS  C313  647   4.721   6.667   9.244 -0.7150  0.0898 -0.2328
    5SAPS  H13X  648   4.808   6.652   9.177  1.6863  4.0699  1.6568
    5SAPS  H13Y  649   4.696   6.774   9.235 -2.1102 -0.2142 -0.1625
    5SAPS  C314  650   4.603   6.585   9.200  0.1459 -0.2455 -0.4727
    5SAPS  H14X  651   4.522   6.599   9.274  1.6109  2.8697  0.7228
    5SAPS  H14Y  652   4.631   6.478   9.189  1.1724  0.1971 -2.7281
    5SAPS  C315  653   4.551   6.622   9.061  0.1263 -0.1032 -0.4421
    5SAPS  H15X  654   4.523   6.729   9.068  2.8231  0.5685  2.1213
    5SAPS  H15Y  655   4.472   6.550   9.030  1.2350 -0.6600 -2.0953
    5SAPS  C316  656   4.655   6.611   8.944 -0.5564  0.0082  0.1124
    5SAPS  H16X  657   4.690   6.506   8.927 -1.2085 -0.2217  0.1706
    5SAPS  H16Y  658   4.750   6.659   8.976 -0.2091 -1.0118  0.6859
    5SAPS  C317  659   4.621   6.658   8.803  0.5344  0.2218  0.3918
    5SAPS  H17X  660   4.603   6.767   8.812 -1.7213 -0.2362  2.3695
    5SAPS  H17Y  661   4.531   6.604   8.766  0.4657  0.0966  0.7374
    5SAPS  C318  662   4.727   6.640   8.693 -0.5494 -0.6915 -0.3688
    5SAPS  H18X  663   4.827   6.670   8.728 -0.3189 -1.9235  0.0743
    5SAPS  H18Y  664   4.685   6.692   8.604 -1.8179 -0.1797  0.4899
    5SAPS  H18Z  665   4.724   6.532   8.666 -0.1647 -0.8329  0.1490
    6SAPS     N  666   6.741   4.192  10.970  0.0692  0.2218 -1.7649
    6SAPS   HN1  667   6.701   4.151  11.057  1.3331  0.4759 -1.0357
    6SAPS   HN2  668   6.663   4.217  10.907 -1.3973 -1.8225 -0.8657
    6SAPS   HN3  669   6.793   4.116  10.921  0.6632 -1.2418  0.9193
    6SAPS   C12  670   6.830   4.313  11.001 -0.1883  0.9768  0.8920
    6SAPS  H12A  671   6.774   4.392  11.048  1.9097  1.6461  2.4376
    6SAPS   C13  672   6.960   4.273  11.085 -0.0818  0.0114  0.1148
    6SAPS  O13A  673   6.976   4.158  11.130  0.0346  0.3271 -0.2526
    6SAPS  O13B  674   7.043   4.364  11.116 -0.3147  0.0699  0.6093
    6SAPS   C11  675   6.884   4.371  10.862  0.3170  0.2730 -0.3354
    6SAPS  H11A  676   6.962   4.447  10.886 -0.9765  1.4918  0.1327
    6SAPS  H11B  677   6.804   4.420  10.803  1.4678  0.5426 -1.7311
    6SAPS     P  678   7.053   4.284  10.681 -0.2608  0.3942 -0.2251
    6SAPS   O13  679   7.185   4.298  10.751 -0.0424  0.0765 -0.4172
    6SAPS   O14  680   7.041   4.182  10.575  0.0287 -0.2009  0.0532
    6SAPS   O12  681   6.923   4.259  10.779 -0.1836  0.3898 -1.2153
    6SAPS   O11  682   7.017   4.421  10.618 -0.8308 -0.1603 -1.0073
    6SAPS    C1  683   6.922   4.432  10.512 -0.0677 -0.0947  0.1306
    6SAPS    HA  684   6.851   4.347  10.514  0.5933 -0.6484  1.4609
    6SAPS    HB  685   6.862   4.521  10.538 -1.3121 -0.6389 -0.8099
    6SAPS    C2  686   6.973   4.444  10.366  1.1279  0.0950  0.6310
    6SAPS    HS  687   7.024   4.350  10.335 -1.2306 -1.2104  0.4909
    6SAPS   O21  688   7.053   4.561  10.350 -0.2334 -0.5595 -0.2752
    6SAPS   C21  689   7.175   4.549  10.401 -0.0832  0.2510  0.5034
    6SAPS   O22  690   7.227   4.442  10.418  0.1909 -0.2101 -0.3310
    6SAPS   C22  691   7.242   4.685  10.409  0.8504  0.1049  0.6430
    6SAPS   H2R  692   7.168   4.757  10.368  0.5661 -2.1118 -3.1946
    6SAPS   H2S  693   7.259   4.705  10.517 -1.8324  1.7418  0.8533
    6SAPS    C3  694   6.847   4.455  10.274  0.2203  0.4350 -0.6438
    6SAPS    HX  695   6.800   4.555  10.288 -1.2969 -0.5092  1.5078
    6SAPS    HY  696   6.773   4.385  10.318  1.1215  0.1739  0.4803
    6SAPS   O31  697   6.871   4.412  10.129  0.0677 -0.2178  0.9243
    6SAPS   C31  698   6.918   4.520  10.048  0.0512  0.3195  0.0098
    6SAPS   O32  699   6.934   4.633  10.090 -0.1657  0.0505 -0.1552
    6SAPS   C32  700   6.917   4.479   9.903 -0.0068 -0.2759  0.2588
    6SAPS   H2X  701   6.815   4.469   9.862  0.4175 -0.4691 -0.7750
    6SAPS   H2Y  702   6.959   4.376   9.893  0.4211  0.0727 -2.1546
    6SAPS   C23  703   7.380   4.686  10.331 -0.6460 -0.3347  0.3225
    6SAPS   H3R  704   7.458   4.621  10.375  1.4973  1.7294 -0.2615
    6SAPS   H3S  705   7.423   4.786  10.351  2.4789 -1.1961 -1.3785
    6SAPS   C24  706   7.374   4.675  10.179  0.8251 -0.0766  0.7867
    6SAPS   H4R  707   7.270   4.684  10.142  1.3847 -0.5820 -1.0114
    6SAPS   H4S  708   7.399   4.573  10.142 -4.7739 -1.4994 -0.0250
    6SAPS   C25  709   7.456   4.785  10.110  0.7994 -0.0731  0.3153
    6SAPS   H5R  710   7.542   4.824  10.166  1.7066 -2.7957  0.9606
    6SAPS   C26  711   7.423   4.832   9.984 -0.0908 -0.1288  0.0947
    6SAPS   H6R  712   7.490   4.908   9.943  0.8730  0.4130  2.4954
    6SAPS   C27  713   7.310   4.785   9.896  0.3948  0.1411 -0.8067
    6SAPS   H7R  714   7.257   4.699   9.942  1.3759  0.5104  1.1373
    6SAPS   H7S  715   7.357   4.747   9.803  0.9898  2.1911 -1.4082
    6SAPS   C28  716   7.221   4.911   9.880  0.4665  0.1024 -0.9386
    6SAPS   H8R  717   7.144   4.933   9.956 -0.6666  0.1136 -2.0552
    6SAPS   C29  718   7.223   4.991   9.769  0.7069 -0.6354 -0.0932
    6SAPS   H9R  719   7.162   5.082   9.767  2.4364  0.6295  1.4618
    6SAPS  C210  720   7.304   4.976   9.640  0.4336  0.1915 -0.6445
    6SAPS  H10R  721   7.237   4.965   9.551  1.1005  1.6930 -1.3846
    6SAPS  H10S  722   7.361   4.881   9.642 -0.3303 -0.2911 -1.2128
    6SAPS  C211  723   7.401   5.092   9.638 -0.0360 -0.3261  0.0700
    6SAPS  H11R  724   7.449   5.108   9.736 -1.6839 -1.3306  1.0869
    6SAPS  C212  725   7.431   5.172   9.534 -0.0799 -0.0942  0.5922
    6SAPS  H12R  726   7.516   5.242   9.549 -1.5593  1.7029  0.9659
    6SAPS  C213  727   7.381   5.162   9.393  0.0542  0.7039  0.1776
    6SAPS  H13R  728   7.317   5.074   9.374 -1.3369  2.0523 -1.7692
    6SAPS  H13S  729   7.467   5.166   9.324 -1.6457  1.1968 -2.0447
    6SAPS  C214  730   7.281   5.274   9.355 -0.5355  0.0931  0.3894
    6SAPS  H14R  731   7.187   5.272   9.411 -1.2176  1.0213 -0.6834
    6SAPS  C215  732   7.297   5.365   9.260  0.4169  0.1228  0.0214
    6SAPS  H15R  733   7.222   5.444   9.244  0.6037 -0.0455 -1.9352
    6SAPS  C216  734   7.418   5.384   9.172 -0.0967  0.7955  0.0574
    6SAPS  H16R  735   7.491   5.301   9.183  0.1198  1.0518  0.5901
    6SAPS  H16S  736   7.471   5.480   9.189  2.0810 -0.2821 -0.2464
    6SAPS  C217  737   7.363   5.391   9.029 -0.4540 -0.2375  0.0083
    6SAPS  H17R  738   7.270   5.449   9.012 -0.1023 -0.2945 -2.5697
    6SAPS  H17S  739   7.352   5.286   8.992 -0.7346 -0.5611  0.9685
    6SAPS  C218  740   7.475   5.450   8.936  0.4942 -0.5509 -0.2539
    6SAPS  H18R  741   7.572   5.402   8.959  0.3535 -0.2916  0.9504
    6SAPS  H18S  742   7.489   5.557   8.961  0.4560 -0.4464 -0.6756
    6SAPS  C219  743   7.455   5.439   8.785  0.0227 -0.2346 -0.3821
    6SAPS  H19R  744   7.460   5.331   8.761  0.5915 -0.4656  0.6971
    6SAPS  H19S  745   7.545   5.484   8.737  0.0566 -0.7417 -0.8029
    6SAPS  C220  746   7.328   5.513   8.738 -0.5603  0.2927  0.1073
    6SAPS  H20R  747   7.228   5.473   8.763  0.2672 -1.3151  1.0380
    6SAPS  H20S  748   7.331   5.526   8.628 -1.1305 -0.1304  0.0359
    6SAPS  H20T  749   7.352   5.616   8.771  3.3242 -1.1193  2.4485
    6SAPS   C33  750   7.002   4.571   9.818  0.4463 -0.3054 -0.1518
    6SAPS   H3X  751   7.105   4.581   9.857 -0.7596 -1.1683  3.6533
    6SAPS   H3Y  752   6.941   4.663   9.803 -0.7215 -1.0594 -0.1643
    6SAPS   C34  753   7.036   4.523   9.676 -0.0956 -0.1377 -0.6596
    6SAPS   H4X  754   6.937   4.502   9.631 -0.6453  0.5478  0.2017
    6SAPS   H4Y  755   7.105   4.436   9.672 -1.5823 -1.3797 -4.9895
    6SAPS   C35  756   7.097   4.628   9.585 -0.1095  0.1674  0.0332
    6SAPS   H5X  757   7.197   4.653   9.625 -0.3390 -0.2909  0.9286
    6SAPS   H5Y  758   7.028   4.712   9.610  0.4964  0.6537  0.0832
    6SAPS   C36  759   7.109   4.605   9.437 -0.1162 -0.2554  0.5466
    6SAPS   H6X  760   7.006   4.600   9.396  0.0017 -1.2679  0.3403
    6SAPS   H6Y  761   7.168   4.512   9.420  1.8223  1.0801 -0.3808
    6SAPS   C37  762   7.179   4.725   9.372  0.3105 -0.4329  0.5716
    6SAPS   H7X  763   7.284   4.737   9.404  1.3274  0.4893 -2.7271
    6SAPS   H7Y  764   7.132   4.815   9.418  2.5983 -0.2460  2.7140
    6SAPS   C38  765   7.164   4.735   9.223 -0.4410  0.4138  0.5339
    6SAPS   H8X  766   7.076   4.683   9.180  0.6862 -0.0180 -1.3843
    6SAPS   H8Y  767   7.248   4.681   9.174  0.6824  1.3138  1.4174
    6SAPS   C39  768   7.176   4.882   9.176 -0.3359  0.1564  0.5122
    6SAPS   H9X  769   7.280   4.912   9.198  0.5184 -1.9198 -0.3612
    6SAPS   H9Y  770   7.102   4.940   9.234 -0.3675  2.5250 -1.7313
    6SAPS  C310  771   7.156   4.914   9.022  0.0904 -0.2010 -0.2018
    6SAPS  H10X  772   7.047   4.911   9.000  0.5510 -0.2273 -2.7864
    6SAPS  H10Y  773   7.191   4.828   8.960  1.3353  0.5800 -0.6099
    6SAPS  C311  774   7.219   5.052   8.974  0.4728 -0.2333  0.5361
    6SAPS  H11X  775   7.300   5.084   9.042  0.5572 -1.0037  0.8132
    6SAPS  H11Y  776   7.140   5.128   8.991  1.8149  1.2471  0.3745
    6SAPS  C312  777   7.264   5.057   8.825 -1.0011 -0.7712  0.0979
    6SAPS  H12X  778   7.259   4.954   8.784  0.3693 -1.2574  1.0668
    6SAPS  H12Y  779   7.368   5.098   8.820 -1.9042  1.7336  0.1861
    6SAPS  C313  780   7.180   5.163   8.742 -0.0028 -0.5363 -0.3726
    6SAPS  H13X  781   7.181   5.251   8.810  1.8812 -0.7844 -0.0232
    6SAPS  H13Y  782   7.070   5.145   8.738 -0.0770 -0.9274  1.9529
    6SAPS  C314  783   7.226   5.195   8.598  0.0585 -0.3776  0.6089
    6SAPS  H14X  784   7.295   5.122   8.551  0.0744 -0.6568  1.0613
    6SAPS  H14Y  785   7.281   5.291   8.610 -0.2170 -0.2471  0.8510
    6SAPS  C315  786   7.103   5.221   8.503 -0.1408  0.9156 -0.5143
    6SAPS  H15X  787   7.033   5.295   8.547 -0.3486 -0.5742  1.8867
    6SAPS  H15Y  788   7.046   5.127   8.485 -0.9738  1.1518  0.7486
    6SAPS  C316  789   7.140   5.275   8.367 -0.2297  0.6032 -0.4841
    6SAPS  H16X  790   7.055   5.251   8.299  0.5413 -2.2229 -0.5460
    6SAPS  H16Y  791   7.221   5.209   8.331 -1.8178 -1.3289 -0.6497
    6SAPS  C317  792   7.187   5.419   8.372  0.1681  0.2823 -0.4028
    6SAPS  H17X  793   7.272   5.433   8.442  0.1404  3.2888 -0.8477
    6SAPS  H17Y  794   7.105   5.480   8.414  0.0285 -0.5321  0.5390
    6SAPS  C318  795   7.230   5.478   8.237  0.4388  0.0744 -0.1336
    6SAPS  H18X  796   7.323   5.436   8.192  0.1403  0.7827 -1.4716
    6SAPS  H18Y  797   7.228   5.589   8.229 -0.5540 -0.0179 -1.3943
    6SAPS  H18Z  798   7.149   5.452   8.166  0.3398 -0.1538  0.0623
    7SAPS     N  799   2.388   4.395  10.778 -0.1484  0.3962 -0.3003
    7SAPS   HN1  800   2.488   4.399  10.749 -0.2958 -0.3479 -0.9264
    7SAPS   HN2  801   2.351   4.309  10.733 -0.1086 -0.0469  0.5069
    7SAPS   HN3  802   2.326   4.474  10.749 -1.5403 -1.1698 -1.7718
    7SAPS   C12  803   2.372   4.378  10.926  0.0591  0.7801 -0.5025
    7SAPS  H12A  804   2.267   4.390  10.946 -0.1927 -2.3448  0.6481
    7SAPS   C13  805   2.407   4.232  10.971 -0.2548 -0.1262  0.0017
    7SAPS  O13A  806   2.467   4.157  10.890  0.0821  0.4912  0.3668
    7SAPS  O13B  807   2.407   4.212  11.094 -0.6703 -0.2623  0.0164
    7SAPS   C11  808   2.457   4.474  11.007  0.2483 -0.0446 -0.5028
    7SAPS  H11A  809   2.561   4.464  10.968  1.1545 -2.2981  2.1959
    7SAPS  H11B  810   2.465   4.429  11.108 -1.5396 -1.7756 -1.0733
    7SAPS     P  811   2.465   4.726  10.918 -0.0968  0.0510 -0.3804
    7SAPS   O13  812   2.396   4.850  10.961  0.4572  0.6301 -0.1365
    7SAPS   O14  813   2.614   4.712  10.923  0.0543  0.0396  0.3824
    7SAPS   O12  814   2.407   4.612  11.002 -0.6530 -0.2076 -0.0938
    7SAPS   O11  815   2.423   4.691  10.772 -0.1420  0.0487 -0.2781
    7SAPS    C1  816   2.454   4.782  10.664  0.1463  0.5534 -0.0784
    7SAPS    HA  817   2.466   4.887  10.696  2.4924  0.0726  0.8763
    7SAPS    HB  818   2.558   4.764  10.628 -0.4536 -0.0764 -1.5632
    7SAPS    C2  819   2.341   4.789  10.563  0.3453  0.4207  0.7168
    7SAPS    HS  820   2.252   4.825  10.619  0.1769  0.6535  0.2960
    7SAPS   O21  821   2.326   4.660  10.503  0.1428 -0.2183  0.1456
    7SAPS   C21  822   2.207   4.643  10.453  0.4324  0.2186 -0.0058
    7SAPS   O22  823   2.113   4.726  10.468 -0.7869  0.3278 -0.2475
    7SAPS   C22  824   2.186   4.512  10.373 -0.1862  0.2596 -0.1127
    7SAPS   H2R  825   2.203   4.430  10.446 -2.7385  0.1036  0.3861
    7SAPS   H2S  826   2.079   4.491  10.350  0.5899 -2.1871 -1.9437
    7SAPS    C3  827   2.392   4.896  10.461  0.3609  0.2425  0.0704
    7SAPS    HX  828   2.493   4.863  10.428 -0.2668 -1.1571 -0.5700
    7SAPS    HY  829   2.407   4.986  10.524 -2.5236  1.9871 -1.4871
    7SAPS   O31  830   2.295   4.914  10.358  0.5895 -0.4483  0.0521
    7SAPS   C31  831   2.298   5.034  10.301 -0.8264  0.5689 -0.0483
    7SAPS   O32  832   2.384   5.120  10.321  0.1591  0.0178  0.3022
    7SAPS   C32  833   2.193   5.034  10.188 -0.6533  0.0671  0.0528
    7SAPS   H2X  834   2.149   4.934  10.169 -0.2612 -0.4150  1.5643
    7SAPS   H2Y  835   2.247   5.059  10.094 -0.7247  0.5657  0.1411
    7SAPS   C23  836   2.280   4.507  10.253 -0.2594 -0.9959 -0.5581
    7SAPS   H3R  837   2.278   4.403  10.215  0.3907 -0.7851 -1.2004
    7SAPS   H3S  838   2.382   4.532  10.289 -0.6564 -0.2900  0.1093
    7SAPS   C24  839   2.255   4.612  10.144 -0.0660  0.0379 -0.8047
    7SAPS   H4R  840   2.259   4.717  10.180 -1.6559 -0.0992 -0.1708
    7SAPS   H4S  841   2.150   4.596  10.113  0.4754 -0.1489 -2.7271
    7SAPS   C25  842   2.351   4.594  10.026 -0.3044  0.4000  0.1603
    7SAPS   H5R  843   2.457   4.592  10.053 -0.4684  0.9825  0.8583
    7SAPS   C26  844   2.314   4.591   9.895 -0.7669  1.1124  0.4885
    7SAPS   H6R  845   2.395   4.573   9.823 -0.6047  2.0004  0.4359
    7SAPS   C27  846   2.181   4.590   9.837 -0.0677  0.2761  0.3726
    7SAPS   H7R  847   2.105   4.562   9.914 -1.4298  1.7948 -0.3585
    7SAPS   H7S  848   2.165   4.521   9.752 -0.9095  1.0133 -0.0802
    7SAPS   C28  849   2.169   4.733   9.788  0.1771  0.0607 -0.1853
    7SAPS   H8R  850   2.181   4.803   9.872 -0.9006  1.0624 -0.8408
    7SAPS   C29  851   2.135   4.778   9.668 -0.8966  0.5780 -0.5322
    7SAPS   H9R  852   2.124   4.884   9.640 -1.3470  0.2052 -1.8699
    7SAPS  C210  853   2.113   4.693   9.540  0.2686 -0.4790 -0.0286
    7SAPS  H10R  854   2.034   4.745   9.482  0.1985  1.6728  1.8302
    7SAPS  H10S  855   2.058   4.601   9.569 -0.4037 -0.5587 -1.4916
    7SAPS  C211  856   2.231   4.642   9.463  0.0715  0.7131  0.2657
    7SAPS  H11R  857   2.315   4.609   9.526 -1.3253 -1.0867  1.2708
    7SAPS  C212  858   2.238   4.619   9.333  0.1481  0.8046  0.1097
    7SAPS  H12R  859   2.326   4.571   9.288 -1.3434  0.4469 -2.6838
    7SAPS  C213  860   2.126   4.653   9.228  0.4702  0.5808 -0.4969
    7SAPS  H13R  861   2.025   4.619   9.261  0.4449 -1.3139 -2.3312
    7SAPS  H13S  862   2.152   4.592   9.139  0.2800 -0.3535  0.0687
    7SAPS  C214  863   2.107   4.797   9.189 -0.1789  0.5104 -0.3786
    7SAPS  H14R  864   2.071   4.866   9.267 -2.8424 -0.4181 -0.6949
    7SAPS  C215  865   2.138   4.858   9.079  0.3995  0.1151  0.0686
    7SAPS  H15R  866   2.104   4.962   9.066 -0.6150 -0.2908 -0.6677
    7SAPS  C216  867   2.193   4.799   8.950 -0.6387 -0.3404  0.1346
    7SAPS  H16R  868   2.229   4.697   8.974  2.0713  1.1713  3.4289
    7SAPS  H16S  869   2.289   4.851   8.930  1.1851 -0.1096  6.8255
    7SAPS  C217  870   2.098   4.816   8.840  0.3084  0.3169 -0.0294
    7SAPS  H17R  871   2.083   4.921   8.808 -0.5243  0.1067 -0.3493
    7SAPS  H17S  872   1.997   4.786   8.874 -0.2782  1.9255 -0.2353
    7SAPS  C218  873   2.147   4.723   8.721 -0.1967  0.1235 -0.3040
    7SAPS  H18R  874   2.145   4.622   8.767  1.1634  1.0810  2.0248
    7SAPS  H18S  875   2.246   4.772   8.705 -0.1524  1.2072  2.6630
    7SAPS  C219  876   2.056   4.744   8.605  0.0714  0.0429 -0.3191
    7SAPS  H19R  877   2.123   4.732   8.517  2.3174  0.4931  1.2327
    7SAPS  H19S  878   2.026   4.851   8.602  2.4387  0.7868 -0.3852
    7SAPS  C220  879   1.939   4.646   8.591 -0.2821 -0.5755 -0.2636
    7SAPS  H20R  880   1.880   4.633   8.685 -0.7486 -3.2285 -0.8637
    7SAPS  H20S  881   1.981   4.547   8.564 -2.0540 -2.2837  2.5794
    7SAPS  H20T  882   1.871   4.684   8.512  0.3394  0.6259 -0.2521
    7SAPS   C33  883   2.088   5.144  10.213  0.7037  0.1484  0.1204
    7SAPS   H3X  884   2.143   5.233  10.250  1.2229 -0.7960  1.7186
    7SAPS   H3Y  885   2.013   5.113  10.289  1.2688  1.0096  1.0557
    7SAPS   C34  886   2.005   5.168  10.075 -0.1067 -0.3192 -0.2124
    7SAPS   H4X  887   2.074   5.196   9.992 -1.5727  0.8283 -1.1000
    7SAPS   H4Y  888   1.947   5.261  10.091  1.7184  1.2849 -2.1735
    7SAPS   C35  889   1.907   5.061  10.027  0.0744 -0.7905 -0.6144
    7SAPS   H5X  890   1.843   5.033  10.113  1.0542 -1.7456 -0.1769
    7SAPS   H5Y  891   1.967   4.975   9.992 -0.5280 -1.7764  0.6899
    7SAPS   C36  892   1.816   5.110   9.909  0.2330 -0.0673  0.3131
    7SAPS   H6X  893   1.805   5.220   9.923 -2.3108 -0.3586  1.0724
    7SAPS   H6Y  894   1.718   5.060   9.926  0.1191 -0.4779 -1.3984
    7SAPS   C37  895   1.881   5.079   9.776 -0.4163 -0.1303 -0.4602
    7SAPS   H7X  896   1.905   4.973   9.755 -3.4991 -0.9884 -0.1488
    7SAPS   H7Y  897   1.968   5.148   9.767 -0.7469  0.3141 -0.3278
    7SAPS   C38  898   1.790   5.120   9.654  0.1308 -0.1816 -0.4362
    7SAPS   H8X  899   1.749   5.223   9.663 -0.8044 -0.3995 -1.8351
    7SAPS   H8Y  900   1.698   5.057   9.648 -0.2259  0.4710 -2.4219
    7SAPS   C39  901   1.873   5.103   9.525 -0.5932 -0.0824 -0.6980
    7SAPS   H9X  902   1.895   4.994   9.519  1.3046  0.0718  1.7109
    7SAPS   H9Y  903   1.967   5.160   9.539 -1.8438  1.8260  0.4680
    7SAPS  C310  904   1.803   5.160   9.401 -0.1312 -0.6419  0.5894
    7SAPS  H10X  905   1.771   5.263   9.426  1.0108 -0.0372 -0.3209
    7SAPS  H10Y  906   1.702   5.114   9.395 -1.2501  1.5185  1.6596
    7SAPS  C311  907   1.866   5.137   9.264  1.0691  0.1065 -0.0284
    7SAPS  H11X  908   1.881   5.030   9.241  0.2033  0.2333 -1.2645
    7SAPS  H11Y  909   1.959   5.192   9.237  0.0966  0.2202 -3.6262
    7SAPS  C312  910   1.769   5.184   9.151 -0.3186 -0.4969 -0.3992
    7SAPS  H12X  911   1.757   5.294   9.161  0.7869 -0.4453  0.6439
    7SAPS  H12Y  912   1.665   5.145   9.144 -0.7986  0.8708 -1.2874
    7SAPS  C313  913   1.826   5.146   9.009  0.0571 -0.0344  0.0371
    7SAPS  H13X  914   1.836   5.036   8.994  0.2926  0.0710 -0.5893
    7SAPS  H13Y  915   1.930   5.184   9.003 -0.3178  0.9645 -0.3624
    7SAPS  C314  916   1.754   5.207   8.892  0.7992 -0.3806 -0.1405
    7SAPS  H14X  917   1.732   5.311   8.925 -0.6069 -0.5142 -0.5723
    7SAPS  H14Y  918   1.653   5.160   8.886 -0.2912  1.7748  0.3655
    7SAPS  C315  919   1.828   5.202   8.764 -0.3242  0.4985  0.1653
    7SAPS  H15X  920   1.893   5.113   8.757 -0.6644  0.2187  0.5487
    7SAPS  H15Y  921   1.902   5.285   8.765  1.2336 -0.8398  0.5803
    7SAPS  C316  922   1.735   5.203   8.647  0.2867  0.4349  0.3042
    7SAPS  H16X  923   1.683   5.300   8.665  0.2818  0.4250  0.3421
    7SAPS  H16Y  924   1.658   5.123   8.649 -0.9542  1.5937  0.8593
    7SAPS  C317  925   1.800   5.210   8.506 -0.0563  0.9254  0.0806
    7SAPS  H17X  926   1.873   5.291   8.488 -1.9563  2.6117 -0.3320
    7SAPS  H17Y  927   1.719   5.231   8.433  0.0505 -0.0244 -0.3272
    7SAPS  C318  928   1.859   5.075   8.464 -0.3027 -0.2486 -0.1781
    7SAPS  H18X  929   1.780   4.999   8.447  0.5492 -1.3213  0.5454
    7SAPS  H18Y  930   1.924   5.040   8.547  0.0984 -0.4466 -0.5707
    7SAPS  H18Z  931   1.913   5.087   8.368 -0.4473 -0.3629 -0.2743
    8SAPS     N  932   6.744   1.395  11.381 -0.0822  0.2405  0.3471
    8SAPS   HN1  933   6.743   1.416  11.483  0.1451  0.6368  0.2707
    8SAPS   HN2  934   6.832   1.351  11.347 -0.5801 -0.6776  0.1909
    8SAPS   HN3  935   6.730   1.483  11.329  0.5224  0.1231 -0.0236
    8SAPS   C12  936   6.636   1.293  11.364  0.0795 -0.0883 -0.2990
    8SAPS  H12A  937   6.655   1.205  11.424  0.7295  0.9727  1.1104
    8SAPS   C13  938   6.501   1.344  11.417 -0.8268 -0.5317 -0.5982
    8SAPS  O13A  939   6.487   1.463  11.458  0.3414  0.3753 -0.0071
    8SAPS  O13B  940   6.406   1.261  11.426 -0.2605  0.0889 -0.4770
    8SAPS   C11  941   6.639   1.236  11.223  0.4321 -0.1970  0.2233
    8SAPS  H11A  942   6.649   1.317  11.147 -0.8872 -0.7297 -0.5454
    8SAPS  H11B  943   6.549   1.177  11.196 -0.7970  1.5706  0.2792
    8SAPS     P  944   6.795   1.081  11.080 -0.0075  0.0908  0.0057
    8SAPS   O13  945   6.943   1.077  11.068  0.4250  0.0863 -0.1002
    8SAPS   O14  946   6.730   0.948  11.083 -1.0066  0.5375  0.2465
    8SAPS   O12  947   6.753   1.152  11.218  0.2252  0.2516  0.0384
    8SAPS   O11  948   6.735   1.186  10.974 -0.4477 -0.8562  0.3527
    8SAPS    C1  949   6.627   1.152  10.884  0.0397  0.8603 -0.3128
    8SAPS    HA  950   6.540   1.110  10.938 -0.2913  2.8663  0.8296
    8SAPS    HB  951   6.582   1.249  10.853 -1.6610  0.3173  0.3281
    8SAPS    C2  952   6.663   1.064  10.762 -0.8320  0.5899  0.2165
    8SAPS    HS  953   6.692   0.965  10.801  1.7621  1.5397  0.8997
    8SAPS   O21  954   6.773   1.140  10.702  0.5096  0.0519  0.1524
    8SAPS   C21  955   6.883   1.070  10.678  0.2538  0.0586 -0.1716
    8SAPS   O22  956   6.918   0.963  10.729 -0.3779 -0.3849 -0.1500
    8SAPS   C22  957   6.952   1.140  10.564  0.2417  0.1986  0.5359
    8SAPS   H2R  958   6.871   1.185  10.502  1.4911  1.0986 -0.5065
    8SAPS   H2S  959   7.017   1.215  10.614 -1.9553  1.4121  1.7282
    8SAPS    C3  960   6.540   1.054  10.664  0.0013 -0.0857  1.3977
    8SAPS    HX  961   6.503   1.158  10.650 -1.8564 -0.9436 -0.7102
    8SAPS    HY  962   6.457   1.001  10.716  0.5303 -0.1720  2.1538
    8SAPS   O31  963   6.579   0.991  10.537  0.0477 -0.7328 -1.2727
    8SAPS   C31  964   6.531   1.030  10.427  0.1436 -0.0360  0.3134
    8SAPS   O32  965   6.441   1.111  10.416 -0.0334  0.1745  0.9516
    8SAPS   C32  966   6.624   0.982  10.316 -0.4990 -0.4586 -0.5618
    8SAPS   H2X  967   6.628   0.871  10.317  1.3305 -0.4241  0.1923
    8SAPS   H2Y  968   6.725   1.020  10.343 -0.3617 -2.7329  2.6984
    8SAPS   C23  969   7.030   1.044  10.465  0.8800 -0.1583  1.0784
    8SAPS   H3R  970   6.953   0.982  10.415  0.6498 -0.0479  1.2906
    8SAPS   H3S  971   7.096   0.976  10.523  1.9297  0.0126  0.1153
    8SAPS   C24  972   7.129   1.111  10.368  0.5138 -0.5528  0.5078
    8SAPS   H4R  973   7.186   1.030  10.318 -0.9535 -0.4857 -1.3887
    8SAPS   H4S  974   7.190   1.176  10.434 -0.7188  1.2821 -0.0829
    8SAPS   C25  975   7.057   1.181  10.259 -0.5056 -0.5434 -0.1946
    8SAPS   H5R  976   6.953   1.151  10.240  0.6844 -3.3024 -3.5211
    8SAPS   C26  977   7.128   1.274  10.191  0.7793  0.0857 -0.0589
    8SAPS   H6R  978   7.090   1.316  10.096  0.0201 -1.5722 -0.5315
    8SAPS   C27  979   7.276   1.313  10.219 -0.0780  0.3938 -0.1021
    8SAPS   H7R  980   7.329   1.323  10.121  2.2773  2.2049  1.2542
    8SAPS   H7S  981   7.330   1.231  10.272 -0.7422  1.7145  2.7595
    8SAPS   C28  982   7.301   1.432  10.303 -0.0211 -0.4223 -0.4242
    8SAPS   H8R  983   7.333   1.409  10.406  0.9301  0.3575 -0.5299
    8SAPS   C29  984   7.289   1.561  10.277 -0.0217  0.2004 -0.0120
    8SAPS   H9R  985   7.322   1.635  10.351  2.7083  0.1566 -1.0597
    8SAPS  C210  986   7.264   1.620  10.138  0.2612 -0.2543 -0.0589
    8SAPS  H10R  987   7.328   1.579  10.058 -0.1114 -1.9994  0.4785
    8SAPS  H10S  988   7.284   1.727  10.161 -0.1713 -0.4165  1.1995
    8SAPS  C211  989   7.119   1.621  10.084  0.1325 -0.4507 -0.9330
    8SAPS  H11R  990   7.041   1.610  10.160 -0.1864 -0.0214 -1.1963
    8SAPS  C212  991   7.089   1.621   9.954 -0.0532  0.7234  0.2388
    8SAPS  H12R  992   6.982   1.630   9.931  0.4050 -0.1635 -2.6825
    8SAPS  C213  993   7.176   1.625   9.834  0.0963 -0.2628  0.4599
    8SAPS  H13R  994   7.272   1.569   9.837 -0.8284 -2.0737 -1.1348
    8SAPS  H13S  995   7.220   1.727   9.826 -1.0255  0.1314 -1.4923
    8SAPS  C214  996   7.101   1.578   9.709  1.5136 -0.5305 -0.6342
    8SAPS  H14R  997   7.034   1.657   9.674  2.4787  0.7284  0.2478
    8SAPS  C215  998   7.108   1.452   9.661 -0.6108  0.0966 -0.7511
    8SAPS  H15R  999   7.055   1.436   9.566 -3.6581 -0.0003  0.8353
    8SAPS  C216 1000   7.183   1.333   9.714 -0.2464 -0.2162 -0.0077
    8SAPS  H16R 1001   7.248   1.357   9.801  0.6012 -2.1371 -0.0488
    8SAPS  H16S 1002   7.251   1.295   9.635 -0.8041 -1.2949  0.0156
    8SAPS  C217 1003   7.092   1.219   9.752 -0.6827  0.5333 -0.2929
    8SAPS  H17R 1004   7.025   1.181   9.672  1.0810 -1.3132 -0.9940
    8SAPS  H17S 1005   7.017   1.255   9.826  0.6260  0.5083  1.0893
    8SAPS  C218 1006   7.174   1.106   9.819 -0.0859 -0.3889 -0.3782
    8SAPS  H18R 1007   7.213   1.154   9.911  0.0481  1.4987 -1.3767
    8SAPS  H18S 1008   7.265   1.075   9.764 -0.0437 -2.2451  0.6415
    8SAPS  C219 1009   7.078   0.992   9.870  0.2800 -0.1726  0.0525
    8SAPS  H19R 1010   7.063   0.933   9.777  2.6322  0.8598 -1.0634
    8SAPS  H19S 1011   6.989   1.032   9.924 -0.6768 -0.7371 -1.0558
    8SAPS  C220 1012   7.150   0.894   9.963  0.3738 -0.1151 -0.2577
    8SAPS  H20R 1013   7.162   0.928  10.068  1.2389  0.1144 -0.4217
    8SAPS  H20S 1014   7.247   0.851   9.929  1.3402  0.1274  2.0640
    8SAPS  H20T 1015   7.086   0.803   9.964 -0.4836  0.4026 -2.4623
    8SAPS   C33 1016   6.567   1.010  10.173 -1.0028 -0.8499  0.5452
    8SAPS   H3X 1017   6.500   1.098  10.188 -2.2403 -1.3773 -1.5416
    8SAPS   H3Y 1018   6.511   0.922  10.135 -0.7877 -0.7129 -0.1093
    8SAPS   C34 1019   6.673   1.041  10.062 -0.3815  0.0693  0.2764
    8SAPS   H4X 1020   6.754   0.966  10.047 -1.4578 -1.1952  0.5840
    8SAPS   H4Y 1021   6.723   1.138  10.084  0.0172 -0.0392 -0.1340
    8SAPS   C35 1022   6.592   1.075   9.929 -0.6048  0.1307 -0.0893
    8SAPS   H5X 1023   6.544   1.173   9.948  0.8422  0.3803  3.0744
    8SAPS   H5Y 1024   6.515   0.996   9.915  0.6152 -0.9631 -0.8780
    8SAPS   C36 1025   6.694   1.082   9.810 -0.0692  0.1868 -0.9459
    8SAPS   H6X 1026   6.725   0.977   9.794 -3.6464 -0.8712 -2.0413
    8SAPS   H6Y 1027   6.782   1.148   9.827 -0.7971  0.7292  0.9173
    8SAPS   C37 1028   6.620   1.122   9.679  0.1468  0.5201 -0.0307
    8SAPS   H7X 1029   6.567   1.220   9.688 -1.1056  0.1606 -2.5510
    8SAPS   H7Y 1030   6.538   1.048   9.672 -0.3428  0.9973  0.5063
    8SAPS   C38 1031   6.703   1.115   9.544 -0.1716  0.1017 -0.2074
    8SAPS   H8X 1032   6.759   1.020   9.533 -2.1474 -0.9577 -1.8875
    8SAPS   H8Y 1033   6.783   1.192   9.548 -0.5782  0.4886  1.4908
    8SAPS   C39 1034   6.622   1.133   9.415 -0.1758 -0.1157  0.1677
    8SAPS   H9X 1035   6.596   1.239   9.393  1.8555  0.1312 -1.2407
    8SAPS   H9Y 1036   6.528   1.074   9.411  1.7038 -3.2387 -2.1610
    8SAPS  C310 1037   6.705   1.085   9.296 -0.1765 -0.5440 -1.0885
    8SAPS  H10X 1038   6.725   0.979   9.320 -0.2671 -0.3363 -0.0382
    8SAPS  H10Y 1039   6.803   1.136   9.285  0.4695 -1.4888  0.1604
    8SAPS  C311 1040   6.628   1.083   9.167 -0.5711 -0.5205 -0.4975
    8SAPS  H11X 1041   6.525   1.043   9.176 -0.9730  0.3382 -1.1068
    8SAPS  H11Y 1042   6.676   1.015   9.093 -0.8384  0.2401 -1.3947
    8SAPS  C312 1043   6.601   1.222   9.111  0.7713 -0.7835 -0.1067
    8SAPS  H12X 1044   6.692   1.285   9.101  0.4148 -0.3949 -0.9808
    8SAPS  H12Y 1045   6.536   1.279   9.181  1.3598  1.5917 -1.3869
    8SAPS  C313 1046   6.526   1.216   8.977  0.2546  0.3884 -0.1497
    8SAPS  H13X 1047   6.444   1.142   8.973 -0.0994  0.5299  2.6137
    8SAPS  H13Y 1048   6.597   1.187   8.897 -1.9093  1.1732 -2.4905
    8SAPS  C314 1049   6.477   1.349   8.929 -0.0472  0.6363  0.4295
    8SAPS  H14X 1050   6.567   1.415   8.933  0.1010  0.5914 -1.4198
    8SAPS  H14Y 1051   6.398   1.381   9.001 -1.6137 -1.5674 -0.2166
    8SAPS  C315 1052   6.414   1.336   8.788 -0.2997  1.1901 -0.1178
    8SAPS  H15X 1053   6.360   1.239   8.791  2.8125 -0.6871  0.9108
    8SAPS  H15Y 1054   6.488   1.322   8.707 -0.9262 -0.7748 -0.3947
    8SAPS  C316 1055   6.334   1.457   8.749  0.6486  0.7771 -0.4341
    8SAPS  H16X 1056   6.268   1.479   8.836  0.4975  1.2582 -0.6695
    8SAPS  H16Y 1057   6.271   1.430   8.662 -0.0727  2.0159 -0.3255
    8SAPS  C317 1058   6.416   1.590   8.713 -0.4485 -0.4749  0.4631
    8SAPS  H17X 1059   6.488   1.548   8.639 -1.0418  0.1698 -0.5037
    8SAPS  H17Y 1060   6.463   1.619   8.809 -3.8090 -0.2037  2.1969
    8SAPS  C318 1061   6.335   1.697   8.651  0.0175  0.3772  0.4994
    8SAPS  H18X 1062   6.242   1.659   8.604  0.5477  1.3295 -1.4694
    8SAPS  H18Y 1063   6.392   1.743   8.567 -1.1728 -0.9825 -1.1267
    8SAPS  H18Z 1064   6.305   1.779   8.719 -1.2049  1.2706 -1.0453
    9SAPS     N 1065   6.184   3.842   5.875  0.5558 -0.0955  0.6483
    9SAPS   HN1 1066   6.187   3.892   5.966  0.5802  0.5371  0.3049
    9SAPS   HN2 1067   6.191   3.742   5.905  0.7851 -0.3416 -0.2108
    9SAPS   HN3 1068   6.259   3.873   5.811  0.7515  0.8317  1.3132
    9SAPS   C12 1069   6.050   3.842   5.798  0.0946  0.5389  0.1476
    9SAPS  H12A 1070   6.053   3.920   5.723  2.0843  0.4236  0.0712
    9SAPS   C13 1071   6.013   3.701   5.733  0.2845  0.0326  0.6631
    9SAPS  O13A 1072   6.106   3.621   5.719 -0.5671 -0.2498  0.0357
    9SAPS  O13B 1073   5.902   3.692   5.668  0.0917  0.0302 -0.1352
    9SAPS   C11 1074   5.932   3.868   5.898  0.4302  0.3462 -1.1088
    9SAPS  H11A 1075   5.929   3.789   5.975 -1.1331  2.3906  1.0929
    9SAPS  H11B 1076   5.839   3.858   5.837 -1.8344 -0.1542  2.1645
    9SAPS     P 1077   5.825   4.038   6.063  0.5342  0.1448 -0.0174
    9SAPS   O13 1078   5.856   4.169   6.113  0.7526 -0.2356  0.1679
    9SAPS   O14 1079   5.687   4.019   6.001  0.0698  0.4056 -0.6859
    9SAPS   O12 1080   5.930   4.001   5.955 -0.2645 -0.1705 -0.1179
    9SAPS   O11 1081   5.850   3.934   6.174 -0.6290 -0.9435 -0.0881
    9SAPS    C1 1082   5.760   3.909   6.284  0.2385 -0.1613 -0.5905
    9SAPS    HA 1083   5.654   3.909   6.250 -0.2405  1.4552  0.7363
    9SAPS    HB 1084   5.773   3.802   6.310  0.2360 -0.0771 -0.2392
    9SAPS    C2 1085   5.772   4.012   6.402 -0.0708 -0.3250  0.0048
    9SAPS    HS 1086   5.726   4.102   6.356 -1.5110 -1.3126 -0.5322
    9SAPS   O21 1087   5.913   4.026   6.437 -0.3101  0.5564  0.0162
    9SAPS   C21 1088   5.957   4.142   6.481  0.2367  0.1418  0.8112
    9SAPS   O22 1089   5.893   4.245   6.474  0.2952  0.6715 -0.2721
    9SAPS   C22 1090   6.086   4.119   6.558  0.3638 -0.4421 -0.0027
    9SAPS   H2R 1091   6.075   4.040   6.635  0.5747  1.3601  1.9630
    9SAPS   H2S 1092   6.160   4.092   6.479 -0.8398  0.0717 -1.3589
    9SAPS    C3 1093   5.689   3.965   6.528 -0.1064  0.1513  0.1578
    9SAPS    HX 1094   5.717   3.860   6.549  2.7030  1.2081  2.3213
    9SAPS    HY 1095   5.582   3.968   6.500  0.1352 -0.9157 -0.9366
    9SAPS   O31 1096   5.697   4.041   6.650  0.1298 -0.6715  0.4666
    9SAPS   C31 1097   5.632   4.161   6.655  0.1722 -0.1470 -0.0108
    9SAPS   O32 1098   5.577   4.207   6.560  0.7929 -0.4464  0.2930
    9SAPS   C32 1099   5.635   4.231   6.793 -0.2141  0.3050 -0.6831
    9SAPS   H2X 1100   5.580   4.324   6.770  0.5601  0.6268 -1.2714
    9SAPS   H2Y 1101   5.740   4.247   6.824  0.0092 -0.3529 -1.0718
    9SAPS   C23 1102   6.140   4.252   6.623  0.6343  0.3091  0.4190
    9SAPS   H3R 1103   6.137   4.329   6.543 -2.0285  0.3480  0.4773
    9SAPS   H3S 1104   6.247   4.236   6.650 -0.0410 -3.3474  1.4968
    9SAPS   C24 1105   6.070   4.298   6.751  0.3074  0.5620  0.7987
    9SAPS   H4R 1106   6.067   4.211   6.819  0.1419 -1.3574 -1.5231
    9SAPS   H4S 1107   5.963   4.299   6.722 -0.0746 -3.7296  1.5082
    9SAPS   C25 1108   6.126   4.412   6.821  0.3249 -0.4344 -0.3050
    9SAPS   H5R 1109   6.126   4.508   6.766  2.9292  0.5026  1.1597
    9SAPS   C26 1110   6.207   4.412   6.927  0.5406 -0.5026 -0.4950
    9SAPS   H6R 1111   6.235   4.513   6.960  1.5209 -1.2237  0.9705
    9SAPS   C27 1112   6.263   4.293   6.992 -0.2060 -0.1927  0.1540
    9SAPS   H7R 1113   6.277   4.214   6.915 -0.1420  0.3358 -0.3813
    9SAPS   H7S 1114   6.184   4.261   7.063 -0.1099  0.8430  0.7522
    9SAPS   C28 1115   6.398   4.303   7.053 -0.5630 -1.4886 -0.4944
    9SAPS   H8R 1116   6.476   4.324   6.979 -1.1970 -1.1630 -1.0827
    9SAPS   C29 1117   6.430   4.290   7.186 -0.2687 -0.1350 -0.3012
    9SAPS   H9R 1118   6.537   4.301   7.212  0.0015 -2.7351  0.0039
    9SAPS  C210 1119   6.340   4.252   7.302  0.2592 -0.0059 -0.3223
    9SAPS  H10R 1120   6.245   4.207   7.267 -0.6948  0.6745  1.3149
    9SAPS  H10S 1121   6.310   4.349   7.348 -0.5059  0.8140 -2.4189
    9SAPS  C211 1122   6.406   4.150   7.392  0.3621 -0.6590  0.2611
    9SAPS  H11R 1123   6.419   4.051   7.345 -0.7479 -0.2076 -1.0834
    9SAPS  C212 1124   6.448   4.172   7.520 -0.1491 -0.2205 -0.7507
    9SAPS  H12R 1125   6.511   4.097   7.570  2.0779  1.2214 -1.2194
    9SAPS  C213 1126   6.439   4.307   7.594 -0.1597 -0.6259  0.1882
    9SAPS  H13R 1127   6.475   4.378   7.517  1.6593 -2.7807 -1.0778
    9SAPS  H13S 1128   6.517   4.315   7.673 -0.7272  0.9368  0.6311
    9SAPS  C214 1129   6.306   4.368   7.650 -0.3948  0.0967  0.1531
    9SAPS  H14R 1130   6.220   4.366   7.581  0.1802  0.4410 -0.5796
    9SAPS  C215 1131   6.294   4.387   7.786  1.2648  0.1441 -0.1953
    9SAPS  H15R 1132   6.199   4.419   7.832  1.4478  0.0628  0.2415
    9SAPS  C216 1133   6.407   4.375   7.881 -0.1050 -0.1825  0.1749
    9SAPS  H16R 1134   6.491   4.445   7.860 -1.0657  1.1033  0.5031
    9SAPS  H16S 1135   6.460   4.277   7.874  0.7290  0.2221  0.5925
    9SAPS  C217 1136   6.356   4.391   8.028 -0.5505 -0.2716  0.4183
    9SAPS  H17R 1137   6.452   4.386   8.083 -0.9849 -1.9393  1.0907
    9SAPS  H17S 1138   6.286   4.308   8.051 -1.5753  0.0110 -1.4469
    9SAPS  C218 1139   6.279   4.519   8.064 -0.0127 -0.6136  0.3157
    9SAPS  H18R 1140   6.174   4.519   8.026  0.1114  1.1719 -0.1108
    9SAPS  H18S 1141   6.332   4.606   8.020 -1.1684  0.1972  0.4625
    9SAPS  C219 1142   6.271   4.557   8.221 -0.8571 -0.1311 -0.0298
    9SAPS  H19R 1143   6.370   4.572   8.269 -1.2056  2.4191  0.0256
    9SAPS  H19S 1144   6.223   4.468   8.267 -0.0856 -1.2230 -1.2597
    9SAPS  C220 1145   6.188   4.687   8.248  0.1682  0.8650 -0.1874
    9SAPS  H20R 1146   6.083   4.662   8.222  0.0533  0.8353  0.3033
    9SAPS  H20S 1147   6.242   4.769   8.194  1.6271 -1.8841 -3.2468
    9SAPS  H20T 1148   6.185   4.704   8.358 -0.7704  1.5624 -0.3105
    9SAPS   C33 1149   5.578   4.150   6.908 -0.1156 -0.1937 -0.5913
    9SAPS   H3X 1150   5.641   4.059   6.915  0.7311  0.3852 -0.6240
    9SAPS   H3Y 1151   5.473   4.117   6.894  0.1916 -1.5607  0.1123
    9SAPS   C34 1152   5.587   4.237   7.032 -0.2660 -0.0310  0.0764
    9SAPS   H4X 1153   5.551   4.340   7.011  0.6356  0.2690 -0.0015
    9SAPS   H4Y 1154   5.694   4.249   7.059 -0.9507  0.4633  2.8655
    9SAPS   C35 1155   5.516   4.178   7.150  0.3298 -0.4668  0.1122
    9SAPS   H5X 1156   5.548   4.072   7.156 -2.3029 -1.4236 -1.4621
    9SAPS   H5Y 1157   5.407   4.188   7.133  0.7775 -0.6644 -3.8747
    9SAPS   C36 1158   5.557   4.254   7.276 -0.2844 -0.5012  0.2464
    9SAPS   H6X 1159   5.573   4.361   7.251  0.3597 -0.5644  0.3805
    9SAPS   H6Y 1160   5.651   4.225   7.329 -0.9921 -0.9976  1.2844
    9SAPS   C37 1161   5.455   4.234   7.382  0.1830 -0.0435  0.3928
    9SAPS   H7X 1162   5.451   4.126   7.409 -2.5721  0.3092  1.7382
    9SAPS   H7Y 1163   5.353   4.263   7.350  0.5175 -0.9809 -1.7118
    9SAPS   C38 1164   5.500   4.306   7.512 -0.0277 -0.7077 -0.0870
    9SAPS   H8X 1165   5.531   4.411   7.496 -0.9807 -0.4510 -0.3622
    9SAPS   H8Y 1166   5.602   4.267   7.533  0.3563 -0.0185 -0.6388
    9SAPS   C39 1167   5.410   4.287   7.635 -0.6328 -0.3003 -0.4342
    9SAPS   H9X 1168   5.452   4.330   7.728 -1.6936  0.2043 -0.1660
    9SAPS   H9Y 1169   5.388   4.180   7.653  0.4849 -0.4988 -0.1971
    9SAPS  C310 1170   5.270   4.346   7.612 -0.4687 -0.5200  0.9157
    9SAPS  H10X 1171   5.232   4.340   7.507  1.1364  0.6620  0.2247
    9SAPS  H10Y 1172   5.275   4.453   7.639 -1.7127  0.1507 -1.2469
    9SAPS  C311 1173   5.169   4.282   7.709  0.0542  0.2891  0.4542
    9SAPS  H11X 1174   5.077   4.340   7.689 -1.1647 -1.5194  0.6536
    9SAPS  H11Y 1175   5.207   4.303   7.812  2.9700  0.9303 -0.6520
    9SAPS  C312 1176   5.115   4.138   7.676 -0.3336  0.0235  1.0726
    9SAPS  H12X 1177   5.199   4.066   7.669  0.8704  1.3608  1.1882
    9SAPS  H12Y 1178   5.065   4.124   7.578 -1.4873 -1.4483  1.8381
    9SAPS  C313 1179   5.017   4.083   7.777  0.6796  0.4575 -0.9544
    9SAPS  H13X 1180   4.956   4.014   7.716 -0.6769 -0.7626  1.6094
    9SAPS  H13Y 1181   4.949   4.151   7.832  0.5393  0.6790 -1.4015
    9SAPS  C314 1182   5.085   3.990   7.886  0.7122 -0.4249  0.4784
    9SAPS  H14X 1183   5.128   3.906   7.827 -1.1376 -1.7581  0.9584
    9SAPS  H14Y 1184   5.013   3.939   7.953  1.4241 -0.7043  1.0385
    9SAPS  C315 1185   5.185   4.064   7.975 -0.0359  0.3485  0.4166
    9SAPS  H15X 1186   5.126   4.143   8.025 -2.7148 -2.0489  1.3030
    9SAPS  H15Y 1187   5.264   4.100   7.906  2.6813 -2.9382  1.4963
    9SAPS  C316 1188   5.249   3.963   8.064  0.8190  0.8643 -0.1749
    9SAPS  H16X 1189   5.288   3.874   8.010  2.2935 -0.1905  2.4103
    9SAPS  H16Y 1190   5.176   3.930   8.141  1.6352 -0.0864  0.2182
    9SAPS  C317 1191   5.372   4.019   8.127 -0.8550 -0.4674  0.2059
    9SAPS  H17X 1192   5.438   4.063   8.049 -0.5295 -0.5750  0.4161
    9SAPS  H17Y 1193   5.425   3.933   8.174  1.0270 -1.0635 -2.7201
    9SAPS  C318 1194   5.369   4.120   8.243  0.2540  0.1411  0.2643
    9SAPS  H18X 1195   5.303   4.075   8.320  0.5445 -0.5347  0.1341
    9SAPS  H18Y 1196   5.320   4.210   8.202 -1.1934 -0.3544  0.8253
    9SAPS  H18Z 1197   5.467   4.148   8.286  0.7571 -0.5851 -0.3777
   10SAPS     N 1198   6.436   0.124   6.481 -0.3830  0.1743 -0.5727
   10SAPS   HN1 1199   6.394   0.207   6.526 -1.4769  0.5469 -2.1805
   10SAPS   HN2 1200   6.383   0.035   6.492 -0.4037  0.2735  0.1838
   10SAPS   HN3 1201   6.525   0.101   6.530  0.2371  0.5990 -1.4752
   10SAPS   C12 1202   6.454   0.157   6.334 -0.3123  0.1573  0.4981
   10SAPS  H12A 1203   6.559   0.170   6.311 -0.4939  2.7622  0.7925
   10SAPS   C13 1204   6.408   0.036   6.243  0.4345  0.1313  0.0755
   10SAPS  O13A 1205   6.380  -0.077   6.291 -0.3056 -1.2168  0.5202
   10SAPS  O13B 1206   6.436   0.044   6.121 -0.6140  0.1592  0.7765
   10SAPS   C11 1207   6.370   0.284   6.311 -0.2346 -0.1693 -0.2738
   10SAPS  H11A 1208   6.265   0.258   6.337  0.3763 -0.0231  2.7984
   10SAPS  H11B 1209   6.373   0.316   6.205 -1.4703 -0.1961 -0.3279
   10SAPS     P 1210   6.553   0.479   6.347  0.3725  0.6041  0.3632
   10SAPS   O13 1211   6.663   0.380   6.360 -0.6360  0.0029  0.5550
   10SAPS   O14 1212   6.543   0.551   6.215 -0.4793 -0.3059  0.6808
   10SAPS   O12 1213   6.420   0.402   6.386 -0.1807 -0.2106  0.6012
   10SAPS   O11 1214   6.562   0.590   6.451 -0.3802  0.5238  0.0787
   10SAPS    C1 1215   6.587   0.551   6.589 -0.2292  0.4073 -0.3513
   10SAPS    HA 1216   6.520   0.607   6.657  2.1388  0.8910  1.7178
   10SAPS    HB 1217   6.567   0.445   6.616  0.0407 -0.3850 -2.9385
   10SAPS    C2 1218   6.736   0.589   6.636 -0.0975  0.2229  0.2228
   10SAPS    HS 1219   6.811   0.547   6.566 -2.2525  1.0296 -2.7620
   10SAPS   O21 1220   6.758   0.540   6.775  0.0499  0.0986  0.9356
   10SAPS   C21 1221   6.787   0.417   6.781 -0.5030  0.6382 -0.3745
   10SAPS   O22 1222   6.810   0.338   6.690 -0.1516  0.0894 -0.4343
   10SAPS   C22 1223   6.805   0.380   6.935 -0.6641 -0.2569  0.8629
   10SAPS   H2R 1224   6.844   0.467   6.992 -2.7268  1.1187  0.2883
   10SAPS   H2S 1225   6.702   0.368   6.974 -1.2686  0.1006 -0.5678
   10SAPS    C3 1226   6.760   0.738   6.623  0.5018  0.2788  0.3523
   10SAPS    HX 1227   6.671   0.784   6.670  1.1468  0.5672  1.3317
   10SAPS    HY 1228   6.750   0.774   6.519 -1.1899  0.4618  0.5572
   10SAPS   O31 1229   6.873   0.780   6.693 -0.5757  0.0462 -0.0317
   10SAPS   C31 1230   6.994   0.768   6.635 -0.8162  0.6824  0.1316
   10SAPS   O32 1231   7.013   0.732   6.518 -0.1713 -0.7217 -0.0661
   10SAPS   C32 1232   7.103   0.790   6.738  0.2121 -0.5454  0.6827
   10SAPS   H2X 1233   7.197   0.799   6.679 -0.5849  2.7057 -0.2984
   10SAPS   H2Y 1234   7.107   0.704   6.808  0.3361 -0.1269  1.1986
   10SAPS   C23 1235   6.890   0.253   6.945  0.6829 -0.5074  0.3892
   10SAPS   H3R 1236   6.992   0.293   6.925 -0.4803  1.8603 -1.2844
   10SAPS   H3S 1237   6.868   0.181   6.863 -1.1379  0.0737  0.3359
   10SAPS   C24 1238   6.866   0.171   7.076  0.0217 -0.4333  0.9372
   10SAPS   H4R 1239   6.938   0.087   7.063  0.2649 -0.4191  2.1371
   10SAPS   H4S 1240   6.768   0.120   7.075 -1.0200  1.4641  1.2017
   10SAPS   C25 1241   6.911   0.245   7.203  0.6132  0.1754  0.7163
   10SAPS   H5R 1242   6.830   0.311   7.238 -2.1267 -3.2203  1.3627
   10SAPS   C26 1243   7.013   0.223   7.282 -0.1606 -0.8405 -0.4165
   10SAPS   H6R 1244   7.003   0.265   7.383  2.1017  1.6271 -1.0982
   10SAPS   C27 1245   7.132   0.129   7.272  0.3576  0.0594 -0.0502
   10SAPS   H7R 1246   7.104   0.053   7.195  0.6552 -0.6270  0.5036
   10SAPS   H7S 1247   7.135   0.069   7.366  0.1900 -1.3349 -0.8993
   10SAPS   C28 1248   7.266   0.180   7.239 -0.1338 -0.2402 -0.1137
   10SAPS   H8R 1249   7.300   0.160   7.137  2.4071 -2.1309  0.9825
   10SAPS   C29 1250   7.349   0.239   7.331 -0.8536 -0.2964  0.0165
   10SAPS   H9R 1251   7.442   0.278   7.288 -0.8959  2.2196  1.9951
   10SAPS  C210 1252   7.313   0.281   7.471  0.7879  0.3053 -0.0189
   10SAPS  H10R 1253   7.218   0.231   7.501  0.5688  1.4766  1.3130
   10SAPS  H10S 1254   7.296   0.390   7.481  1.0149  0.7766 -3.5555
   10SAPS  C211 1255   7.416   0.226   7.563 -0.0846  0.2128 -0.8741
   10SAPS  H11R 1256   7.405   0.118   7.579 -0.7059  0.0492 -2.2680
   10SAPS  C212 1257   7.518   0.297   7.631  0.2473 -0.3843  1.0709
   10SAPS  H12R 1258   7.587   0.243   7.697  0.6688 -2.3787 -0.8870
   10SAPS  C213 1259   7.558   0.444   7.619  0.0381  0.5661  0.1134
   10SAPS  H13R 1260   7.463   0.502   7.620 -0.0648  0.4072 -0.2628
   10SAPS  H13S 1261   7.587   0.456   7.513 -0.8848  2.5384  0.0451
   10SAPS  C214 1262   7.663   0.501   7.723  0.1422 -0.5774 -0.6734
   10SAPS  H14R 1263   7.753   0.548   7.681  0.3429  2.0245  2.3115
   10SAPS  C215 1264   7.662   0.492   7.858  0.2265 -0.3123  0.8498
   10SAPS  H15R 1265   7.727   0.565   7.910  1.4399 -0.4096 -0.4775
   10SAPS  C216 1266   7.562   0.423   7.943  1.3552 -0.5038 -0.3911
   10SAPS  H16R 1267   7.601   0.325   7.977 -0.5829 -1.4445 -0.7323
   10SAPS  H16S 1268   7.458   0.419   7.905  0.0009  2.3421  2.5317
   10SAPS  C217 1269   7.542   0.503   8.070  0.1825  0.1050 -0.3989
   10SAPS  H17R 1270   7.533   0.611   8.046  0.5841  0.2778  0.2157
   10SAPS  H17S 1271   7.632   0.507   8.135 -0.5457  1.4612  0.5760
   10SAPS  C218 1272   7.429   0.453   8.166 -0.5705 -0.2494  0.0932
   10SAPS  H18R 1273   7.446   0.344   8.173 -0.3589 -0.1993  0.4261
   10SAPS  H18S 1274   7.331   0.477   8.121  0.1712  1.7446 -0.5719
   10SAPS  C219 1275   7.442   0.518   8.311 -0.2671  0.1070  0.3953
   10SAPS  H19R 1276   7.544   0.490   8.345  0.9339  0.7476 -2.4253
   10SAPS  H19S 1277   7.359   0.469   8.367  0.5362 -1.0486  0.6317
   10SAPS  C220 1278   7.439   0.667   8.319  0.6085 -0.1295 -0.4585
   10SAPS  H20R 1279   7.334   0.702   8.308  0.9965  1.3739  0.3063
   10SAPS  H20S 1280   7.497   0.719   8.240 -1.5147  2.8254 -0.2080
   10SAPS  H20T 1281   7.460   0.705   8.422  0.5329  1.1684 -0.9045
   10SAPS   C33 1282   7.090   0.923   6.814 -0.2023 -0.3470 -0.7465
   10SAPS   H3X 1283   6.987   0.959   6.835  0.0373 -1.4040  2.9588
   10SAPS   H3Y 1284   7.135   1.012   6.764  0.6227  0.6799  1.7055
   10SAPS   C34 1285   7.159   0.917   6.951  0.2854 -0.1090  0.2623
   10SAPS   H4X 1286   7.262   0.875   6.949  0.4983  0.3105  1.6914
   10SAPS   H4Y 1287   7.100   0.848   7.016  1.8016 -2.0193 -0.2931
   10SAPS   C35 1288   7.170   1.054   7.019  0.0626  0.4553 -0.0217
   10SAPS   H5X 1289   7.073   1.105   7.000 -0.0892  0.8690  1.7263
   10SAPS   H5Y 1290   7.248   1.120   6.975 -0.3449  0.0751 -1.3748
   10SAPS   C36 1291   7.185   1.040   7.169 -0.5428  0.1276 -0.4360
   10SAPS   H6X 1292   7.288   1.021   7.206 -1.1025 -0.1775  1.0516
   10SAPS   H6Y 1293   7.131   0.950   7.205  0.3536 -0.1751  0.1834
   10SAPS   C37 1294   7.135   1.171   7.234 -0.0924 -0.2487  0.2630
   10SAPS   H7X 1295   7.032   1.200   7.204  0.1850 -0.3294 -0.8496
   10SAPS   H7Y 1296   7.211   1.243   7.197 -1.2679  1.3774  0.9326
   10SAPS   C38 1297   7.161   1.189   7.385  0.2970  0.6788 -0.0299
   10SAPS   H8X 1298   7.271   1.189   7.401  0.2262  0.4763  0.4635
   10SAPS   H8Y 1299   7.118   1.109   7.448 -1.8332  1.6390 -0.1855
   10SAPS   C39 1300   7.119   1.326   7.434  1.2270 -0.3416  0.4157
   10SAPS   H9X 1301   7.018   1.343   7.390  1.8663 -1.6691 -1.7133
   10SAPS   H9Y 1302   7.175   1.413   7.394 -1.1363  0.9273 -0.3439
   10SAPS  C310 1303   7.119   1.339   7.586  0.4971 -0.0211 -0.6783
   10SAPS  H10X 1304   7.064   1.258   7.639  1.6987 -1.2176 -1.2066
   10SAPS  H10Y 1305   7.068   1.435   7.612 -0.9959 -0.8743 -0.2841
   10SAPS  C311 1306   7.257   1.332   7.644 -0.0613  0.0027 -0.8909
   10SAPS  H11X 1307   7.315   1.423   7.617 -1.1072  0.5755 -1.2353
   10SAPS  H11Y 1308   7.311   1.246   7.598  1.7239  0.2778  0.5382
   10SAPS  C312 1309   7.259   1.299   7.796  0.1185  1.0847 -0.0693
   10SAPS  H12X 1310   7.219   1.197   7.812 -1.4794  1.7430  0.2598
   10SAPS  H12Y 1311   7.191   1.375   7.840 -1.2231  0.0765 -0.3499
   10SAPS  C313 1312   7.400   1.313   7.865  0.4661 -0.2085 -0.9689
   10SAPS  H13X 1313   7.481   1.248   7.824 -1.6197 -2.3794 -1.8277
   10SAPS  H13Y 1314   7.385   1.282   7.971  0.6796  3.0617  0.1227
   10SAPS  C314 1315   7.457   1.456   7.863  0.0856  1.0715  0.5211
   10SAPS  H14X 1316   7.389   1.539   7.892  0.4651  2.0517 -1.2180
   10SAPS  H14Y 1317   7.469   1.485   7.756  1.1430 -0.6398  0.1458
   10SAPS  C315 1318   7.588   1.472   7.941  0.2041  0.0793  0.4818
   10SAPS  H15X 1319   7.656   1.392   7.905  1.9242  1.7722 -0.1888
   10SAPS  H15Y 1320   7.568   1.465   8.050 -0.7145 -1.7890  0.2379
   10SAPS  C316 1321   7.667   1.592   7.919  0.1040  0.0153  0.3185
   10SAPS  H16X 1322   7.762   1.596   7.976 -0.2182  1.1593  0.8261
   10SAPS  H16Y 1323   7.609   1.680   7.957 -0.6437 -0.3976  0.1394
   10SAPS  C317 1324   7.698   1.607   7.765 -0.1579  0.5063 -0.3631
   10SAPS  H17X 1325   7.609   1.651   7.716 -2.2934 -4.1195 -1.1992
   10SAPS  H17Y 1326   7.721   1.506   7.725  2.1014  0.4884  0.7961
   10SAPS  C318 1327   7.817   1.698   7.723 -0.3184  0.0992 -0.1013
   10SAPS  H18X 1328   7.830   1.710   7.613  2.8979 -2.8143 -0.2151
   10SAPS  H18Y 1329   7.910   1.647   7.756  0.1495 -1.0510 -2.9140
   10SAPS  H18Z 1330   7.805   1.796   7.772  0.4215  1.9494 -3.3269
   11SAPS     N 1331   4.733   0.037   6.011 -0.0168 -0.8091 -0.1946
   11SAPS   HN1 1332   4.735   0.016   6.113  0.8904  0.4219  0.0638
   11SAPS   HN2 1333   4.815  -0.019   5.979  0.6070  1.1946 -2.3398
   11SAPS   HN3 1334   4.746   0.139   5.996 -0.9549 -0.6394  0.1142
   11SAPS   C12 1335   4.608   0.006   5.946  0.3028 -0.3693 -0.5192
   11SAPS  H12A 1336   4.600   0.045   5.845 -1.8047  0.3575 -0.1298
   11SAPS   C13 1337   4.580  -0.149   5.929 -0.3508  0.2195  0.4063
   11SAPS  O13A 1338   4.643  -0.240   5.984 -0.4145 -0.8849 -0.2347
   11SAPS  O13B 1339   4.474  -0.168   5.857 -0.0531 -0.4111 -0.6737
   11SAPS   C11 1340   4.483   0.059   6.022  0.2596 -0.1554  0.5798
   11SAPS  H11A 1341   4.506   0.026   6.126  0.6374  1.3672  1.0169
   11SAPS  H11B 1342   4.387   0.015   5.989 -0.1650  1.0385  0.1488
   11SAPS     P 1343   4.517   0.292   6.138  0.1030 -0.2325 -0.2405
   11SAPS   O13 1344   4.657   0.276   6.177 -0.2312 -0.2170 -0.0242
   11SAPS   O14 1345   4.478   0.439   6.125 -0.0196  0.0443  0.3757
   11SAPS   O12 1346   4.486   0.203   6.007  0.1076 -0.0835  0.1841
   11SAPS   O11 1347   4.424   0.225   6.246 -0.1278  0.3286  0.2727
   11SAPS    C1 1348   4.279   0.252   6.240  0.2638  0.3036  0.0895
   11SAPS    HA 1349   4.256   0.300   6.142 -0.3614 -0.6547 -0.2448
   11SAPS    HB 1350   4.228   0.154   6.250 -0.8103  1.0834  3.6763
   11SAPS    C2 1351   4.243   0.330   6.364 -0.5324 -0.1705  0.5536
   11SAPS    HS 1352   4.276   0.430   6.328  0.6021 -1.0980 -1.0876
   11SAPS   O21 1353   4.324   0.293   6.479 -0.0408 -0.2209 -0.2847
   11SAPS   C21 1354   4.410   0.373   6.527  0.0875  0.0042 -0.0611
   11SAPS   O22 1355   4.429   0.489   6.508  0.1956 -0.1034  0.1713
   11SAPS   C22 1356   4.496   0.292   6.631 -0.2640 -0.1719 -0.0844
   11SAPS   H2R 1357   4.504   0.186   6.598 -0.9914  0.1667 -1.4706
   11SAPS   H2S 1358   4.597   0.336   6.632 -0.1901 -0.1709 -2.1579
   11SAPS    C3 1359   4.088   0.326   6.402 -0.0916 -0.1352  0.8618
   11SAPS    HX 1360   4.057   0.219   6.404  1.6818 -0.7053 -0.3353
   11SAPS    HY 1361   4.037   0.392   6.328  1.3337  0.8542  0.7246
   11SAPS   O31 1362   4.065   0.389   6.524 -0.4936  0.7749 -0.3060
   11SAPS   C31 1363   3.940   0.397   6.563 -0.6570 -0.3087 -0.2163
   11SAPS   O32 1364   3.838   0.366   6.502 -0.9837  0.4719  0.4652
   11SAPS   C32 1365   3.935   0.457   6.702 -0.2302  0.1217 -0.2915
   11SAPS   H2X 1366   3.837   0.506   6.721 -1.1269 -1.0115 -1.8148
   11SAPS   H2Y 1367   4.022   0.522   6.723  0.1011 -0.1218 -0.9085
   11SAPS   C23 1368   4.435   0.280   6.775  0.1672  0.0960  0.4489
   11SAPS   H3R 1369   4.493   0.198   6.822  0.3562  0.2404  0.4705
   11SAPS   H3S 1370   4.330   0.244   6.777 -0.1644  0.8383 -1.3823
   11SAPS   C24 1371   4.454   0.403   6.873 -0.4843  1.0761  0.6346
   11SAPS   H4R 1372   4.377   0.397   6.952 -2.0661 -0.4438 -0.9459
   11SAPS   H4S 1373   4.409   0.490   6.820 -1.0705  0.9223  0.8747
   11SAPS   C25 1374   4.591   0.429   6.913  0.3238 -0.0460  0.1298
   11SAPS   H5R 1375   4.652   0.495   6.848 -1.1140  1.5895  0.3539
   11SAPS   C26 1376   4.645   0.402   7.032 -1.0235 -0.3195 -0.2550
   11SAPS   H6R 1377   4.754   0.413   7.044 -1.3278  1.6592  1.1655
   11SAPS   C27 1378   4.566   0.331   7.140  0.1558  0.1217 -0.5019
   11SAPS   H7R 1379   4.466   0.299   7.104 -0.4904  0.6282  0.7991
   11SAPS   H7S 1380   4.555   0.396   7.229 -1.9109 -1.6961  0.6729
   11SAPS   C28 1381   4.646   0.213   7.189  0.1074  0.1321  0.4834
   11SAPS   H8R 1382   4.671   0.136   7.115 -1.3274 -0.5491  0.6798
   11SAPS   C29 1383   4.697   0.192   7.308 -0.4419 -0.0618  0.1275
   11SAPS   H9R 1384   4.759   0.103   7.321  0.4020  0.4778 -0.1309
   11SAPS  C210 1385   4.689   0.283   7.430  0.1450  0.3780  0.4739
   11SAPS  H10R 1386   4.710   0.386   7.392 -0.2748 -0.1190 -1.2103
   11SAPS  H10S 1387   4.771   0.255   7.499  0.8704  0.1905 -0.4365
   11SAPS  C211 1388   4.552   0.274   7.479  0.3694  0.0121 -0.2614
   11SAPS  H11R 1389   4.473   0.247   7.408  0.8756 -0.4128 -0.6654
   11SAPS  C212 1390   4.523   0.316   7.605 -0.2564 -0.0071 -0.6932
   11SAPS  H12R 1391   4.416   0.327   7.626 -0.1085 -0.8156  0.6098
   11SAPS  C213 1392   4.616   0.355   7.715 -0.6999  0.6979  0.0475
   11SAPS  H13R 1393   4.652   0.452   7.674  1.1768 -0.6705 -1.7638
   11SAPS  H13S 1394   4.697   0.284   7.742 -2.2536 -1.3809 -0.4523
   11SAPS  C214 1395   4.538   0.385   7.840  0.3983  0.3160  0.4524
   11SAPS  H14R 1396   4.522   0.491   7.864 -3.6721 -0.5265  2.3592
   11SAPS  C215 1397   4.484   0.296   7.925 -0.6177 -0.5624  0.2415
   11SAPS  H15R 1398   4.445   0.338   8.019 -1.2705 -2.6789  0.9654
   11SAPS  C216 1399   4.496   0.144   7.924 -0.0672 -0.1514 -0.1471
   11SAPS  H16R 1400   4.504   0.110   7.819  0.5803  2.5730 -1.0646
   11SAPS  H16S 1401   4.404   0.103   7.973 -0.3540 -1.2622 -1.5463
   11SAPS  C217 1402   4.622   0.091   7.994  0.2110 -0.4579  0.1826
   11SAPS  H17R 1403   4.708   0.159   7.974 -0.6597  0.1987 -1.5368
   11SAPS  H17S 1404   4.644  -0.009   7.950 -0.9766 -0.9020  0.5541
   11SAPS  C218 1405   4.601   0.061   8.140  0.7296 -0.3644 -0.0650
   11SAPS  H18R 1406   4.528  -0.020   8.157  0.9092 -0.9705 -1.8992
   11SAPS  H18S 1407   4.546   0.152   8.172 -0.7972 -0.6966 -1.6259
   11SAPS  C219 1408   4.727   0.031   8.222  0.0637  0.3054  0.6441
   11SAPS  H19R 1409   4.798   0.106   8.180 -0.6913  0.3503 -0.6013
   11SAPS  H19S 1410   4.762  -0.069   8.189 -0.8492  0.6172 -1.3984
   11SAPS  C220 1411   4.701   0.041   8.366  0.2050 -0.2072 -0.7537
   11SAPS  H20R 1412   4.640  -0.040   8.413 -0.3341  0.2382 -0.6742
   11SAPS  H20S 1413   4.642   0.133   8.389  1.3659  0.3185  0.1954
   11SAPS  H20T 1414   4.792   0.041   8.429  0.0836  0.2979 -0.5722
   11SAPS   C33 1415   3.947   0.347   6.814 -0.3198  0.0322 -0.3448
   11SAPS   H3X 1416   4.054   0.321   6.823 -0.2780  0.1288 -0.5626
   11SAPS   H3Y 1417   3.893   0.253   6.794 -0.5357  0.2177 -0.6428
   11SAPS   C34 1418   3.906   0.416   6.946  0.1007 -0.0070  0.3525
   11SAPS   H4X 1419   3.908   0.337   7.023  0.5699  0.4681  0.8354
   11SAPS   H4Y 1420   3.803   0.457   6.938  0.7405  1.3428 -2.3538
   11SAPS   C35 1421   3.995   0.533   6.996 -0.4747 -0.1013 -0.5490
   11SAPS   H5X 1422   3.956   0.620   6.939 -2.8393 -1.0903 -0.5382
   11SAPS   H5Y 1423   4.103   0.509   6.989  0.5068  2.3670  3.0392
   11SAPS   C36 1424   3.968   0.566   7.142 -0.2545  0.2976  0.1055
   11SAPS   H6X 1425   3.862   0.566   7.174 -0.5098 -0.8642 -0.6719
   11SAPS   H6Y 1426   4.013   0.666   7.163 -0.6679  0.4525  0.2515
   11SAPS   C37 1427   4.030   0.470   7.237  0.3073 -0.4188 -0.2594
   11SAPS   H7X 1428   4.137   0.491   7.217 -0.1094  0.6148 -1.5177
   11SAPS   H7Y 1429   3.998   0.368   7.208 -1.7052  0.0315  0.2013
   11SAPS   C38 1430   4.007   0.492   7.387  0.0552  0.5547 -0.0483
   11SAPS   H8X 1431   3.898   0.480   7.405 -0.1894  4.8245  2.6828
   11SAPS   H8Y 1432   4.031   0.596   7.415 -0.4275  0.9677 -1.1154
   11SAPS   C39 1433   4.078   0.386   7.475  0.6721 -0.2745  0.1707
   11SAPS   H9X 1434   4.189   0.384   7.470  0.8342  2.7794  0.6903
   11SAPS   H9Y 1435   4.050   0.289   7.429  0.5928  0.1595 -0.7185
   11SAPS  C310 1436   4.033   0.389   7.624  0.1876  0.6626 -0.1956
   11SAPS  H10X 1437   3.922   0.395   7.630  0.0768  2.1462 -2.4690
   11SAPS  H10Y 1438   4.057   0.489   7.666 -1.1687  1.1474 -0.4936
   11SAPS  C311 1439   4.083   0.270   7.709  0.6698 -0.3542  0.2726
   11SAPS  H11X 1440   4.175   0.227   7.664 -0.6570 -0.4281 -2.5637
   11SAPS  H11Y 1441   4.000   0.197   7.710 -0.4069  0.7515  3.3129
   11SAPS  C312 1442   4.098   0.313   7.854 -0.2452 -0.3005 -0.1188
   11SAPS  H12X 1443   4.011   0.374   7.885 -0.0078 -1.0606  2.2614
   11SAPS  H12Y 1444   4.199   0.359   7.867 -1.2217  1.4870  1.7556
   11SAPS  C313 1445   4.097   0.194   7.959  0.1549 -0.0897  0.3907
   11SAPS  H13X 1446   4.156   0.101   7.951  0.7147  0.1630  1.4096
   11SAPS  H13Y 1447   3.991   0.158   7.957 -0.0642  0.4516 -2.6756
   11SAPS  C314 1448   4.134   0.245   8.101 -0.0822 -0.8359  0.3903
   11SAPS  H14X 1449   4.068   0.329   8.128  1.3374  0.5136 -0.1689
   11SAPS  H14Y 1450   4.240   0.279   8.105 -1.3637  3.7758  0.7293
   11SAPS  C315 1451   4.121   0.134   8.198 -0.0768 -0.0797 -0.0002
   11SAPS  H15X 1452   4.184   0.049   8.165 -0.0752 -0.1942  0.2983
   11SAPS  H15Y 1453   4.019   0.092   8.215  1.0310 -3.3858 -0.7370
   11SAPS  C316 1454   4.170   0.191   8.336 -0.2131 -0.2249 -1.2583
   11SAPS  H16X 1455   4.073   0.221   8.381  0.3578 -0.5415  0.2748
   11SAPS  H16Y 1456   4.234   0.282   8.326  0.2703 -0.2710  0.8049
   11SAPS  C317 1457   4.235   0.097   8.436  0.7085 -0.0768  0.4790
   11SAPS  H17X 1458   4.317   0.041   8.385  0.9173  0.7694 -0.1512
   11SAPS  H17Y 1459   4.163   0.016   8.460 -0.2355 -0.4173 -2.9658
   11SAPS  C318 1460   4.292   0.166   8.560 -0.3965  0.5710  0.6066
   11SAPS  H18X 1461   4.359   0.252   8.537  0.0018  0.3765  1.0223
   11SAPS  H18Y 1462   4.347   0.085   8.612 -0.4453  0.1320 -0.0261
   11SAPS  H18Z 1463   4.228   0.203   8.644  0.5843  1.8013  0.8489
   12SAPS     N 1464   1.445   0.528   5.821 -0.1122  0.4822 -0.6155
   12SAPS   HN1 1465   1.406   0.439   5.784  3.0852 -0.9994 -0.6874
   12SAPS   HN2 1466   1.523   0.507   5.886 -0.3879 -0.4176 -0.5686
   12SAPS   HN3 1467   1.364   0.566   5.874  0.2582 -0.6213  0.8089
   12SAPS   C12 1468   1.501   0.631   5.720  0.2277 -0.0502 -0.0946
   12SAPS  H12A 1469   1.585   0.582   5.673  0.8952  0.6097  0.3951
   12SAPS   C13 1470   1.393   0.689   5.623  0.3801  0.2341 -0.5837
   12SAPS  O13A 1471   1.269   0.653   5.637 -0.0252 -0.5367 -0.5545
   12SAPS  O13B 1472   1.436   0.751   5.529  0.3272 -0.5137  0.4466
   12SAPS   C11 1473   1.573   0.744   5.792 -0.1582 -0.2115  0.1956
   12SAPS  H11A 1474   1.502   0.809   5.847  0.7477  1.3082 -0.3843
   12SAPS  H11B 1475   1.636   0.807   5.726 -1.2389  0.9620  0.2620
   12SAPS     P 1476   1.721   0.763   6.015  0.1658  0.4040 -0.7248
   12SAPS   O13 1477   1.821   0.681   6.088 -0.6495 -0.1335  0.5701
   12SAPS   O14 1478   1.769   0.893   5.978 -0.2501  0.4737 -0.3148
   12SAPS   O12 1479   1.662   0.689   5.894 -0.4038  0.6374  0.3768
   12SAPS   O11 1480   1.603   0.796   6.108 -0.0808  0.1697 -0.4106
   12SAPS    C1 1481   1.502   0.707   6.145  0.7219  0.2544  0.0417
   12SAPS    HA 1482   1.405   0.753   6.116  1.6070  1.4285 -1.1875
   12SAPS    HB 1483   1.504   0.610   6.090  0.0678  0.6009 -0.5956
   12SAPS    C2 1484   1.496   0.677   6.299 -0.5659  0.2017  0.8249
   12SAPS    HS 1485   1.495   0.770   6.361  0.5069  0.7555  0.0372
   12SAPS   O21 1486   1.616   0.600   6.332  0.4394 -1.0534  0.1953
   12SAPS   C21 1487   1.641   0.591   6.463  0.1839  0.0186  0.5214
   12SAPS   O22 1488   1.570   0.640   6.552 -0.2520  0.1698  0.1488
   12SAPS   C22 1489   1.770   0.520   6.486  0.1151  0.1384  0.1826
   12SAPS   H2R 1490   1.744   0.413   6.499 -0.6853  0.2454 -0.3995
   12SAPS   H2S 1491   1.840   0.529   6.400  1.5517 -1.1417  1.1612
   12SAPS    C3 1492   1.364   0.592   6.319 -0.1212  0.0479  0.7052
   12SAPS    HX 1493   1.384   0.495   6.269  3.6068 -0.7873  3.4176
   12SAPS    HY 1494   1.276   0.637   6.268  0.5141  2.5361  1.6687
   12SAPS   O31 1495   1.328   0.581   6.457 -0.6984  0.5540  0.7124
   12SAPS   C31 1496   1.327   0.468   6.518 -0.7064 -0.2232  0.0959
   12SAPS   O32 1497   1.365   0.361   6.469 -0.3356 -0.4750 -0.4942
   12SAPS   C32 1498   1.284   0.497   6.660  0.5284  0.1049 -0.8097
   12SAPS   H2X 1499   1.189   0.555   6.656  0.6723  0.3513 -0.6812
   12SAPS   H2Y 1500   1.351   0.565   6.717  0.6834 -0.2713 -0.5415
   12SAPS   C23 1501   1.850   0.575   6.607  0.1620  0.1561  0.1050
   12SAPS   H3R 1502   1.799   0.527   6.693 -0.1534 -0.4552 -0.4146
   12SAPS   H3S 1503   1.837   0.685   6.622 -0.9612  0.2151 -1.1053
   12SAPS   C24 1504   1.999   0.527   6.617  0.1834  0.3099  0.9043
   12SAPS   H4R 1505   2.035   0.558   6.717 -0.5573  0.2032  1.2122
   12SAPS   H4S 1506   2.061   0.575   6.538 -1.0173 -0.5868 -0.6512
   12SAPS   C25 1507   2.012   0.378   6.600  1.0600 -0.1307 -0.0098
   12SAPS   H5R 1508   1.974   0.340   6.504  0.2754  1.0548 -0.1970
   12SAPS   C26 1509   2.020   0.291   6.702 -0.4869 -0.2958 -0.2433
   12SAPS   H6R 1510   2.015   0.182   6.685  1.9250  0.0034 -4.0610
   12SAPS   C27 1511   2.039   0.330   6.843  0.1823 -0.5251 -0.0827
   12SAPS   H7R 1512   1.988   0.251   6.903 -1.9198 -0.7641 -2.0235
   12SAPS   H7S 1513   1.990   0.429   6.854 -0.7035 -0.7370 -1.7660
   12SAPS   C28 1514   2.187   0.336   6.860  0.3001 -0.3831  0.2995
   12SAPS   H8R 1515   2.236   0.416   6.803 -0.8749  1.6595  2.0352
   12SAPS   C29 1516   2.271   0.260   6.931 -0.1619  0.3650 -0.0009
   12SAPS   H9R 1517   2.377   0.288   6.922  0.5852 -2.3218 -0.6614
   12SAPS  C210 1518   2.223   0.148   7.023 -0.3640  0.0979  0.2585
   12SAPS  H10R 1519   2.309   0.082   7.046 -1.3497 -1.6238 -0.7602
   12SAPS  H10S 1520   2.156   0.083   6.962 -0.1718  1.5290 -1.5605
   12SAPS  C211 1521   2.152   0.179   7.155 -0.9347  0.1945 -0.2976
   12SAPS  H11R 1522   2.055   0.231   7.145 -0.4547  1.3729  0.9041
   12SAPS  C212 1523   2.201   0.160   7.282  0.6763 -0.3638 -0.2663
   12SAPS  H12R 1524   2.137   0.185   7.369 -1.1942  5.2466 -2.7502
   12SAPS  C213 1525   2.334   0.107   7.316  0.1269 -0.0654 -0.1280
   12SAPS  H13R 1526   2.397   0.087   7.226  0.9320  4.1261 -0.7268
   12SAPS  H13S 1527   2.308   0.010   7.362  0.4808 -0.5952 -0.9972
   12SAPS  C214 1528   2.422   0.190   7.403  0.0443  0.4469 -0.0406
   12SAPS  H14R 1529   2.464   0.278   7.353  0.6334  1.2600  1.7789
   12SAPS  C215 1530   2.448   0.166   7.532 -0.3935 -0.1600  0.4834
   12SAPS  H15R 1531   2.518   0.232   7.586  0.1933  0.3391 -0.8476
   12SAPS  C216 1532   2.399   0.054   7.617  0.2828 -0.7040 -0.7158
   12SAPS  H16R 1533   2.485  -0.007   7.653  1.6214  1.4765 -0.0223
   12SAPS  H16S 1534   2.336  -0.017   7.560 -0.3690  0.1300 -1.0523
   12SAPS  C217 1535   2.306   0.095   7.739 -0.0017  0.1173  0.0373
   12SAPS  H17R 1536   2.216   0.151   7.706 -0.0613 -0.4083 -0.7305
   12SAPS  H17S 1537   2.364   0.171   7.795  0.6363 -0.6526  0.4627
   12SAPS  C218 1538   2.270  -0.018   7.835  0.6167  0.5763 -0.0819
   12SAPS  H18R 1539   2.184   0.022   7.892 -1.1896  1.5752 -3.2488
   12SAPS  H18S 1540   2.347  -0.046   7.910  0.7966  0.7903 -0.1863
   12SAPS  C219 1541   2.206  -0.138   7.767 -0.5282  0.4034  1.2683
   12SAPS  H19R 1542   2.273  -0.178   7.688 -1.6558 -0.0283  0.5226
   12SAPS  H19S 1543   2.114  -0.107   7.714  0.8969  1.5224 -0.6625
   12SAPS  C220 1544   2.169  -0.251   7.868 -0.3778 -0.6748  0.0814
   12SAPS  H20R 1545   2.122  -0.205   7.958  0.4883  0.3366  0.0265
   12SAPS  H20S 1546   2.258  -0.305   7.907  0.2126 -0.5549 -1.0686
   12SAPS  H20T 1547   2.094  -0.309   7.810  0.9944 -2.2134 -0.2237
   12SAPS   C33 1548   1.264   0.374   6.752  0.6006 -0.2778  0.5712
   12SAPS   H3X 1549   1.207   0.291   6.706  0.4956 -0.2095  0.5786
   12SAPS   H3Y 1550   1.209   0.409   6.842 -0.2124  1.1662 -0.4455
   12SAPS   C34 1551   1.395   0.319   6.818  0.0327  0.4826  0.5360
   12SAPS   H4X 1552   1.467   0.296   6.736 -0.2129  2.1032 -0.1714
   12SAPS   H4Y 1553   1.373   0.222   6.868 -0.4108  0.4511  0.2946
   12SAPS   C35 1554   1.453   0.418   6.920  0.2287 -0.1319  0.2816
   12SAPS   H5X 1555   1.447   0.522   6.882  0.8221 -0.6398 -1.2671
   12SAPS   H5Y 1556   1.560   0.394   6.937 -0.4096 -3.0982  0.5575
   12SAPS   C36 1557   1.374   0.424   7.051 -1.0215  0.0679  0.3058
   12SAPS   H6X 1558   1.283   0.364   7.027 -0.1896 -0.7646 -0.9103
   12SAPS   H6Y 1559   1.338   0.527   7.074  0.6460  0.8534 -0.4429
   12SAPS   C37 1560   1.448   0.348   7.163 -0.4977 -0.0524 -0.6078
   12SAPS   H7X 1561   1.553   0.384   7.161 -0.2393 -0.7205  0.0945
   12SAPS   H7Y 1562   1.458   0.238   7.150 -1.4399 -0.8811  3.7699
   12SAPS   C38 1563   1.387   0.364   7.298  0.5063  0.4548  0.5748
   12SAPS   H8X 1564   1.285   0.321   7.299 -0.2463  2.1786  1.6614
   12SAPS   H8Y 1565   1.378   0.469   7.333 -2.5403  1.3653 -2.3860
   12SAPS   C39 1566   1.454   0.269   7.401 -0.4826 -0.3364  0.0454
   12SAPS   H9X 1567   1.563   0.287   7.403  0.0747 -3.2754  1.1572
   12SAPS   H9Y 1568   1.440   0.167   7.359 -1.1793  0.8586 -2.8296
   12SAPS  C310 1569   1.405   0.288   7.544 -0.1243  0.2252  0.4527
   12SAPS  H10X 1570   1.308   0.341   7.535 -0.4636 -0.4123  0.3084
   12SAPS  H10Y 1571   1.478   0.361   7.586  0.4613  1.0276 -1.8500
   12SAPS  C311 1572   1.394   0.157   7.619  0.5692  0.1504  0.0566
   12SAPS  H11X 1573   1.495   0.112   7.609  1.8573  2.9871 -0.7364
   12SAPS  H11Y 1574   1.313   0.089   7.584  1.1286 -0.8487  0.6601
   12SAPS  C312 1575   1.374   0.178   7.770  0.8276  0.1562  0.5437
   12SAPS  H12X 1576   1.457   0.249   7.790  1.3944 -0.0730 -0.8795
   12SAPS  H12Y 1577   1.394   0.087   7.831 -0.8333  0.3764  1.4788
   12SAPS  C313 1578   1.237   0.224   7.816  0.1215 -0.2359  0.1785
   12SAPS  H13X 1579   1.156   0.151   7.794  1.3747 -1.0477 -2.1408
   12SAPS  H13Y 1580   1.207   0.315   7.759  0.7738  0.5424  1.0567
   12SAPS  C314 1581   1.229   0.268   7.966  0.0286  0.0781 -0.3697
   12SAPS  H14X 1582   1.281   0.366   7.961 -1.9514  1.1928  0.0734
   12SAPS  H14Y 1583   1.289   0.194   8.024 -0.2042  0.6111  0.5758
   12SAPS  C315 1584   1.093   0.273   8.017  0.0060  0.0045 -0.0724
   12SAPS  H15X 1585   1.060   0.170   8.043  0.0088  0.7328  3.2041
   12SAPS  H15Y 1586   1.030   0.296   7.928  1.4972  0.5631 -1.0269
   12SAPS  C316 1587   1.066   0.365   8.131  0.4686 -0.3866  0.6036
   12SAPS  H16X 1588   0.962   0.402   8.118  0.1523 -1.8407 -1.6112
   12SAPS  H16Y 1589   1.131   0.454   8.142 -2.4454  2.1600 -0.9838
   12SAPS  C317 1590   1.076   0.298   8.266  0.4159  0.6058 -0.4561
   12SAPS  H17X 1591   1.175   0.254   8.288 -1.2183 -2.5386  1.3707
   12SAPS  H17Y 1592   1.001   0.217   8.251  1.9746 -0.5677 -2.4227
   12SAPS  C318 1593   1.017   0.386   8.372 -0.1807 -0.5523 -0.5551
   12SAPS  H18X 1594   0.939   0.450   8.326  0.4451  0.9025  0.3065
   12SAPS  H18Y 1595   1.097   0.455   8.405 -2.9033  2.4977  0.2844
   12SAPS  H18Z 1596   0.973   0.325   8.455 -3.4821 -0.3435 -2.0100
   13SAPS     N 1597   2.685   6.190   5.935  0.1842  0.1048 -0.2353
   13SAPS   HN1 1598   2.656   6.103   5.886  1.1090 -0.3587  0.0230
   13SAPS   HN2 1599   2.761   6.173   6.003 -0.7110  0.3318  0.8458
   13SAPS   HN3 1600   2.603   6.217   5.992  0.2868  0.8219 -0.4182
   13SAPS   C12 1601   2.705   6.314   5.847 -0.3006 -0.1384 -0.0442
   13SAPS  H12A 1602   2.800   6.306   5.796  0.4643 -0.0642  1.3220
   13SAPS   C13 1603   2.596   6.319   5.735  0.4099  0.3543  0.2049
   13SAPS  O13A 1604   2.518   6.225   5.711 -0.1137  0.0454 -0.0616
   13SAPS  O13B 1605   2.611   6.413   5.643  0.0578 -0.0788 -0.2368
   13SAPS   C11 1606   2.699   6.441   5.931  0.9416 -0.1619 -0.3288
   13SAPS  H11A 1607   2.599   6.449   5.980  1.4773 -0.8953  0.9466
   13SAPS  H11B 1608   2.701   6.522   5.855 -1.1858  0.8112  0.5557
   13SAPS     P 1609   2.792   6.561   6.132  0.1566 -0.3228  0.0394
   13SAPS   O13 1610   2.919   6.564   6.210  0.7697  0.1603  0.0209
   13SAPS   O14 1611   2.754   6.685   6.065  0.8102 -0.5145 -0.0080
   13SAPS   O12 1612   2.815   6.446   6.016  0.0861 -0.6932  0.3153
   13SAPS   O11 1613   2.682   6.491   6.215 -0.6975 -0.0767 -0.1708
   13SAPS    C1 1614   2.694   6.372   6.293  0.2677 -0.3128 -0.2202
   13SAPS    HA 1615   2.631   6.296   6.241 -1.3769  2.6083 -2.8702
   13SAPS    HB 1616   2.788   6.313   6.286  0.8380  0.5398  0.1911
   13SAPS    C2 1617   2.678   6.392   6.442 -0.1377 -0.4976  0.6076
   13SAPS    HS 1618   2.578   6.438   6.453 -0.1373 -0.6850  1.4334
   13SAPS   O21 1619   2.786   6.469   6.486 -0.0890 -0.4836 -0.4023
   13SAPS   C21 1620   2.773   6.600   6.498 -0.0077 -0.4510  0.1422
   13SAPS   O22 1621   2.674   6.673   6.485 -0.7000  0.1132  0.3372
   13SAPS   C22 1622   2.913   6.654   6.538  0.3712 -0.4892 -0.1743
   13SAPS   H2R 1623   2.994   6.615   6.473  1.0947  1.4509 -0.4853
   13SAPS   H2S 1624   2.907   6.765   6.535 -1.7030 -0.4984  0.9839
   13SAPS    C3 1625   2.669   6.247   6.496 -0.1766  0.0143  0.2374
   13SAPS    HX 1626   2.758   6.193   6.459 -0.2554 -0.8668  1.2713
   13SAPS    HY 1627   2.574   6.195   6.468  0.2055  0.0362 -1.1783
   13SAPS   O31 1628   2.682   6.267   6.641 -0.3026 -0.2527 -0.1249
   13SAPS   C31 1629   2.568   6.291   6.709  0.2760  0.3706  0.7241
   13SAPS   O32 1630   2.458   6.287   6.663 -0.1293 -0.0685  0.8693
   13SAPS   C32 1631   2.602   6.301   6.854  0.3680 -0.1745  0.5361
   13SAPS   H2X 1632   2.684   6.374   6.860  0.9252 -0.8125  0.8353
   13SAPS   H2Y 1633   2.654   6.209   6.890  0.8883  0.2736  0.9349
   13SAPS   C23 1634   2.951   6.623   6.681  0.4956  0.2742  0.5804
   13SAPS   H3R 1635   2.862   6.612   6.747 -1.1000 -0.7553 -1.6530
   13SAPS   H3S 1636   3.002   6.714   6.721  1.6805  0.5776 -1.4881
   13SAPS   C24 1637   3.040   6.497   6.697  0.0932  0.3362  0.1429
   13SAPS   H4R 1638   3.001   6.404   6.652 -0.9277 -1.2436  3.9199
   13SAPS   H4S 1639   3.055   6.469   6.803 -0.1346  1.3188  0.4449
   13SAPS   C25 1640   3.180   6.518   6.650 -0.0616  0.3310 -0.5249
   13SAPS   H5R 1641   3.193   6.502   6.542  1.4594 -2.1683 -0.0525
   13SAPS   C26 1642   3.272   6.584   6.721 -0.3426  0.3546 -0.0854
   13SAPS   H6R 1643   3.366   6.616   6.672  1.0294  0.4210  2.4177
   13SAPS   C27 1644   3.243   6.648   6.853 -0.2585 -0.3995 -0.1744
   13SAPS   H7R 1645   3.242   6.566   6.928 -1.1150  1.7757  2.3820
   13SAPS   H7S 1646   3.143   6.695   6.865 -0.3013 -0.4148 -0.4776
   13SAPS   C28 1647   3.350   6.749   6.888  0.3437 -0.2103 -0.4174
   13SAPS   H8R 1648   3.340   6.843   6.832  1.2546  0.0481 -0.1736
   13SAPS   C29 1649   3.413   6.761   7.013  0.3284 -0.1168 -0.3576
   13SAPS   H9R 1650   3.494   6.834   7.025  0.2922 -0.2191  0.6182
   13SAPS  C210 1651   3.404   6.664   7.128  0.2446  0.2328  0.1304
   13SAPS  H10R 1652   3.489   6.596   7.105 -0.5633 -0.7223 -0.1249
   13SAPS  H10S 1653   3.309   6.606   7.119  1.1039 -1.1189 -0.4695
   13SAPS  C211 1654   3.436   6.747   7.252 -0.1427  0.5980  0.1832
   13SAPS  H11R 1655   3.523   6.814   7.255 -0.7365  1.3556  2.3803
   13SAPS  C212 1656   3.376   6.726   7.366  0.3408  0.6342 -0.5334
   13SAPS  H12R 1657   3.412   6.780   7.455  0.9902 -1.6917  0.6773
   13SAPS  C213 1658   3.277   6.624   7.409 -0.4553  0.4175  0.2755
   13SAPS  H13R 1659   3.271   6.548   7.328 -0.1211  0.2498  0.4067
   13SAPS  H13S 1660   3.170   6.653   7.413 -0.8876 -1.0223 -0.3049
   13SAPS  C214 1661   3.332   6.545   7.519  0.4710  0.0951  0.2449
   13SAPS  H14R 1662   3.426   6.493   7.495 -0.6136 -1.3361 -1.1493
   13SAPS  C215 1663   3.274   6.510   7.636  0.1162  0.7378 -0.1105
   13SAPS  H15R 1664   3.332   6.443   7.702 -1.6722 -0.8140 -0.0482
   13SAPS  C216 1665   3.142   6.550   7.697 -0.2191 -0.4739 -0.2306
   13SAPS  H16R 1666   3.054   6.506   7.646 -1.4626  1.1905  0.3955
   13SAPS  H16S 1667   3.138   6.661   7.702 -1.4899 -0.5560  1.3694
   13SAPS  C217 1668   3.133   6.508   7.841  0.4015 -0.0278  0.9284
   13SAPS  H17R 1669   3.138   6.399   7.858  1.4173 -0.2115 -0.4116
   13SAPS  H17S 1670   3.025   6.523   7.865 -0.2498 -4.7915  1.9335
   13SAPS  C218 1671   3.237   6.577   7.935 -0.4070 -0.3294  0.3059
   13SAPS  H18R 1672   3.264   6.675   7.889 -1.3238 -0.2495 -0.0894
   13SAPS  H18S 1673   3.331   6.519   7.938 -0.9535 -1.3051 -0.8142
   13SAPS  C219 1674   3.176   6.602   8.073  0.1503  0.4666 -0.1090
   13SAPS  H19R 1675   3.142   6.508   8.120  0.1707  1.1094  1.2282
   13SAPS  H19S 1676   3.089   6.667   8.050  0.9356  1.5743 -0.0556
   13SAPS  C220 1677   3.276   6.665   8.162 -0.1047 -0.1628 -0.2920
   13SAPS  H20R 1678   3.349   6.594   8.206  1.3870  0.9190 -0.9322
   13SAPS  H20S 1679   3.233   6.712   8.252  0.1975 -0.5687  0.0702
   13SAPS  H20T 1680   3.342   6.731   8.102  1.4078 -1.7046 -0.3889
   13SAPS   C33 1681   2.493   6.338   6.957 -1.1022 -0.2437  0.0389
   13SAPS   H3X 1682   2.396   6.285   6.947 -1.5461  0.2983  1.2133
   13SAPS   H3Y 1683   2.470   6.447   6.958  0.0482  0.0547 -1.6357
   13SAPS   C34 1684   2.554   6.310   7.095  0.0112 -0.2309 -0.0776
   13SAPS   H4X 1685   2.619   6.398   7.115 -0.7414  0.3716 -0.2597
   13SAPS   H4Y 1686   2.609   6.214   7.086  4.0174  2.0099 -2.7824
   13SAPS   C35 1687   2.441   6.309   7.201 -0.3093 -0.0748  0.2712
   13SAPS   H5X 1688   2.376   6.221   7.180  0.3835  0.2264 -4.0053
   13SAPS   H5Y 1689   2.376   6.398   7.185  0.0565  0.0430 -0.6373
   13SAPS   C36 1690   2.487   6.303   7.351 -0.2125 -0.5142  1.0857
   13SAPS   H6X 1691   2.546   6.392   7.381  0.7922 -1.0253  0.6867
   13SAPS   H6Y 1692   2.542   6.209   7.374  1.0033  0.0938  0.7731
   13SAPS   C37 1693   2.364   6.302   7.445 -0.8737  0.1844  0.5357
   13SAPS   H7X 1694   2.275   6.264   7.390 -0.6033 -1.8445  1.4431
   13SAPS   H7Y 1695   2.346   6.397   7.499  1.3144 -0.0350  1.7785
   13SAPS   C38 1696   2.385   6.218   7.568  0.1677  0.6337 -0.0909
   13SAPS   H8X 1697   2.485   6.230   7.616 -0.8250  1.2233  1.9574
   13SAPS   H8Y 1698   2.388   6.111   7.541 -1.3534  1.1599 -2.6179
   13SAPS   C39 1699   2.278   6.246   7.679  0.0958  0.1558  0.6278
   13SAPS   H9X 1700   2.180   6.204   7.645  0.7762 -0.1367 -1.0690
   13SAPS   H9Y 1701   2.267   6.355   7.694  1.2990  0.0693  2.3881
   13SAPS  C310 1702   2.319   6.175   7.807  0.1147  0.6805 -0.4105
   13SAPS  H10X 1703   2.425   6.191   7.836  0.1947 -0.8674  0.2991
   13SAPS  H10Y 1704   2.324   6.072   7.766  1.2814  0.3695  0.4514
   13SAPS  C311 1705   2.213   6.181   7.914  0.7243  0.3153 -0.8163
   13SAPS  H11X 1706   2.111   6.175   7.871  0.0630  0.2458  0.7097
   13SAPS  H11Y 1707   2.224   6.278   7.967 -0.2552 -0.1170  0.2210
   13SAPS  C312 1708   2.235   6.072   8.025  0.2973  0.2051 -0.0629
   13SAPS  H12X 1709   2.338   6.081   8.067  0.3382 -0.4475 -0.0102
   13SAPS  H12Y 1710   2.231   5.973   7.974  0.2227 -1.1480  2.4348
   13SAPS  C313 1711   2.140   6.089   8.150 -0.1176  0.4246 -0.3312
   13SAPS  H13X 1712   2.118   5.988   8.190 -0.6433 -0.4636 -2.7121
   13SAPS  H13Y 1713   2.040   6.117   8.110  0.8473  0.7789 -2.6506
   13SAPS  C314 1714   2.201   6.180   8.253  0.1151  1.0596  0.0053
   13SAPS  H14X 1715   2.228   6.275   8.203  1.6828 -0.2716 -1.8220
   13SAPS  H14Y 1716   2.288   6.128   8.299  0.1256 -1.6326 -2.7585
   13SAPS  C315 1717   2.100   6.207   8.362 -0.2899  0.8022  0.2969
   13SAPS  H15X 1718   2.054   6.127   8.423 -1.3054  0.6242 -0.6784
   13SAPS  H15Y 1719   2.010   6.253   8.316 -0.4853  1.0674  0.9444
   13SAPS  C316 1720   2.165   6.311   8.466  0.1527  0.0807 -0.1581
   13SAPS  H16X 1721   2.266   6.282   8.502  0.8233 -1.0582 -2.6917
   13SAPS  H16Y 1722   2.086   6.309   8.544 -0.8638  2.8270 -1.0130
   13SAPS  C317 1723   2.159   6.458   8.431 -0.0101  0.4346 -1.0213
   13SAPS  H17X 1724   2.060   6.498   8.463  0.1814  0.1316 -0.0249
   13SAPS  H17Y 1725   2.171   6.469   8.321 -3.8306  0.1781 -1.6034
   13SAPS  C318 1726   2.273   6.542   8.497 -0.5147  0.8983 -0.2096
   13SAPS  H18X 1727   2.252   6.649   8.474 -1.8992  0.6586 -0.1252
   13SAPS  H18Y 1728   2.375   6.511   8.465 -0.4667  0.7584  0.0795
   13SAPS  H18Z 1729   2.266   6.526   8.607  0.9866 -0.6856 -0.2998
   14SAPS     N 1730   2.143   1.623   6.286 -0.1744 -0.6575  0.0571
   14SAPS   HN1 1731   2.164   1.697   6.356  0.5608  1.6239 -2.3830
   14SAPS   HN2 1732   2.043   1.604   6.307 -0.5401  0.4721 -0.5606
   14SAPS   HN3 1733   2.193   1.534   6.306 -0.2754 -0.1758  2.8796
   14SAPS   C12 1734   2.146   1.664   6.139 -0.4925 -0.3369  0.3169
   14SAPS  H12A 1735   2.155   1.571   6.084  0.1905  0.0471 -0.2454
   14SAPS   C13 1736   2.031   1.750   6.084  0.0592  0.2850 -0.5612
   14SAPS  O13A 1737   1.932   1.785   6.156  0.2980 -0.0713  0.2198
   14SAPS  O13B 1738   2.026   1.763   5.958  0.0179  0.7306 -0.3307
   14SAPS   C11 1739   2.273   1.738   6.110  0.7368 -0.0373 -0.2452
   14SAPS  H11A 1740   2.267   1.837   6.160  0.8249  0.8370 -1.8742
   14SAPS  H11B 1741   2.271   1.756   6.000 -0.1506 -0.6396 -0.3419
   14SAPS     P 1742   2.531   1.734   6.145  0.1826 -0.1202  0.0506
   14SAPS   O13 1743   2.644   1.643   6.184 -0.4366  0.4727 -0.1084
   14SAPS   O14 1744   2.534   1.799   6.011 -0.2502 -0.1474 -0.7450
   14SAPS   O12 1745   2.390   1.664   6.149  0.1459 -0.4073 -0.2246
   14SAPS   O11 1746   2.527   1.846   6.252  0.4772 -0.4986  0.2185
   14SAPS    C1 1747   2.506   1.810   6.392  0.3394 -0.2210 -0.2726
   14SAPS    HA 1748   2.439   1.885   6.439  0.9684  1.8203 -2.4155
   14SAPS    HB 1749   2.464   1.710   6.414 -0.1613 -0.3908 -1.8482
   14SAPS    C2 1750   2.639   1.821   6.461 -0.2510  0.5162  0.6913
   14SAPS    HS 1751   2.704   1.736   6.432  1.6451  1.4392  1.9971
   14SAPS   O21 1752   2.609   1.830   6.604  0.2089  0.0341  0.1818
   14SAPS   C21 1753   2.656   1.745   6.683 -0.5173 -0.0333  0.1126
   14SAPS   O22 1754   2.728   1.648   6.656  0.0945 -0.0777  0.4849
   14SAPS   C22 1755   2.600   1.782   6.821 -0.1550  0.2174  0.4747
   14SAPS   H2R 1756   2.644   1.879   6.854  0.4462 -0.2346  1.0290
   14SAPS   H2S 1757   2.491   1.783   6.799  0.0719  0.5092 -0.6907
   14SAPS    C3 1758   2.722   1.947   6.422  0.8663  0.0411  0.8858
   14SAPS    HX 1759   2.662   2.040   6.435 -0.1852  0.3620 -4.2615
   14SAPS    HY 1760   2.763   1.949   6.319  1.7406 -1.0957  1.1916
   14SAPS   O31 1761   2.837   1.950   6.506  0.0411 -0.1490 -0.0288
   14SAPS   C31 1762   2.935   1.857   6.481  1.4566 -0.6608 -0.3024
   14SAPS   O32 1763   2.929   1.771   6.396  0.0843  0.6042 -0.0047
   14SAPS   C32 1764   3.061   1.886   6.569  0.8494  0.3531 -0.4111
   14SAPS   H2X 1765   3.022   1.914   6.669 -1.3275  0.6769 -1.2850
   14SAPS   H2Y 1766   3.115   1.977   6.534  2.1822 -1.2610 -2.8247
   14SAPS   C23 1767   2.624   1.682   6.937  0.7793  0.1799  0.2426
   14SAPS   H3R 1768   2.726   1.640   6.923  0.9875  1.5434 -3.3889
   14SAPS   H3S 1769   2.556   1.598   6.914 -1.4123  1.4234  1.8079
   14SAPS   C24 1770   2.602   1.745   7.075  0.2691 -0.1605 -0.1746
   14SAPS   H4R 1771   2.621   1.664   7.149 -2.2558  0.4853  1.3000
   14SAPS   H4S 1772   2.492   1.759   7.084  0.2122 -0.7457  0.0873
   14SAPS   C25 1773   2.679   1.870   7.105 -0.6864 -0.8146 -0.2389
   14SAPS   H5R 1774   2.761   1.901   7.038 -0.9195  1.9262  0.6278
   14SAPS   C26 1775   2.652   1.947   7.211 -0.1331 -0.7989 -0.7761
   14SAPS   H6R 1776   2.712   2.038   7.227 -0.0336 -0.6531 -1.9018
   14SAPS   C27 1777   2.543   1.933   7.317 -0.8202  0.5289  0.6346
   14SAPS   H7R 1778   2.594   1.927   7.415 -1.3033 -2.3212  0.8097
   14SAPS   H7S 1779   2.503   1.830   7.308  2.3766 -0.8483  0.5427
   14SAPS   C28 1780   2.438   2.046   7.325 -1.3477 -0.7327 -0.1813
   14SAPS   H8R 1781   2.427   2.129   7.253 -1.8612 -0.7738 -0.1563
   14SAPS   C29 1782   2.358   2.059   7.436  0.0343 -0.0739  0.4084
   14SAPS   H9R 1783   2.273   2.129   7.429 -0.5314 -0.8536 -0.7915
   14SAPS  C210 1784   2.363   1.965   7.552 -0.1013  0.4805  0.2143
   14SAPS  H10R 1785   2.424   1.873   7.542  0.6394  1.0062 -0.1423
   14SAPS  H10S 1786   2.260   1.929   7.572 -0.0287  0.0975 -0.1032
   14SAPS  C211 1787   2.425   2.033   7.675 -0.0354 -0.9533  0.0475
   14SAPS  H11R 1788   2.450   2.140   7.661 -2.1239 -0.5795 -1.3685
   14SAPS  C212 1789   2.417   1.988   7.795 -0.7000 -0.2385 -0.6824
   14SAPS  H12R 1790   2.465   2.034   7.883 -0.2355 -0.6840 -0.6939
   14SAPS  C213 1791   2.374   1.852   7.827 -1.1045  0.4604 -0.0797
   14SAPS  H13R 1792   2.457   1.805   7.883 -1.8979  2.5761  3.1598
   14SAPS  H13S 1793   2.357   1.783   7.742  0.0548 -0.7224  0.6151
   14SAPS  C214 1794   2.245   1.861   7.909  0.2750  1.2534 -0.1695
   14SAPS  H14R 1795   2.159   1.907   7.859  0.5025  1.2645 -0.5499
   14SAPS  C215 1796   2.214   1.796   8.022  0.4701  0.0311 -0.3919
   14SAPS  H15R 1797   2.132   1.832   8.085 -1.6495 -2.1987 -1.6911
   14SAPS  C216 1798   2.307   1.699   8.092  0.9003 -0.1040  0.1872
   14SAPS  H16R 1799   2.398   1.672   8.035  0.9277  1.0256 -0.3259
   14SAPS  H16S 1800   2.243   1.611   8.114 -0.0177  0.9320  1.8304
   14SAPS  C217 1801   2.362   1.767   8.214  0.1302 -0.0409 -0.5841
   14SAPS  H17R 1802   2.280   1.792   8.284  0.7743  0.0216  0.1708
   14SAPS  H17S 1803   2.419   1.860   8.190 -0.4574  0.8508  1.3131
   14SAPS  C218 1804   2.449   1.662   8.289  0.2278 -0.0436  0.1021
   14SAPS  H18R 1805   2.517   1.597   8.229 -0.0996  0.0770 -0.4106
   14SAPS  H18S 1806   2.379   1.587   8.333  0.1436 -0.6144 -0.9673
   14SAPS  C219 1807   2.522   1.732   8.407 -1.0001  0.4789  0.1447
   14SAPS  H19R 1808   2.454   1.809   8.447  0.9802  1.0873  2.6334
   14SAPS  H19S 1809   2.611   1.776   8.357  0.1453  0.3180  1.9458
   14SAPS  C220 1810   2.580   1.631   8.507 -0.4131 -0.8790  0.7157
   14SAPS  H20R 1811   2.589   1.679   8.607  0.8203 -0.3944  0.3948
   14SAPS  H20S 1812   2.685   1.609   8.476 -0.9002 -3.0494  0.4418
   14SAPS  H20T 1813   2.520   1.539   8.520 -3.7567  0.8577 -0.9731
   14SAPS   C33 1814   3.167   1.769   6.592  0.0082 -0.0438  0.3440
   14SAPS   H3X 1815   3.254   1.822   6.637  1.2769 -1.8046  0.0625
   14SAPS   H3Y 1816   3.196   1.731   6.492 -3.3014  0.4729 -0.9400
   14SAPS   C34 1817   3.146   1.654   6.692 -0.1490 -0.0856  0.1370
   14SAPS   H4X 1818   3.206   1.562   6.674  1.3229  0.8467  0.1399
   14SAPS   H4Y 1819   3.041   1.619   6.685 -0.1089 -0.0403 -0.7260
   14SAPS   C35 1820   3.170   1.682   6.842 -0.1930  0.2847 -0.6018
   14SAPS   H5X 1821   3.102   1.767   6.867  0.3705  0.3414  0.8952
   14SAPS   H5Y 1822   3.274   1.708   6.872  0.5325 -1.5286 -1.4195
   14SAPS   C36 1823   3.126   1.566   6.931 -0.2610 -0.0035 -0.0566
   14SAPS   H6X 1824   3.200   1.483   6.931 -1.5771 -1.2259 -0.8961
   14SAPS   H6Y 1825   3.024   1.525   6.912 -0.5535  0.2960  0.7972
   14SAPS   C37 1826   3.136   1.609   7.080  0.1484 -0.2344 -0.0044
   14SAPS   H7X 1827   3.236   1.655   7.093 -0.8162  1.5278  1.6647
   14SAPS   H7Y 1828   3.155   1.512   7.131 -0.0457  1.0125  2.5744
   14SAPS   C38 1829   3.020   1.690   7.126 -0.3949  0.4113  0.2276
   14SAPS   H8X 1830   2.937   1.629   7.083 -0.1821  1.0654 -1.1579
   14SAPS   H8Y 1831   3.038   1.782   7.068 -1.0216 -1.4769 -3.2278
   14SAPS   C39 1832   3.020   1.720   7.275 -0.3618  0.9582 -0.9134
   14SAPS   H9X 1833   2.951   1.801   7.306 -1.9995 -0.6586 -0.1179
   14SAPS   H9Y 1834   3.126   1.737   7.303 -0.7961  0.1377  1.5165
   14SAPS  C310 1835   2.993   1.593   7.351  0.1114 -0.7623 -0.9043
   14SAPS  H10X 1836   3.056   1.507   7.320 -1.1039 -2.1145  0.1729
   14SAPS  H10Y 1837   2.892   1.550   7.334 -0.5698  0.3770  0.1240
   14SAPS  C311 1838   3.006   1.629   7.505 -0.2825  0.1603  0.6475
   14SAPS  H11X 1839   3.088   1.703   7.519 -0.2302  0.0596  0.8845
   14SAPS  H11Y 1840   3.037   1.536   7.558  1.0242  2.0637  3.4700
   14SAPS  C312 1841   2.877   1.679   7.563 -0.3984 -0.3329  0.1950
   14SAPS  H12X 1842   2.798   1.642   7.494 -1.0249  0.7786  0.2955
   14SAPS  H12Y 1843   2.886   1.788   7.544  1.3582 -0.5640 -0.5697
   14SAPS  C313 1844   2.852   1.633   7.704 -0.0153 -0.7950 -0.3989
   14SAPS  H13X 1845   2.846   1.522   7.707  0.7257 -0.8237  0.1667
   14SAPS  H13Y 1846   2.749   1.673   7.719  0.9586  1.0289  2.2277
   14SAPS  C314 1847   2.957   1.689   7.807  0.4047  0.3753 -0.4141
   14SAPS  H14X 1848   2.935   1.797   7.791 -0.1034  0.5148  1.0507
   14SAPS  H14Y 1849   3.061   1.666   7.778  0.0117 -0.2750 -1.3613
   14SAPS  C315 1850   2.931   1.644   7.950 -0.4777  1.3052 -0.4003
   14SAPS  H15X 1851   3.011   1.700   8.001  1.7406 -1.3991 -0.6635
   14SAPS  H15Y 1852   2.949   1.534   7.957 -1.9535  1.1041  0.5824
   14SAPS  C316 1853   2.795   1.675   8.003  0.5417  0.3420 -0.2643
   14SAPS  H16X 1854   2.785   1.626   8.103  0.6420  0.3602 -0.2446
   14SAPS  H16Y 1855   2.727   1.627   7.930  0.3743  1.9624 -1.2183
   14SAPS  C317 1856   2.751   1.817   8.002 -0.0200  0.2093  0.4581
   14SAPS  H17X 1857   2.649   1.804   8.043  0.1710 -0.6689  0.6852
   14SAPS  H17Y 1858   2.728   1.852   7.900 -1.3465 -0.7769  0.3889
   14SAPS  C318 1859   2.838   1.915   8.084 -0.1621 -0.4173 -0.2078
   14SAPS  H18X 1860   2.929   1.953   8.034 -1.0689  2.6091  0.2766
   14SAPS  H18Y 1861   2.862   1.860   8.178 -1.8225 -1.5589 -0.3929
   14SAPS  H18Z 1862   2.781   2.007   8.106  0.6815  0.0596  0.0229
   15SAPS     N 1863   2.435   5.977   5.660 -0.1508 -0.2594 -0.4962
   15SAPS   HN1 1864   2.478   6.068   5.685  1.8812 -0.4675 -2.8374
   15SAPS   HN2 1865   2.484   5.932   5.580  1.3250  0.1569  0.1541
   15SAPS   HN3 1866   2.337   5.997   5.630 -0.4948  0.1639  0.8617
   15SAPS   C12 1867   2.421   5.893   5.781  0.0479  0.1540  0.1048
   15SAPS  H12A 1868   2.391   5.797   5.740  1.2325  0.7001 -2.2307
   15SAPS   C13 1869   2.543   5.886   5.876  0.4668 -0.0512 -1.1456
   15SAPS  O13A 1870   2.650   5.945   5.848  0.3014 -0.3173 -0.2974
   15SAPS  O13B 1871   2.531   5.814   5.980 -0.5025 -0.1490  0.1984
   15SAPS   C11 1872   2.312   5.957   5.868 -0.0684 -0.6751 -0.7460
   15SAPS  H11A 1873   2.343   6.054   5.913 -2.2871  0.0226 -0.5795
   15SAPS  H11B 1874   2.307   5.897   5.962  0.5001 -0.7675 -0.7695
   15SAPS     P 1875   2.073   5.873   5.816  0.1241 -0.5613  0.0159
   15SAPS   O13 1876   1.944   5.947   5.774 -0.5295 -0.3941 -0.0700
   15SAPS   O14 1877   2.104   5.755   5.733  0.4316  0.1940 -0.2457
   15SAPS   O12 1878   2.189   5.976   5.802 -0.7520  0.7064  0.3330
   15SAPS   O11 1879   2.071   5.833   5.967 -0.2851 -0.5924 -0.0840
   15SAPS    C1 1880   2.090   5.697   6.007  0.3533  0.1919  1.3164
   15SAPS    HA 1881   1.995   5.642   5.990  0.5186  1.0218 -3.6171
   15SAPS    HB 1882   2.168   5.644   5.949  0.2997 -0.2444  1.6325
   15SAPS    C2 1883   2.120   5.697   6.163  0.1011 -0.1398 -0.0139
   15SAPS    HS 1884   2.133   5.591   6.192  0.9598  0.1862  0.8805
   15SAPS   O21 1885   2.005   5.758   6.228 -0.5552  0.6134  0.3715
   15SAPS   C21 1886   1.965   5.712   6.351  0.1971  0.6721 -0.3056
   15SAPS   O22 1887   2.036   5.641   6.416 -0.0144  0.3965  0.0347
   15SAPS   C22 1888   1.836   5.764   6.396 -0.0996  0.0728  0.6928
   15SAPS   H2R 1889   1.847   5.872   6.375  3.4266 -0.4999 -1.1323
   15SAPS   H2S 1890   1.764   5.724   6.322 -0.5855 -2.6325  2.4585
   15SAPS    C3 1891   2.255   5.780   6.196  0.6463 -0.8798  0.1945
   15SAPS    HX 1892   2.232   5.886   6.172 -1.3604 -1.0718  1.0396
   15SAPS    HY 1893   2.334   5.743   6.127 -1.2710 -2.0964 -1.4869
   15SAPS   O31 1894   2.292   5.799   6.331  0.3689  0.2345  0.1928
   15SAPS   C31 1895   2.327   5.695   6.391 -0.6021  0.6626  0.0873
   15SAPS   O32 1896   2.323   5.577   6.357 -0.0811  0.1222  0.1384
   15SAPS   C32 1897   2.420   5.744   6.511 -0.7204 -0.3285  0.1920
   15SAPS   H2X 1898   2.427   5.855   6.508  2.1511 -0.4568 -1.5673
   15SAPS   H2Y 1899   2.519   5.699   6.489 -0.8716 -0.2128 -0.7626
   15SAPS   C23 1900   1.787   5.735   6.538  0.6062  0.1947 -0.3481
   15SAPS   H3R 1901   1.873   5.733   6.608  1.3257 -0.7258 -1.2320
   15SAPS   H3S 1902   1.734   5.638   6.536  2.5419 -0.9291  0.0067
   15SAPS   C24 1903   1.679   5.830   6.592 -0.0571  0.4138  0.3853
   15SAPS   H4R 1904   1.739   5.906   6.647 -1.4769  0.1508  2.4297
   15SAPS   H4S 1905   1.632   5.780   6.679  0.9228  1.1951  1.3909
   15SAPS   C25 1906   1.571   5.884   6.499 -1.1697  0.7660  0.0261
   15SAPS   H5R 1907   1.610   5.894   6.397 -1.6767  3.4096  0.0229
   15SAPS   C26 1908   1.454   5.928   6.523 -0.2596  0.2094  0.2377
   15SAPS   H6R 1909   1.393   5.966   6.440 -0.9934 -2.9932 -0.8313
   15SAPS   C27 1910   1.380   5.923   6.656  0.0925  0.2887  0.1409
   15SAPS   H7R 1911   1.447   5.882   6.734 -0.6420 -2.0019 -0.3594
   15SAPS   H7S 1912   1.302   5.845   6.640  0.7544 -0.1716 -0.9368
   15SAPS   C28 1913   1.322   6.054   6.687  0.4768  0.3194 -1.4162
   15SAPS   H8R 1914   1.283   6.105   6.599  2.5613 -0.3567 -2.8045
   15SAPS   C29 1915   1.307   6.108   6.811 -0.1750  0.7335 -0.0436
   15SAPS   H9R 1916   1.263   6.209   6.808  1.7702  1.6587 -3.9510
   15SAPS  C210 1917   1.355   6.061   6.945 -0.0975 -0.3813 -0.0752
   15SAPS  H10R 1918   1.334   5.953   6.963 -1.4316  0.4030  4.5774
   15SAPS  H10S 1919   1.317   6.118   7.033  3.9512  0.3644  1.4006
   15SAPS  C211 1920   1.499   6.091   6.946  0.1572 -0.7622 -0.3197
   15SAPS  H11R 1921   1.545   6.047   6.856  0.3878  1.7503 -1.5155
   15SAPS  C212 1922   1.574   6.178   7.025 -0.2594  0.5807 -1.0271
   15SAPS  H12R 1923   1.677   6.199   6.992 -0.8058  1.4741 -2.2343
   15SAPS  C213 1924   1.526   6.264   7.146 -0.3921  0.0506  0.0552
   15SAPS  H13R 1925   1.603   6.254   7.226  0.9976  3.9350 -0.5625
   15SAPS  H13S 1926   1.429   6.220   7.178 -2.0675  1.3520 -2.8374
   15SAPS  C214 1927   1.520   6.411   7.117  0.2135 -0.3109 -0.3108
   15SAPS  H14R 1928   1.514   6.439   7.011  0.0471 -1.5140 -0.6311
   15SAPS  C215 1929   1.528   6.509   7.210 -0.1819  0.6209 -0.6075
   15SAPS  H15R 1930   1.528   6.616   7.183 -1.4400  0.2957 -2.0244
   15SAPS  C216 1931   1.519   6.487   7.361 -0.1539 -0.0274  0.3740
   15SAPS  H16R 1932   1.613   6.529   7.404  2.0677 -2.2401 -1.9585
   15SAPS  H16S 1933   1.512   6.386   7.405  1.8299  0.3669  1.7334
   15SAPS  C217 1934   1.411   6.590   7.402 -0.3795  0.5154  0.0333
   15SAPS  H17R 1935   1.312   6.583   7.351 -1.0162 -0.4705  1.3524
   15SAPS  H17S 1936   1.452   6.692   7.387  1.9156 -0.2159  1.0021
   15SAPS  C218 1937   1.396   6.584   7.553  0.2326 -0.0856 -1.1942
   15SAPS  H18R 1938   1.324   6.661   7.587  0.8637  0.5407 -1.2609
   15SAPS  H18S 1939   1.487   6.610   7.610  1.0585 -1.4534 -1.8487
   15SAPS  C219 1940   1.341   6.453   7.609 -0.4988 -0.6566  0.1628
   15SAPS  H19R 1941   1.392   6.361   7.574  0.5420  0.3400 -1.0217
   15SAPS  H19S 1942   1.234   6.451   7.578  0.1984  1.2057 -2.7021
   15SAPS  C220 1943   1.341   6.460   7.763  0.3099 -0.1855 -0.2629
   15SAPS  H20R 1944   1.266   6.386   7.799 -0.3151  0.6450  0.1506
   15SAPS  H20S 1945   1.299   6.554   7.803  1.2056 -0.1531  0.6750
   15SAPS  H20T 1946   1.441   6.444   7.810  0.2271  2.4112  0.9725
   15SAPS   C33 1947   2.355   5.704   6.650 -0.4419  0.1019 -0.0521
   15SAPS   H3X 1948   2.349   5.593   6.660 -1.3337  0.2482  1.3460
   15SAPS   H3Y 1949   2.256   5.754   6.658 -0.9366 -0.1224 -3.3010
   15SAPS   C34 1950   2.438   5.736   6.776  0.4542 -0.3108  0.8451
   15SAPS   H4X 1951   2.536   5.686   6.770  0.6242  0.1832 -1.1266
   15SAPS   H4Y 1952   2.372   5.697   6.857  0.1252  2.6337  2.1488
   15SAPS   C35 1953   2.461   5.884   6.806 -0.0816  0.4094  0.3695
   15SAPS   H5X 1954   2.362   5.936   6.807 -1.1817 -1.5910  1.4108
   15SAPS   H5Y 1955   2.509   5.923   6.714  0.3525 -0.3349  0.2719
   15SAPS   C36 1956   2.531   5.920   6.933 -0.0015 -0.0050 -0.2665
   15SAPS   H6X 1957   2.505   6.022   6.967 -0.9183 -1.0182  2.2944
   15SAPS   H6Y 1958   2.639   5.921   6.905 -0.4887 -0.5358 -2.3819
   15SAPS   C37 1959   2.497   5.830   7.052 -0.4345  0.2730 -0.0779
   15SAPS   H7X 1960   2.494   5.724   7.018 -2.6006  0.3519 -0.2248
   15SAPS   H7Y 1961   2.390   5.831   7.081 -0.2587  0.0603  0.6081
   15SAPS   C38 1962   2.574   5.884   7.177  0.0111  0.5703  0.6827
   15SAPS   H8X 1963   2.532   5.986   7.190  0.2722  0.5741  1.5161
   15SAPS   H8Y 1964   2.684   5.878   7.161  0.3479 -0.9749  3.1418
   15SAPS   C39 1965   2.523   5.819   7.305 -0.1457 -0.1179  1.2246
   15SAPS   H9X 1966   2.561   5.715   7.305 -0.0712 -0.0926  0.8625
   15SAPS   H9Y 1967   2.412   5.817   7.301 -0.1240 -2.2072 -1.5584
   15SAPS  C310 1968   2.578   5.889   7.430 -0.9662  0.1061  0.2560
   15SAPS  H10X 1969   2.545   5.995   7.436 -1.6865 -0.1084  0.1405
   15SAPS  H10Y 1970   2.689   5.888   7.433 -0.9740  0.0245  1.9159
   15SAPS  C311 1971   2.529   5.809   7.549 -0.4766  0.6809  0.4681
   15SAPS  H11X 1972   2.548   5.700   7.537 -2.5000  0.4826 -1.4395
   15SAPS  H11Y 1973   2.418   5.803   7.546 -0.5085  0.2971  1.7308
   15SAPS  C312 1974   2.586   5.865   7.677 -0.7487 -1.1078  0.0108
   15SAPS  H12X 1975   2.576   5.976   7.680  1.1957 -0.9034  0.5952
   15SAPS  H12Y 1976   2.697   5.860   7.673 -0.7241 -2.4251  1.4828
   15SAPS  C313 1977   2.531   5.811   7.804 -0.3368  0.1361  0.3578
   15SAPS  H13X 1978   2.572   5.710   7.821  1.8913  0.8436 -0.4628
   15SAPS  H13Y 1979   2.422   5.798   7.785 -0.0324 -1.3748 -0.4612
   15SAPS  C314 1980   2.570   5.899   7.929  0.0313  0.1698 -1.1479
   15SAPS  H14X 1981   2.532   6.003   7.916 -1.8378 -0.6412 -2.8597
   15SAPS  H14Y 1982   2.680   5.915   7.930 -0.1042  1.4905  1.7730
   15SAPS  C315 1983   2.517   5.847   8.056  0.1150  0.0857  0.0453
   15SAPS  H15X 1984   2.409   5.826   8.041  0.1342 -0.3856  0.5209
   15SAPS  H15Y 1985   2.528   5.931   8.128 -0.2209 -0.9738  1.3886
   15SAPS  C316 1986   2.596   5.721   8.096 -0.4563 -0.0515  0.3543
   15SAPS  H16X 1987   2.696   5.751   8.134 -1.2052  0.8309  1.6973
   15SAPS  H16Y 1988   2.611   5.662   8.003 -1.8943  1.2428 -0.7665
   15SAPS  C317 1989   2.528   5.612   8.180 -0.3547 -0.5015  0.1109
   15SAPS  H17X 1990   2.600   5.528   8.181 -1.8701 -1.9007 -1.5341
   15SAPS  H17Y 1991   2.431   5.585   8.133 -1.1046  1.1429  0.6243
   15SAPS  C318 1992   2.500   5.654   8.321 -0.6273 -0.1542 -0.6553
   15SAPS  H18X 1993   2.454   5.754   8.336  0.7823  0.6699 -1.5588
   15SAPS  H18Y 1994   2.602   5.664   8.365 -0.2811 -0.5993 -1.3448
   15SAPS  H18Z 1995   2.439   5.580   8.377 -2.1033  2.5105  1.5176
   16SAPS     N 1996   4.552   5.513   6.212 -0.0067  0.0386  0.3831
   16SAPS   HN1 1997   4.585   5.550   6.303 -0.7124 -1.6139  1.3440
   16SAPS   HN2 1998   4.452   5.543   6.203  0.1903  0.6032 -0.0113
   16SAPS   HN3 1999   4.556   5.410   6.212  1.4697  0.0367  2.6634
   16SAPS   C12 2000   4.626   5.572   6.094 -0.0160 -0.0067  0.5304
   16SAPS  H12A 2001   4.723   5.523   6.099 -0.2080 -0.3936  0.5470
   16SAPS   C13 2002   4.569   5.541   5.945  0.1848 -0.8413  0.3544
   16SAPS  O13A 2003   4.471   5.460   5.942  0.0341 -0.4790  0.5916
   16SAPS  O13B 2004   4.615   5.601   5.845 -0.0220 -0.3634  0.2898
   16SAPS   C11 2005   4.654   5.720   6.109 -0.2609 -0.3526  0.2901
   16SAPS  H11A 2006   4.559   5.778   6.114  0.5648  1.0081  0.4896
   16SAPS  H11B 2007   4.712   5.755   6.021 -2.3751  2.5631 -0.1041
   16SAPS     P 2008   4.688   5.798   6.363  0.1802  0.1298 -0.2857
   16SAPS   O13 2009   4.623   5.684   6.431  0.1265 -0.0797  0.5592
   16SAPS   O14 2010   4.813   5.853   6.425  0.1068  0.1397  0.2886
   16SAPS   O12 2011   4.733   5.744   6.222 -0.1054  0.1039 -0.0470
   16SAPS   O11 2012   4.586   5.909   6.322 -0.0546  0.2217 -0.1455
   16SAPS    C1 2013   4.449   5.907   6.346 -0.1540  0.1428 -0.1957
   16SAPS    HA 2014   4.399   5.956   6.260  1.4412  3.3882  0.5652
   16SAPS    HB 2015   4.411   5.804   6.361  1.6213 -0.8011 -1.8154
   16SAPS    C2 2016   4.416   5.994   6.471 -0.0084  0.4999 -0.6069
   16SAPS    HS 2017   4.462   6.095   6.461 -1.7334  1.4656  0.7900
   16SAPS   O21 2018   4.454   5.924   6.588 -0.2109 -0.4583  0.1741
   16SAPS   C21 2019   4.506   5.989   6.686 -0.1200  0.0609 -0.5536
   16SAPS   O22 2020   4.544   6.104   6.684 -0.4697  0.6554 -0.0883
   16SAPS   C22 2021   4.522   5.896   6.812  0.4827  0.2921 -0.6937
   16SAPS   H2R 2022   4.421   5.852   6.826  0.3151  0.8806  0.0375
   16SAPS   H2S 2023   4.589   5.813   6.782  0.0488 -0.0752 -0.6587
   16SAPS    C3 2024   4.259   6.021   6.476 -0.1886  0.3504 -0.0157
   16SAPS    HX 2025   4.210   5.927   6.510 -0.2940 -0.3687 -2.0051
   16SAPS    HY 2026   4.223   6.031   6.371  0.4548  1.5551 -0.1436
   16SAPS   O31 2027   4.221   6.127   6.572  0.0476  0.0476  0.2461
   16SAPS   C31 2028   4.237   6.244   6.525  0.2188 -0.2374  0.0521
   16SAPS   O32 2029   4.267   6.281   6.413  0.1653 -0.0172  0.1604
   16SAPS   C32 2030   4.249   6.332   6.650 -0.3455  0.2601  0.3044
   16SAPS   H2X 2031   4.278   6.434   6.617  1.1715  0.1041  1.0718
   16SAPS   H2Y 2032   4.339   6.292   6.702  2.3029  2.8570 -1.9336
   16SAPS   C23 2033   4.549   5.969   6.951  0.0538  0.7687  0.3818
   16SAPS   H3R 2034   4.482   6.058   6.955 -0.0605  0.7112 -0.1754
   16SAPS   H3S 2035   4.656   6.002   6.950  0.6992 -1.1680  1.7445
   16SAPS   C24 2036   4.534   5.870   7.069  0.2293 -0.0104 -0.2335
   16SAPS   H4R 2037   4.599   5.894   7.155 -1.0356 -1.7206  1.2804
   16SAPS   H4S 2038   4.543   5.764   7.036 -0.1788 -0.6487  1.5890
   16SAPS   C25 2039   4.397   5.869   7.129 -0.1185 -0.4194  0.1884
   16SAPS   H5R 2040   4.310   5.875   7.061 -0.3483  0.6755  0.5597
   16SAPS   C26 2041   4.367   5.864   7.256  0.9100  0.0010 -0.2834
   16SAPS   H6R 2042   4.260   5.857   7.281  1.4987  0.0551  2.6308
   16SAPS   C27 2043   4.459   5.863   7.379  0.8953 -0.2005  0.2242
   16SAPS   H7R 2044   4.566   5.868   7.350  1.0079 -1.8563  0.2063
   16SAPS   H7S 2045   4.430   5.774   7.439  1.5116 -0.2927  0.3902
   16SAPS   C28 2046   4.432   5.985   7.461  0.1277  0.1374  0.6585
   16SAPS   H8R 2047   4.404   6.061   7.387  1.4946 -1.6431 -1.8737
   16SAPS   C29 2048   4.428   6.016   7.595 -0.2923 -0.2482 -1.4610
   16SAPS   H9R 2049   4.411   6.119   7.631 -1.3359 -0.9165  0.1196
   16SAPS  C210 2050   4.446   5.923   7.713  0.2799  0.5061 -0.0491
   16SAPS  H10R 2051   4.419   5.972   7.809  1.1149  1.2304 -0.1694
   16SAPS  H10S 2052   4.553   5.894   7.719  0.4681  1.0736 -0.6300
   16SAPS  C211 2053   4.352   5.809   7.703 -0.1220 -0.7713  0.1446
   16SAPS  H11R 2054   4.381   5.744   7.619 -0.6427  1.0812 -1.5507
   16SAPS  C212 2055   4.237   5.782   7.777  0.4918  0.4033  0.4624
   16SAPS  H12R 2056   4.176   5.701   7.736  1.6773  0.3976 -1.4011
   16SAPS  C213 2057   4.179   5.848   7.897 -0.7399 -0.0596 -0.3219
   16SAPS  H13R 2058   4.068   5.850   7.898 -0.7723  1.4238 -2.1831
   16SAPS  H13S 2059   4.193   5.957   7.879  1.5003 -0.6522 -2.7788
   16SAPS  C214 2060   4.226   5.805   8.034 -0.1955  0.1020 -0.1721
   16SAPS  H14R 2061   4.332   5.824   8.054 -0.5512  1.1186  0.8946
   16SAPS  C215 2062   4.151   5.751   8.132  0.2077 -0.3024 -0.6537
   16SAPS  H15R 2063   4.193   5.723   8.230 -2.6386 -2.1413  0.1693
   16SAPS  C216 2064   4.001   5.728   8.122  0.1963 -0.5672 -0.0805
   16SAPS  H16R 2065   3.946   5.798   8.055 -1.2957 -1.2191  0.4051
   16SAPS  H16S 2066   3.969   5.767   8.221 -1.4588 -1.1725 -0.3472
   16SAPS  C217 2067   3.969   5.573   8.100 -0.5745  0.1652  0.2384
   16SAPS  H17R 2068   3.994   5.527   8.198 -2.0348 -1.2393 -0.0149
   16SAPS  H17S 2069   4.028   5.528   8.018 -1.5003 -2.8389  1.1087
   16SAPS  C218 2070   3.821   5.540   8.064 -0.1135  0.0049  0.4610
   16SAPS  H18R 2071   3.794   5.605   7.979  0.2289  3.2443  2.6427
   16SAPS  H18S 2072   3.755   5.570   8.148 -1.2974  0.1530 -0.5077
   16SAPS  C219 2073   3.787   5.389   8.042 -0.0244  0.1519  0.4622
   16SAPS  H19R 2074   3.677   5.373   8.051  0.0801  0.3251  2.3344
   16SAPS  H19S 2075   3.830   5.326   8.123 -0.5161  0.5646  1.0569
   16SAPS  C220 2076   3.825   5.338   7.899 -0.0155  0.5680 -0.9173
   16SAPS  H20R 2077   3.774   5.409   7.831  2.1527  1.7469 -1.3816
   16SAPS  H20S 2078   3.783   5.235   7.900  0.8189  0.2280 -0.3848
   16SAPS  H20T 2079   3.927   5.338   7.857 -0.3136  0.2447 -1.6570
   16SAPS   C33 2080   4.122   6.352   6.731 -0.4506 -0.7034 -0.6054
   16SAPS   H3X 2081   4.054   6.264   6.737 -0.1613 -0.9792 -1.2298
   16SAPS   H3Y 2082   4.062   6.434   6.687  1.1107  1.3372  0.8999
   16SAPS   C34 2083   4.149   6.380   6.879  0.1778  0.5303  0.1490
   16SAPS   H4X 2084   4.076   6.456   6.914  1.4468  3.1187 -2.3413
   16SAPS   H4Y 2085   4.251   6.424   6.879 -0.7942  3.0502  1.9957
   16SAPS   C35 2086   4.161   6.259   6.970 -0.5988  0.1537 -0.5301
   16SAPS   H5X 2087   4.244   6.196   6.934  0.8954  2.2948 -1.0308
   16SAPS   H5Y 2088   4.063   6.207   6.963 -0.1501 -1.1114  1.5825
   16SAPS   C36 2089   4.174   6.308   7.119 -0.5858 -0.0590 -0.0391
   16SAPS   H6X 2090   4.068   6.331   7.144 -1.4956 -2.6654 -1.2338
   16SAPS   H6Y 2091   4.238   6.399   7.119 -0.0616 -0.4267  0.4755
   16SAPS   C37 2092   4.219   6.201   7.219 -0.2116 -0.2768 -0.1962
   16SAPS   H7X 2093   4.319   6.166   7.184 -0.4621 -0.9023 -0.3041
   16SAPS   H7Y 2094   4.158   6.108   7.224  1.1897 -1.1841  2.6791
   16SAPS   C38 2095   4.210   6.264   7.359 -0.3408  0.3218 -0.4839
   16SAPS   H8X 2096   4.231   6.373   7.353 -0.2338  0.2959 -0.5772
   16SAPS   H8Y 2097   4.285   6.215   7.425  0.8556  1.8877 -0.6254
   16SAPS   C39 2098   4.074   6.253   7.429  0.5930  0.2949 -0.0159
   16SAPS   H9X 2099   4.062   6.150   7.468 -0.5665 -0.2327 -1.6668
   16SAPS   H9Y 2100   3.986   6.275   7.365 -0.0586 -1.1669  0.3484
   16SAPS  C310 2101   4.064   6.335   7.562  0.1658  0.3881 -0.2250
   16SAPS  H10X 2102   4.033   6.438   7.536  0.2245 -0.0974 -2.4299
   16SAPS  H10Y 2103   4.164   6.349   7.610 -0.2880  0.1780  0.7958
   16SAPS  C311 2104   3.973   6.258   7.668  0.1081  0.4399  0.7356
   16SAPS  H11X 2105   4.011   6.153   7.665 -1.7569 -0.2565 -0.4943
   16SAPS  H11Y 2106   3.867   6.264   7.634  0.9079  4.2432 -1.5970
   16SAPS  C312 2107   3.975   6.321   7.808 -0.2537 -0.0207 -0.8455
   16SAPS  H12X 2108   3.940   6.427   7.807 -1.4174 -0.3559  0.5449
   16SAPS  H12Y 2109   4.076   6.316   7.854  0.0427 -0.3212 -1.5265
   16SAPS  C313 2110   3.876   6.252   7.905 -0.2704  0.4989  0.1292
   16SAPS  H13X 2111   3.776   6.253   7.858 -0.3932  1.4875  0.3886
   16SAPS  H13Y 2112   3.876   6.305   8.003  1.5715  0.8798 -0.0266
   16SAPS  C314 2113   3.903   6.111   7.939  0.4920 -0.2375 -0.4688
   16SAPS  H14X 2114   4.008   6.107   7.976 -0.4950 -3.0916  2.5026
   16SAPS  H14Y 2115   3.895   6.038   7.855 -1.3183 -1.9385  1.0854
   16SAPS  C315 2116   3.805   6.061   8.041 -0.0379 -0.2744  0.1109
   16SAPS  H15X 2117   3.821   5.956   8.075 -1.5434  0.0812  2.1080
   16SAPS  H15Y 2118   3.701   6.062   8.003  0.6399  1.0513 -1.9282
   16SAPS  C316 2119   3.819   6.140   8.175  0.2475 -0.0487  0.1982
   16SAPS  H16X 2120   3.731   6.207   8.165 -0.2145 -0.4687  1.2919
   16SAPS  H16Y 2121   3.909   6.205   8.182  1.1668 -1.3791  1.1334
   16SAPS  C317 2122   3.805   6.053   8.296  0.1035  0.3487 -0.2901
   16SAPS  H17X 2123   3.882   5.973   8.300 -0.5686 -0.5032 -2.5820
   16SAPS  H17Y 2124   3.717   5.986   8.294  1.7854 -2.1680  2.1436
   16SAPS  C318 2125   3.814   6.136   8.421  0.3401 -0.2828  0.5134
   16SAPS  H18X 2126   3.906   6.197   8.427  0.6419 -0.4919 -1.3361
   16SAPS  H18Y 2127   3.804   6.079   8.515 -1.6787 -1.0414 -0.1076
   16SAPS  H18Z 2128   3.720   6.196   8.415  1.7958  2.0089 -1.9965
   17SAPC     N 2129   3.918   6.742  10.694 -0.2006 -0.2652 -0.1203
   17SAPC   C12 2130   3.998   6.814  10.584 -0.0562 -0.1435  0.2641
   17SAPC  H12A 2131   4.089   6.857  10.621 -0.3699  0.5460  0.2484
   17SAPC  H12B 2132   3.951   6.906  10.552 -0.8056 -0.8937 -0.9007
   17SAPC   C13 2133   4.007   6.632  10.751  0.1262 -0.0798  0.1401
   17SAPC  H13A 2134   4.102   6.675  10.780 -0.3591  1.1814 -0.0725
   17SAPC  H13B 2135   3.952   6.576  10.825 -1.7747  1.2373 -0.2225
   17SAPC  H13C 2136   4.026   6.565  10.668  0.2510  0.2266 -0.0797
   17SAPC   C14 2137   3.896   6.848  10.803  0.3957  0.0671  0.4081
   17SAPC  H14A 2138   3.839   6.930  10.762  1.1171 -0.1786 -1.1700
   17SAPC  H14B 2139   3.845   6.800  10.885  0.6151  1.2844  1.2795
   17SAPC  H14C 2140   3.988   6.889  10.841 -0.3848  1.1343  1.2257
   17SAPC   C15 2141   3.790   6.690  10.633  0.2726  0.2254  0.2876
   17SAPC  H15A 2142   3.816   6.613  10.563  1.0828 -0.1587  0.9946
   17SAPC  H15B 2143   3.723   6.655  10.710 -1.1090  0.4117 -0.7973
   17SAPC  H15C 2144   3.733   6.763  10.577  0.5218 -1.1295 -1.8335
   17SAPC   C11 2145   4.041   6.748  10.453 -0.6977 -0.4185 -0.0421
   17SAPC  H11A 2146   4.090   6.649  10.464  0.2130  0.0859  0.4994
   17SAPC  H11B 2147   4.120   6.807  10.403 -2.1065  1.9244  0.3317
   17SAPC     P 2148   3.852   6.840  10.303 -0.0623 -0.3402 -0.4291
   17SAPC   O13 2149   3.709   6.814  10.324  0.2751 -0.2006 -0.2202
   17SAPC   O14 2150   3.893   6.967  10.364  0.2045 -0.1899 -0.3028
   17SAPC   O12 2151   3.927   6.724  10.369 -0.4296  0.1801  0.1098
   17SAPC   O11 2152   3.892   6.836  10.151  0.2680 -0.5950 -0.2866
   17SAPC    C1 2153   3.888   6.720  10.075 -0.0913  0.5747 -0.0371
   17SAPC    HA 2154   3.967   6.722   9.997 -0.1121 -0.9229 -0.1212
   17SAPC    HB 2155   3.924   6.633  10.135 -2.4344 -0.1851  0.3715
   17SAPC    C2 2156   3.751   6.683  10.027  0.0463 -0.2349 -0.2535
   17SAPC    HS 2157   3.681   6.670  10.112 -0.0984  1.9103  0.0293
   17SAPC   O21 2158   3.759   6.558   9.947 -0.0414 -0.3041 -0.0607
   17SAPC   C21 2159   3.650   6.485   9.950  0.7477  1.0256  0.0637
   17SAPC   O22 2160   3.551   6.500  10.021  0.3662  0.1269 -0.2377
   17SAPC   C22 2161   3.678   6.358   9.869  0.5251 -0.1456  0.8622
   17SAPC   H2R 2162   3.747   6.382   9.785 -1.8669 -0.7010 -1.4096
   17SAPC   H2S 2163   3.731   6.285   9.934 -1.0298  0.2635  2.6690
   17SAPC    C3 2164   3.694   6.794   9.931 -0.0030  0.1199 -0.1626
   17SAPC    HX 2165   3.700   6.891   9.984 -0.5574  0.4194 -0.6473
   17SAPC    HY 2166   3.587   6.786   9.904 -0.1607 -0.8188  0.6605
   17SAPC   O31 2167   3.789   6.821   9.822 -0.1274 -0.0897 -0.3757
   17SAPC   C31 2168   3.743   6.807   9.694 -0.0016 -0.4132 -0.4232
   17SAPC   O32 2169   3.629   6.782   9.663 -0.0471 -0.7537 -0.5291
   17SAPC   C32 2170   3.856   6.845   9.597 -0.4081 -0.0385  0.1136
   17SAPC   H2X 2171   3.946   6.782   9.611 -1.3786 -1.2782  0.9844
   17SAPC   H2Y 2172   3.883   6.949   9.627 -0.5286 -0.4927  1.8647
   17SAPC   C23 2173   3.552   6.281   9.824 -0.1205 -0.0702 -0.3142
   17SAPC   H3R 2174   3.500   6.237   9.912  1.8315  2.1937  2.1419
   17SAPC   H3S 2175   3.596   6.188   9.783 -0.8785 -0.4463 -0.3065
   17SAPC   C24 2176   3.458   6.363   9.733  0.4684  0.4506  0.1631
   17SAPC   H4R 2177   3.408   6.433   9.804 -1.6632 -1.0927  0.3046
   17SAPC   H4S 2178   3.375   6.299   9.696  2.1024 -1.1093 -0.9231
   17SAPC   C25 2179   3.527   6.433   9.617 -0.5068 -0.1896 -0.0030
   17SAPC   H5R 2180   3.559   6.538   9.628 -1.0965 -0.1834  2.1175
   17SAPC   C26 2181   3.563   6.383   9.493  0.2583  0.4752 -0.4178
   17SAPC   H6R 2182   3.625   6.449   9.431  1.6109  0.8267  1.2238
   17SAPC   C27 2183   3.552   6.239   9.448 -0.3966 -0.2486 -0.0559
   17SAPC   H7R 2184   3.480   6.226   9.365 -0.7349  0.8925  0.0454
   17SAPC   H7S 2185   3.512   6.167   9.523 -1.5487 -1.9758 -2.2231
   17SAPC   C28 2186   3.688   6.174   9.412 -0.2821 -0.5946 -0.0317
   17SAPC   H8R 2187   3.754   6.148   9.496  0.9940  2.4009  0.0496
   17SAPC   C29 2188   3.723   6.161   9.276  0.1767 -0.5615 -0.2091
   17SAPC   H9R 2189   3.825   6.125   9.254  0.8145  1.3780 -0.6142
   17SAPC  C210 2190   3.641   6.200   9.157 -0.0412  0.5756 -0.9260
   17SAPC  H10R 2191   3.617   6.308   9.171 -0.6228  0.3459 -0.0871
   17SAPC  H10S 2192   3.539   6.157   9.161 -0.2059  1.0247  1.8839
   17SAPC  C211 2193   3.712   6.179   9.026 -0.4892 -0.5081  1.0454
   17SAPC  H11R 2194   3.788   6.257   9.007 -2.3104  0.9844 -0.6049
   17SAPC  C212 2195   3.666   6.114   8.922 -0.3769 -0.0973 -0.8533
   17SAPC  H12R 2196   3.712   6.124   8.822  0.8501 -3.4383 -0.7429
   17SAPC  C213 2197   3.546   6.025   8.920  0.4137 -0.0772  0.4670
   17SAPC  H13R 2198   3.464   6.086   8.875  1.4746  0.2515 -1.1064
   17SAPC  H13S 2199   3.502   6.000   9.019 -1.3433  2.4881  0.4494
   17SAPC  C214 2200   3.544   5.890   8.847 -0.9275 -0.4160  0.1817
   17SAPC  H14R 2201   3.588   5.802   8.897  0.8459  0.3395  0.0239
   17SAPC  C215 2202   3.481   5.871   8.725 -0.0206  0.2128 -0.0497
   17SAPC  H15R 2203   3.472   5.767   8.688  0.1930 -0.1197  0.8231
   17SAPC  C216 2204   3.415   5.973   8.637  0.5323  1.0969 -0.7527
   17SAPC  H16R 2205   3.478   5.987   8.546 -0.2300 -0.0341 -1.4836
   17SAPC  H16S 2206   3.381   6.064   8.690  0.7938  1.8006 -1.7668
   17SAPC  C217 2207   3.285   5.922   8.575  0.3705 -0.1153  0.6863
   17SAPC  H17R 2208   3.228   6.007   8.532 -0.5706 -0.4270  1.2666
   17SAPC  H17S 2209   3.222   5.882   8.658 -0.7108  0.3373  0.1064
   17SAPC  C218 2210   3.307   5.828   8.454 -0.2489 -0.9157 -0.6219
   17SAPC  H18R 2211   3.365   5.738   8.488 -0.9175 -0.8301  0.8323
   17SAPC  H18S 2212   3.379   5.870   8.380 -0.1483  1.5421  0.7690
   17SAPC  C219 2213   3.181   5.786   8.385 -0.5218 -0.1998  1.2036
   17SAPC  H19R 2214   3.114   5.758   8.469 -0.5577 -1.3213  0.8090
   17SAPC  H19S 2215   3.187   5.688   8.334 -1.5284 -1.1021  2.7389
   17SAPC  C220 2216   3.116   5.904   8.296  0.5184  0.4712 -0.0244
   17SAPC  H20R 2217   3.028   5.846   8.262  1.2689 -0.2561 -0.7538
   17SAPC  H20S 2218   3.162   5.929   8.198  1.0114 -0.8522 -0.1537
   17SAPC  H20T 2219   3.102   5.996   8.357 -1.1668  1.6740 -2.0994
   17SAPC   C33 2220   3.811   6.844   9.446  0.2115 -0.8307  0.3797
   17SAPC   H3X 2221   3.872   6.920   9.392 -1.7585  0.4047 -0.2094
   17SAPC   H3Y 2222   3.705   6.876   9.446  0.3512 -0.2434  1.8822
   17SAPC   C34 2223   3.836   6.711   9.381  0.0865  0.8025  0.6447
   17SAPC   H4X 2224   3.768   6.643   9.436 -0.5308  0.4774 -0.4950
   17SAPC   H4Y 2225   3.940   6.675   9.396 -0.6285 -2.3516 -1.0761
   17SAPC   C35 2226   3.805   6.707   9.234 -0.0319 -0.7285 -0.1264
   17SAPC   H5X 2227   3.879   6.641   9.184 -0.8987 -2.1576  0.4371
   17SAPC   H5Y 2228   3.809   6.811   9.193 -1.8897 -0.8980 -0.8580
   17SAPC   C36 2229   3.674   6.632   9.203 -0.4405 -0.1777  0.1372
   17SAPC   H6X 2230   3.597   6.674   9.272 -0.8665  0.0475 -0.4670
   17SAPC   H6Y 2231   3.679   6.524   9.231 -0.9960 -0.5917 -1.2560
   17SAPC   C37 2232   3.628   6.642   9.058 -0.1306 -0.0065 -0.7079
   17SAPC   H7X 2233   3.687   6.570   8.996  0.9047 -0.0752  0.3218
   17SAPC   H7Y 2234   3.634   6.745   9.016 -0.3032  0.7983  1.1485
   17SAPC   C38 2235   3.483   6.585   9.055  0.1462  0.1680  0.1827
   17SAPC   H8X 2236   3.425   6.640   9.132 -1.1575  0.9503 -1.3206
   17SAPC   H8Y 2237   3.479   6.482   9.099 -1.2691  0.0206 -0.2479
   17SAPC   C39 2238   3.414   6.574   8.913  0.1740 -0.3555 -0.3226
   17SAPC   H9X 2239   3.434   6.666   8.855  0.7863  1.4606  2.5720
   17SAPC   H9Y 2240   3.305   6.572   8.934  0.0582  0.0262 -0.8621
   17SAPC  C310 2241   3.450   6.450   8.831  0.0315 -0.1286  0.3817
   17SAPC  H10X 2242   3.425   6.363   8.895 -0.2044  0.1788  0.7138
   17SAPC  H10Y 2243   3.558   6.458   8.808  0.0981 -0.4935  0.5680
   17SAPC  C311 2244   3.362   6.444   8.697  0.5151 -0.1768 -0.2444
   17SAPC  H11X 2245   3.359   6.546   8.653 -0.4346 -0.5345 -1.0415
   17SAPC  H11Y 2246   3.258   6.406   8.708 -0.8139  2.6751 -1.9054
   17SAPC  C312 2247   3.433   6.350   8.593 -0.6115 -0.3250 -0.1509
   17SAPC  H12X 2248   3.433   6.245   8.629  1.4253 -0.6579 -0.9925
   17SAPC  H12Y 2249   3.542   6.371   8.598 -0.6001 -0.5696  0.7789
   17SAPC  C313 2250   3.373   6.361   8.457  0.5788  0.9757  0.4998
   17SAPC  H13X 2251   3.373   6.466   8.418 -0.3739  0.5972 -0.5937
   17SAPC  H13Y 2252   3.265   6.334   8.452  0.7457  0.2580  0.6761
   17SAPC  C314 2253   3.440   6.266   8.356  0.0222 -0.5543  0.3366
   17SAPC  H14X 2254   3.450   6.159   8.384 -1.6961 -1.5872 -2.5128
   17SAPC  H14Y 2255   3.543   6.297   8.330  0.5233 -0.7476  2.0269
   17SAPC  C315 2256   3.355   6.261   8.224 -0.2793  0.5689 -0.2559
   17SAPC  H15X 2257   3.329   6.366   8.197  0.3028  1.3034  1.8267
   17SAPC  H15Y 2258   3.261   6.206   8.242 -0.1605 -0.0585 -1.4614
   17SAPC  C316 2259   3.415   6.181   8.114 -0.3448  0.5634  0.5057
   17SAPC  H16X 2260   3.426   6.074   8.140 -1.1180  0.3367 -0.0671
   17SAPC  H16Y 2261   3.517   6.220   8.094  0.0417  0.6014  2.3499
   17SAPC  C317 2262   3.338   6.182   7.982  0.0159 -0.3688 -0.6673
   17SAPC  H17X 2263   3.268   6.267   7.975  0.6083  0.0957 -1.1137
   17SAPC  H17Y 2264   3.276   6.090   7.973 -0.4774 -0.0757 -0.2867
   17SAPC  C318 2265   3.441   6.198   7.869 -0.0060 -0.3995  0.3059
   17SAPC  H18X 2266   3.513   6.113   7.868  1.8950  1.1037 -1.8254
   17SAPC  H18Y 2267   3.401   6.222   7.768  0.6427  0.3774  0.2228
   17SAPC  H18Z 2268   3.514   6.277   7.896 -0.6531 -0.6739  3.2229
   18SAPC     N 2269   3.158   3.753  10.863 -0.0299  0.5077 -0.5592
   18SAPC   C12 2270   3.302   3.702  10.859 -0.5875 -0.3431  0.6940
   18SAPC  H12A 2271   3.338   3.676  10.958  0.3823 -1.4302  0.0917
   18SAPC  H12B 2272   3.373   3.780  10.833 -1.5654  0.3611  0.0885
   18SAPC   C13 2273   3.148   3.860  10.972 -0.4191 -0.1205 -0.2490
   18SAPC  H13A 2274   3.197   3.953  10.947 -1.8375  0.2509 -1.9141
   18SAPC  H13B 2275   3.045   3.882  10.995 -0.6058 -1.8254  0.7159
   18SAPC  H13C 2276   3.194   3.822  11.062 -0.1068  2.6444  0.8476
   18SAPC   C14 2277   3.116   3.805  10.734 -0.5351 -0.4206 -0.3459
   18SAPC  H14A 2278   3.193   3.871  10.698 -0.4955 -0.7424 -0.8626
   18SAPC  H14B 2279   3.112   3.723  10.664  0.9915 -0.7820 -0.0370
   18SAPC  H14C 2280   3.016   3.845  10.725 -0.6181 -0.6374 -0.3827
   18SAPC   C15 2281   3.069   3.640  10.903 -0.2192  0.5159 -0.0646
   18SAPC  H15A 2282   3.095   3.595  10.998  1.6790  0.8936 -0.3601
   18SAPC  H15B 2283   2.967   3.674  10.911 -0.0869  1.7167 -2.5471
   18SAPC  H15C 2284   3.072   3.569  10.821 -2.3879  1.4257 -1.0050
   18SAPC   C11 2285   3.338   3.589  10.765 -0.4312  0.3966 -0.1885
   18SAPC  H11A 2286   3.254   3.518  10.751 -0.2426  0.4305 -1.6603
   18SAPC  H11B 2287   3.413   3.540  10.830 -1.1560  1.0913  1.2135
   18SAPC     P 2288   3.348   3.587  10.506  0.1273 -0.3255 -0.1651
   18SAPC   O13 2289   3.204   3.572  10.480 -0.2996  0.5073 -0.4781
   18SAPC   O14 2290   3.409   3.681  10.411  0.1381 -0.3074  0.1789
   18SAPC   O12 2291   3.382   3.648  10.645  0.0094 -0.3544  0.3740
   18SAPC   O11 2292   3.413   3.448  10.514 -0.7042  0.7528 -0.0629
   18SAPC    C1 2293   3.550   3.419  10.521  0.5197 -0.4936  0.2225
   18SAPC    HA 2294   3.610   3.513  10.514 -0.8332  0.2752 -3.0878
   18SAPC    HB 2295   3.588   3.372  10.614 -0.4710 -0.5658  0.5982
   18SAPC    C2 2296   3.593   3.342  10.394  0.4674  0.2472  0.0906
   18SAPC    HS 2297   3.701   3.352  10.369  0.3638  0.8485 -0.1341
   18SAPC   O21 2298   3.531   3.408  10.283  0.3031  0.5934 -0.4377
   18SAPC   C21 2299   3.588   3.520  10.232 -0.7330 -0.1908 -0.2143
   18SAPC   O22 2300   3.676   3.581  10.286  0.1461 -0.2474  0.5423
   18SAPC   C22 2301   3.523   3.549  10.100 -0.1492  0.6745 -0.6972
   18SAPC   H2R 2302   3.539   3.454  10.045 -0.7157 -0.5465  1.1501
   18SAPC   H2S 2303   3.415   3.570  10.116 -0.1785  0.0873 -0.0770
   18SAPC    C3 2304   3.557   3.187  10.405 -0.0723 -0.1039 -0.3154
   18SAPC    HX 2305   3.448   3.174  10.387 -0.1438  0.1394 -0.0663
   18SAPC    HY 2306   3.580   3.151  10.508 -0.5921  0.4862  0.0129
   18SAPC   O31 2307   3.632   3.111  10.305  0.8089  0.3293  0.4012
   18SAPC   C31 2308   3.641   2.978  10.340 -0.0573  0.3063 -0.0955
   18SAPC   O32 2309   3.590   2.932  10.443  0.0149  0.2402  0.0066
   18SAPC   C32 2310   3.700   2.899  10.223  0.0624 -0.3967  0.1072
   18SAPC   H2X 2311   3.704   2.791  10.247 -1.8466 -0.3434  0.8598
   18SAPC   H2Y 2312   3.802   2.938  10.202 -1.2596  2.5471 -1.4369
   18SAPC   C23 2313   3.595   3.671  10.020  0.3685  0.7582 -0.1167
   18SAPC   H3R 2314   3.702   3.657   9.992  0.1404 -2.8503  0.3735
   18SAPC   H3S 2315   3.594   3.756  10.092 -0.6556  1.8759 -1.4021
   18SAPC   C24 2316   3.510   3.694   9.894 -0.1367 -0.2707 -0.1472
   18SAPC   H4R 2317   3.404   3.700   9.926 -0.6727  1.5974 -2.0697
   18SAPC   H4S 2318   3.522   3.603   9.831  0.3903 -0.3953  0.1262
   18SAPC   C25 2319   3.536   3.823   9.825  0.8327 -0.1763 -0.5377
   18SAPC   H5R 2320   3.543   3.911   9.891  0.6332 -1.2168  0.9231
   18SAPC   C26 2321   3.545   3.838   9.694 -0.8030 -0.0947 -0.3910
   18SAPC   H6R 2322   3.569   3.936   9.650  0.5453 -0.0413  0.4054
   18SAPC   C27 2323   3.538   3.723   9.592 -0.8876  0.9690  0.4268
   18SAPC   H7R 2324   3.549   3.625   9.644 -1.7363  1.0525  0.7612
   18SAPC   H7S 2325   3.622   3.722   9.519  0.1657  0.5546  1.5919
   18SAPC   C28 2326   3.404   3.703   9.515  0.7007 -0.1102  0.0445
   18SAPC   H8R 2327   3.321   3.733   9.581  1.7549 -0.1162  1.4174
   18SAPC   C29 2328   3.381   3.644   9.394 -0.2691  0.2011 -0.2270
   18SAPC   H9R 2329   3.276   3.622   9.369 -0.2361 -1.6297  1.0306
   18SAPC  C210 2330   3.490   3.596   9.298 -0.4068 -0.3698 -0.5736
   18SAPC  H10R 2331   3.464   3.491   9.270  2.8578 -2.0004  1.8773
   18SAPC  H10S 2332   3.583   3.581   9.357 -1.2849 -1.2679  0.6404
   18SAPC  C211 2333   3.517   3.698   9.184  0.6117 -0.2561  0.0235
   18SAPC  H11R 2334   3.571   3.785   9.223  0.0987  0.1424 -0.1416
   18SAPC  C212 2335   3.500   3.694   9.050  0.9919  0.1065 -0.5237
   18SAPC  H12R 2336   3.542   3.778   8.994  2.6045 -0.7534 -0.6755
   18SAPC  C213 2337   3.445   3.576   8.970  0.5508  0.0982 -0.4695
   18SAPC  H13R 2338   3.405   3.493   9.033 -0.2409  1.9788  1.6501
   18SAPC  H13S 2339   3.531   3.527   8.919  0.8146  0.0982 -0.0305
   18SAPC  C214 2340   3.330   3.619   8.886  0.2538 -0.0625 -0.8483
   18SAPC  H14R 2341   3.286   3.719   8.891 -0.0530 -0.2399  0.1890
   18SAPC  C215 2342   3.288   3.543   8.785 -0.1084  0.6824 -0.2208
   18SAPC  H15R 2343   3.206   3.586   8.726  0.8910  1.7426 -0.8884
   18SAPC  C216 2344   3.337   3.407   8.736  0.5966  0.3866 -0.7746
   18SAPC  H16R 2345   3.433   3.379   8.784  2.0639  0.5759 -3.4475
   18SAPC  H16S 2346   3.347   3.407   8.626 -0.3225 -2.0545 -0.9237
   18SAPC  C217 2347   3.224   3.304   8.764 -0.4313  0.0288 -0.1104
   18SAPC  H17R 2348   3.124   3.315   8.716 -0.3901 -1.4786 -0.5914
   18SAPC  H17S 2349   3.205   3.314   8.874 -0.0234 -2.9306  0.3122
   18SAPC  C218 2350   3.269   3.168   8.728 -0.3334  0.2880  0.2768
   18SAPC  H18R 2351   3.362   3.142   8.783  0.5049  1.5587 -0.4869
   18SAPC  H18S 2352   3.307   3.158   8.624  0.2957 -1.1976  0.6266
   18SAPC  C219 2353   3.167   3.060   8.750 -0.1358  0.0513  0.3395
   18SAPC  H19R 2354   3.210   2.962   8.721 -0.9856 -0.3427  0.3918
   18SAPC  H19S 2355   3.091   3.075   8.671  0.6436  0.1106 -0.4053
   18SAPC  C220 2356   3.113   3.054   8.898 -0.5613  0.4247  0.6591
   18SAPC  H20R 2357   3.027   2.984   8.902 -1.1209  1.0792  0.3157
   18SAPC  H20S 2358   3.081   3.156   8.929  0.0503  0.2603  1.8629
   18SAPC  H20T 2359   3.199   3.026   8.962 -0.1630  0.0299 -0.0387
   18SAPC   C33 2360   3.612   2.913  10.099  0.2464 -0.1724 -0.2395
   18SAPC   H3X 2361   3.594   3.019  10.071 -2.4811 -0.6659 -0.5652
   18SAPC   H3Y 2362   3.509   2.881  10.125 -0.0487  0.9739  0.0678
   18SAPC   C34 2363   3.656   2.844   9.973 -0.0091 -0.0756 -0.1268
   18SAPC   H4X 2364   3.641   2.735   9.988 -2.0376 -0.0964 -1.8103
   18SAPC   H4Y 2365   3.764   2.860   9.955  0.8861 -1.9576  2.7363
   18SAPC   C35 2366   3.566   2.875   9.854 -0.7976  0.6131 -0.0271
   18SAPC   H5X 2367   3.561   2.986   9.847 -3.5205  0.4725 -1.6363
   18SAPC   H5Y 2368   3.468   2.834   9.887  0.8926 -1.8576  2.3916
   18SAPC   C36 2369   3.604   2.816   9.713  0.3107  0.3150 -0.8617
   18SAPC   H6X 2370   3.575   2.709   9.720 -2.2257  1.0245  1.2072
   18SAPC   H6Y 2371   3.715   2.823   9.708  0.4849 -1.3776 -0.0676
   18SAPC   C37 2372   3.541   2.884   9.601  0.0931  0.8415  1.0094
   18SAPC   H7X 2373   3.601   2.976   9.583  1.0325 -0.2328 -1.9183
   18SAPC   H7Y 2374   3.434   2.907   9.614 -0.0292  1.7898 -1.2418
   18SAPC   C38 2375   3.560   2.804   9.470 -0.0768  0.3853 -0.1986
   18SAPC   H8X 2376   3.490   2.717   9.481 -1.0392  1.3355  1.6088
   18SAPC   H8Y 2377   3.662   2.762   9.475 -0.7548 -1.8441 -2.4398
   18SAPC   C39 2378   3.536   2.882   9.344  0.1489  0.2050  0.9732
   18SAPC   H9X 2379   3.557   2.991   9.352  0.1954  0.1374  1.9635
   18SAPC   H9Y 2380   3.432   2.870   9.306 -0.4255  0.2398  2.4398
   18SAPC  C310 2381   3.627   2.824   9.226 -0.0758  0.4351  0.7333
   18SAPC  H10X 2382   3.597   2.718   9.214  1.2582  0.2723 -1.8328
   18SAPC  H10Y 2383   3.735   2.842   9.243 -0.0836  0.6224  0.5924
   18SAPC  C311 2384   3.589   2.873   9.080 -0.0989  0.8237 -0.4200
   18SAPC  H11X 2385   3.599   2.984   9.076  0.1116  0.9319  1.9130
   18SAPC  H11Y 2386   3.483   2.843   9.062  0.6163 -1.3487 -1.3411
   18SAPC  C312 2387   3.683   2.827   8.968 -0.3718  0.0419 -0.3151
   18SAPC  H12X 2388   3.698   2.717   8.966 -0.8218 -0.0312 -2.6503
   18SAPC  H12Y 2389   3.777   2.870   9.010 -0.6366 -0.2859  0.6270
   18SAPC  C313 2390   3.657   2.879   8.830  0.4793 -0.0133 -0.8055
   18SAPC  H13X 2391   3.634   2.987   8.828 -1.5735 -0.3646  0.4258
   18SAPC  H13Y 2392   3.560   2.840   8.792  0.5065 -2.0585  1.0406
   18SAPC  C314 2393   3.769   2.862   8.726 -0.6962 -0.6497  0.2681
   18SAPC  H14X 2394   3.771   2.755   8.697 -3.8979 -0.8454  0.3472
   18SAPC  H14Y 2395   3.862   2.888   8.780  0.5006  1.3116 -2.4991
   18SAPC  C315 2396   3.749   2.958   8.608  0.4575 -0.4833 -0.3233
   18SAPC  H15X 2397   3.754   3.055   8.661  1.0582 -1.9692  2.4990
   18SAPC  H15Y 2398   3.650   2.953   8.558  0.2742  2.9208 -0.4847
   18SAPC  C316 2399   3.855   2.948   8.499  0.5272  0.1808 -0.9072
   18SAPC  H16X 2400   3.845   2.845   8.456 -0.3268  0.2067 -0.8003
   18SAPC  H16Y 2401   3.956   2.960   8.544 -0.0305 -4.1121  2.1217
   18SAPC  C317 2402   3.829   3.054   8.395 -0.1641  0.1797  0.3433
   18SAPC  H17X 2403   3.803   3.148   8.449  0.6744  0.7882 -0.2874
   18SAPC  H17Y 2404   3.741   3.029   8.331 -0.2994  2.2298 -0.3488
   18SAPC  C318 2405   3.947   3.087   8.303  0.1532 -0.6585  0.1362
   18SAPC  H18X 2406   3.923   3.174   8.238  1.5828 -0.9489 -0.8302
   18SAPC  H18Y 2407   3.959   2.999   8.237 -1.3680 -1.4677  0.8862
   18SAPC  H18Z 2408   4.040   3.108   8.359  1.4331 -1.4459 -1.6201
   19SAPC     N 2409   1.038   5.544  10.387 -0.6957  0.1181  0.0198
   19SAPC   C12 2410   1.001   5.687  10.350  0.0931  0.1100  0.7255
   19SAPC  H12A 2411   0.919   5.679  10.281  2.5266  0.9949 -2.5044
   19SAPC  H12B 2412   1.075   5.730  10.285  0.3640 -0.1517  0.8539
   19SAPC   C13 2413   0.933   5.484  10.471  0.3184 -0.6381  1.1600
   19SAPC  H13A 2414   0.929   5.378  10.453  3.3328 -0.3599 -2.2394
   19SAPC  H13B 2415   0.953   5.497  10.576 -1.2001  1.6263  1.2363
   19SAPC  H13C 2416   0.842   5.531  10.437  1.4026 -0.5675 -1.9818
   19SAPC   C14 2417   1.055   5.468  10.254  0.1894 -0.0398 -0.6689
   19SAPC  H14A 2418   1.123   5.523  10.191  0.1976  0.6292 -0.0833
   19SAPC  H14B 2419   1.103   5.373  10.272  4.4270  1.8234 -0.9571
   19SAPC  H14C 2420   0.958   5.458  10.207 -0.3832  2.4438 -0.1648
   19SAPC   C15 2421   1.161   5.538  10.466  0.5170  0.9070  0.8975
   19SAPC  H15A 2422   1.185   5.437  10.498  0.9130  0.7321  0.0689
   19SAPC  H15B 2423   1.247   5.568  10.408  2.1234 -0.0588  2.6843
   19SAPC  H15C 2424   1.147   5.597  10.555 -0.1837 -1.3181  2.3528
   19SAPC   C11 2425   0.963   5.790  10.462 -0.1031 -0.1950 -0.2228
   19SAPC  H11A 2426   0.872   5.755  10.516  0.1727 -0.0945  0.3121
   19SAPC  H11B 2427   0.934   5.883  10.409  0.0110  0.8713  1.5078
   19SAPC     P 2428   1.196   5.902  10.522  0.4664 -0.2284  0.0707
   19SAPC   O13 2429   1.234   5.981  10.641  0.5776  0.5884 -0.5141
   19SAPC   O14 2430   1.305   5.836  10.450 -0.4882 -0.3454 -0.4676
   19SAPC   O12 2431   1.073   5.803  10.554 -0.0835 -0.1342  0.4429
   19SAPC   O11 2432   1.137   6.009  10.415 -0.2033 -0.1685  0.2520
   19SAPC    C1 2433   1.224   6.125  10.378  1.1637 -0.2079  1.1036
   19SAPC    HA 2434   1.166   6.217  10.403 -1.6263 -1.7146  0.5718
   19SAPC    HB 2435   1.321   6.129  10.432  1.1993 -1.5416  1.1714
   19SAPC    C2 2436   1.261   6.142  10.227 -0.5889  0.6207  0.0377
   19SAPC    HS 2437   1.318   6.237  10.215  0.0924  0.3377  0.9375
   19SAPC   O21 2438   1.142   6.150  10.149 -0.3272  0.2603 -0.6199
   19SAPC   C21 2439   1.053   6.242  10.170  0.0364 -0.2766  0.8613
   19SAPC   O22 2440   1.064   6.342  10.240  0.2144 -0.2165  0.1271
   19SAPC   C22 2441   0.923   6.209  10.087 -0.4792 -0.0849 -0.3714
   19SAPC   H2R 2442   0.916   6.291  10.013  1.4743  1.5577  1.1245
   19SAPC   H2S 2443   0.941   6.118  10.026 -1.9643 -1.0926  0.6403
   19SAPC    C3 2444   1.353   6.034  10.177 -0.1373  0.5596 -0.1373
   19SAPC    HX 2445   1.295   5.957  10.121 -0.8529 -0.3453  1.7619
   19SAPC    HY 2446   1.407   5.989  10.263 -2.6270 -0.7020  0.8856
   19SAPC   O31 2447   1.454   6.095  10.096 -0.1283  0.4107  0.1936
   19SAPC   C31 2448   1.547   6.010  10.064  0.1734 -0.4396  0.2766
   19SAPC   O32 2449   1.556   5.893  10.097  0.6773  0.0409  0.1670
   19SAPC   C32 2450   1.641   6.082   9.962  0.8283 -0.1717 -0.2140
   19SAPC   H2X 2451   1.723   6.124  10.025 -0.7507 -0.7103  2.3248
   19SAPC   H2Y 2452   1.575   6.159   9.916 -1.6398 -0.9393  1.8103
   19SAPC   C23 2453   0.800   6.181  10.179  0.2275  0.9364  0.1490
   19SAPC   H3R 2454   0.803   6.256  10.261  1.2956 -0.4338  1.4120
   19SAPC   H3S 2455   0.815   6.083  10.230  3.8970  0.3170 -1.8281
   19SAPC   C24 2456   0.679   6.179  10.097  0.2348  0.1115 -0.0439
   19SAPC   H4R 2457   0.671   6.282  10.055  0.2682 -0.1684 -0.7470
   19SAPC   H4S 2458   0.580   6.172  10.147 -0.2010  0.1976 -0.8746
   19SAPC   C25 2459   0.700   6.072   9.989 -0.0861 -0.4440 -0.0511
   19SAPC   H5R 2460   0.688   5.968  10.024  0.1512 -0.1472  0.9425
   19SAPC   C26 2461   0.694   6.101   9.854 -0.0799 -0.7820 -0.3620
   19SAPC   H6R 2462   0.724   6.026   9.779 -1.2463 -1.0706 -0.5694
   19SAPC   C27 2463   0.673   6.242   9.790 -0.3798 -0.6060  0.1778
   19SAPC   H7R 2464   0.726   6.322   9.846 -0.9608 -0.2608  0.2394
   19SAPC   H7S 2465   0.564   6.261   9.792 -0.5713 -0.8431 -2.7396
   19SAPC   C28 2466   0.724   6.264   9.648 -0.3275 -0.1683  0.1591
   19SAPC   H8R 2467   0.832   6.283   9.637 -0.5192  0.0842 -1.4233
   19SAPC   C29 2468   0.646   6.268   9.535  0.2782  0.3916 -0.3074
   19SAPC   H9R 2469   0.703   6.295   9.446  0.9704  3.1414  0.8764
   19SAPC  C210 2470   0.497   6.256   9.515  0.0213 -0.7209  0.0632
   19SAPC  H10R 2471   0.446   6.198   9.595 -0.0855  0.8597  1.1842
   19SAPC  H10S 2472   0.489   6.190   9.426 -0.3962 -0.7979  0.1541
   19SAPC  C211 2473   0.424   6.388   9.505 -0.4058 -0.1151  0.7146
   19SAPC  H11R 2474   0.495   6.471   9.519 -0.4444  0.0038  0.2276
   19SAPC  C212 2475   0.295   6.418   9.498 -0.1895  0.3180 -0.5039
   19SAPC  H12R 2476   0.246   6.516   9.485  1.3647  0.9671 -1.7227
   19SAPC  C213 2477   0.186   6.311   9.490 -0.4836 -0.0965 -0.4365
   19SAPC  H13R 2478   0.198   6.246   9.401 -1.4016  0.5110 -1.0212
   19SAPC  H13S 2479   0.093   6.365   9.463  1.2718  2.7512 -1.2713
   19SAPC  C214 2480   0.169   6.223   9.610  0.2365 -0.2678  0.7040
   19SAPC  H14R 2481   0.209   6.121   9.604 -1.5850 -1.1473  2.3868
   19SAPC  C215 2482   0.094   6.252   9.716 -0.0524 -0.5355 -0.0705
   19SAPC  H15R 2483   0.098   6.180   9.799 -0.5861 -1.9646 -1.2489
   19SAPC  C216 2484   0.012   6.380   9.733 -0.6271 -0.2174 -0.3608
   19SAPC  H16R 2485  -0.057   6.388   9.646 -1.3749 -0.9116  0.1573
   19SAPC  H16S 2486   0.070   6.474   9.731  0.8513 -0.9231  2.9428
   19SAPC  C217 2487  -0.087   6.363   9.848 -0.9922 -0.1625  0.4917
   19SAPC  H17R 2488  -0.146   6.273   9.821  1.8660 -1.3108 -2.6786
   19SAPC  H17S 2489  -0.162   6.444   9.857  1.3911  2.0864  1.1531
   19SAPC  C218 2490  -0.032   6.329   9.986 -0.5623  0.2169 -0.7423
   19SAPC  H18R 2491   0.034   6.411  10.022  0.1210 -1.1891  1.4106
   19SAPC  H18S 2492   0.038   6.243   9.979  0.5677  1.2366 -2.9113
   19SAPC  C219 2493  -0.150   6.305  10.081 -0.7665  0.0604  0.2731
   19SAPC  H19R 2494  -0.209   6.220  10.041  0.6288 -0.3099 -1.0788
   19SAPC  H19S 2495  -0.221   6.390  10.085 -3.1848 -1.8749  0.9527
   19SAPC  C220 2496  -0.122   6.271  10.230  0.1155  0.1260  0.6140
   19SAPC  H20R 2497  -0.222   6.271  10.278 -0.6637  1.8999 -0.8925
   19SAPC  H20S 2498  -0.043   6.335  10.276  0.1215  0.8222 -0.3397
   19SAPC  H20T 2499  -0.081   6.167  10.230  0.5412  0.1284 -3.5026
   19SAPC   C33 2500   1.708   5.999   9.844 -0.1047 -0.8405 -0.3851
   19SAPC   H3X 2501   1.628   5.949   9.785  0.9202 -0.8095 -1.8527
   19SAPC   H3Y 2502   1.779   5.922   9.881 -0.0108 -0.4216  0.3215
   19SAPC   C34 2503   1.777   6.104   9.747 -0.5234  0.0488 -0.4667
   19SAPC   H4X 2504   1.877   6.118   9.792 -1.2260  0.6588  0.9813
   19SAPC   H4Y 2505   1.718   6.198   9.741 -0.6617 -0.1020 -1.8321
   19SAPC   C35 2506   1.796   6.036   9.606  0.3291  0.9444 -0.0002
   19SAPC   H5X 2507   1.694   6.014   9.566 -0.0208 -0.7050  1.6673
   19SAPC   H5Y 2508   1.864   5.950   9.621 -0.5058  0.4790  1.2331
   19SAPC   C36 2509   1.871   6.130   9.507 -0.1155 -0.6133 -0.3155
   19SAPC   H6X 2510   1.953   6.183   9.562 -0.5399 -1.6744  1.4314
   19SAPC   H6Y 2511   1.800   6.205   9.468  0.4966 -0.0572 -0.3908
   19SAPC   C37 2512   1.937   6.053   9.392  0.0577  0.0078  1.1521
   19SAPC   H7X 2513   1.867   5.989   9.333  1.6591 -1.3680  0.6642
   19SAPC   H7Y 2514   2.011   5.977   9.422  0.1755 -1.1059 -1.5839
   19SAPC   C38 2515   2.017   6.140   9.286  0.7607  0.2594 -0.6306
   19SAPC   H8X 2516   2.102   6.175   9.348  0.0215 -1.2105  1.3172
   19SAPC   H8Y 2517   1.959   6.234   9.278 -0.6376  0.0781  4.3542
   19SAPC   C39 2518   2.059   6.067   9.159 -0.0463  0.0440 -0.8983
   19SAPC   H9X 2519   1.974   6.039   9.094 -1.6840  1.2251  0.6329
   19SAPC   H9Y 2520   2.103   5.970   9.187 -2.4373 -1.0981 -0.8347
   19SAPC  C310 2521   2.155   6.153   9.075  0.3393  0.3235  0.1198
   19SAPC  H10X 2522   2.253   6.171   9.124  1.2901 -3.7731  0.1141
   19SAPC  H10Y 2523   2.103   6.250   9.059 -3.1071 -1.0151  2.0482
   19SAPC  C311 2524   2.183   6.087   8.940 -0.5542 -0.6944  0.4438
   19SAPC  H11X 2525   2.107   6.126   8.869 -1.0392 -3.1540 -0.4944
   19SAPC  H11Y 2526   2.172   5.977   8.952  2.9488 -1.1799  0.4787
   19SAPC  C312 2527   2.326   6.117   8.882 -0.4695  0.3338 -0.4802
   19SAPC  H12X 2528   2.335   6.061   8.786 -1.3779  0.9275 -0.9300
   19SAPC  H12Y 2529   2.395   6.082   8.962 -0.3373  1.6262 -0.0064
   19SAPC  C313 2530   2.351   6.265   8.853  0.6838  0.1243  0.1954
   19SAPC  H13X 2531   2.350   6.324   8.947 -0.7553  0.8558 -0.2482
   19SAPC  H13Y 2532   2.277   6.315   8.787  2.5611  2.2675 -0.4475
   19SAPC  C314 2533   2.488   6.284   8.794 -0.8269  0.6862  1.0351
   19SAPC  H14X 2534   2.489   6.221   8.702 -2.5067  0.2692  1.2670
   19SAPC  H14Y 2535   2.563   6.246   8.866 -1.6720  1.2020  2.2103
   19SAPC  C315 2536   2.528   6.434   8.772  0.6551  0.5862 -0.1653
   19SAPC  H15X 2537   2.509   6.503   8.857  0.9891  4.1663 -2.7327
   19SAPC  H15Y 2538   2.483   6.492   8.689  1.1443 -0.6280 -1.2996
   19SAPC  C316 2539   2.679   6.440   8.738 -0.6530  0.0546  0.6673
   19SAPC  H16X 2540   2.733   6.360   8.794  2.1912  1.1945 -0.2711
   19SAPC  H16Y 2541   2.722   6.534   8.780  1.2497 -1.2805  1.8707
   19SAPC  C317 2542   2.714   6.418   8.595  0.1632 -0.2992  0.2615
   19SAPC  H17X 2543   2.669   6.500   8.535  2.0279  1.3127  0.9671
   19SAPC  H17Y 2544   2.668   6.325   8.554  1.0051 -0.0511 -1.3636
   19SAPC  C318 2545   2.865   6.400   8.589  0.6754 -0.4154 -0.0206
   19SAPC  H18X 2546   2.900   6.363   8.490 -0.3767 -1.4576 -0.0204
   19SAPC  H18Y 2547   2.898   6.334   8.672 -1.0351  2.1295  2.8775
   19SAPC  H18Z 2548   2.899   6.503   8.614 -0.0825 -0.5440  1.6273
   20SAPC     N 2549   2.047   3.631  10.637  0.0750 -0.0707  0.5668
   20SAPC   C12 2550   2.115   3.535  10.733  1.2085  0.6487  0.0376
   20SAPC  H12A 2551   2.191   3.583  10.792  1.4930 -1.2435  1.3229
   20SAPC  H12B 2552   2.170   3.459  10.679 -0.1653 -1.2354  1.1227
   20SAPC   C13 2553   1.984   3.738  10.709  0.8883 -0.4429  0.1753
   20SAPC  H13A 2554   1.909   3.699  10.777 -2.8322  1.6734 -2.4005
   20SAPC  H13B 2555   2.052   3.795  10.770 -0.8905  0.3619  1.4983
   20SAPC  H13C 2556   1.942   3.810  10.641  0.3329  0.7147  1.6733
   20SAPC   C14 2557   2.159   3.684  10.555 -0.1740  0.0018 -0.6602
   20SAPC  H14A 2558   2.193   3.602  10.494 -1.6318 -1.1614  0.0133
   20SAPC  H14B 2559   2.129   3.765  10.491  2.8639  1.5720 -0.2847
   20SAPC  H14C 2560   2.245   3.723  10.607  0.0351 -0.1864 -0.8609
   20SAPC   C15 2561   1.957   3.559  10.540  0.6583  0.6326  0.3048
   20SAPC  H15A 2562   2.006   3.464  10.522  1.7212  1.3206 -0.6075
   20SAPC  H15B 2563   1.859   3.538  10.581  1.2649 -0.1457  1.4192
   20SAPC  H15C 2564   1.933   3.619  10.454 -3.4996  0.3717  1.0747
   20SAPC   C11 2565   2.027   3.466  10.838 -0.2262 -0.1138 -0.0734
   20SAPC  H11A 2566   1.988   3.546  10.904 -1.4160 -1.0668  0.4187
   20SAPC  H11B 2567   2.098   3.401  10.894 -1.5650 -0.1385  1.7044
   20SAPC     P 2568   1.943   3.239  10.740 -0.1475 -0.0225  0.1909
   20SAPC   O13 2569   2.074   3.194  10.784 -0.0920 -0.0665 -0.0076
   20SAPC   O14 2570   1.822   3.160  10.770 -0.0115 -0.2163  0.4702
   20SAPC   O12 2571   1.918   3.386  10.787 -0.0768  0.3540 -0.1628
   20SAPC   O11 2572   1.957   3.254  10.582  0.1301 -0.2719  0.3157
   20SAPC    C1 2573   1.885   3.178  10.488  0.1299 -0.0593  0.2785
   20SAPC    HA 2574   1.954   3.149  10.405 -1.1116 -1.9308 -0.1656
   20SAPC    HB 2575   1.840   3.087  10.533 -0.6287  1.1027  1.9485
   20SAPC    C2 2576   1.776   3.260  10.414  0.5806 -0.0534 -0.2750
   20SAPC    HS 2577   1.736   3.197  10.331  0.9446 -0.0248 -0.4753
   20SAPC   O21 2578   1.837   3.373  10.358 -0.1076 -0.5180 -0.3166
   20SAPC   C21 2579   1.914   3.355  10.247 -0.2619  0.1635  0.5375
   20SAPC   O22 2580   1.941   3.243  10.205 -0.0378 -0.3024  0.3552
   20SAPC   C22 2581   1.978   3.488  10.192 -0.0088 -0.2118 -0.6942
   20SAPC   H2R 2582   1.902   3.565  10.164  1.0695  0.5199 -1.6959
   20SAPC   H2S 2583   2.044   3.524  10.273 -1.4715  0.2510  0.3320
   20SAPC    C3 2584   1.648   3.303  10.502  0.2238  0.0646 -0.3884
   20SAPC    HX 2585   1.676   3.345  10.601 -1.2679 -1.5331  0.7569
   20SAPC    HY 2586   1.583   3.217  10.524  0.6946 -0.0151  0.7681
   20SAPC   O31 2587   1.574   3.401  10.425 -0.3894 -0.1756  0.6664
   20SAPC   C31 2588   1.559   3.519  10.479 -0.2148  1.0890 -0.2914
   20SAPC   O32 2589   1.628   3.554  10.578  0.5520  0.2186 -0.4338
   20SAPC   C32 2590   1.466   3.606  10.401  0.2328  0.2210 -0.1136
   20SAPC   H2X 2591   1.398   3.660  10.470 -2.2408 -2.9781  0.1457
   20SAPC   H2Y 2592   1.395   3.543  10.345  0.2601 -0.9256  1.1023
   20SAPC   C23 2593   2.068   3.481  10.063 -0.5137  0.4139  1.1490
   20SAPC   H3R 2594   2.123   3.384  10.060 -0.5179  0.4278  0.1252
   20SAPC   H3S 2595   2.139   3.566  10.060 -2.1563  1.8574 -2.1044
   20SAPC   C24 2596   1.996   3.512   9.937  0.2540 -0.2089 -0.5640
   20SAPC   H4R 2597   1.968   3.619   9.930  2.8440  0.7837  2.1616
   20SAPC   H4S 2598   1.905   3.448   9.930  1.3371 -2.0838  1.5129
   20SAPC   C25 2599   2.098   3.493   9.826  0.2068 -0.0337 -0.2289
   20SAPC   H5R 2600   2.197   3.453   9.853 -0.3603 -2.2550 -1.1407
   20SAPC   C26 2601   2.083   3.515   9.692 -0.6624 -0.2665 -0.4812
   20SAPC   H6R 2602   2.174   3.513   9.631 -1.4321  2.0001 -1.8531
   20SAPC   C27 2603   1.961   3.562   9.620 -0.4910 -0.1920  0.1903
   20SAPC   H7R 2604   1.984   3.659   9.571  0.8811  0.1718  1.4831
   20SAPC   H7S 2605   1.883   3.598   9.691 -0.2669 -1.4030  1.0798
   20SAPC   C28 2606   1.908   3.454   9.532  0.1315  0.1323 -0.1367
   20SAPC   H8R 2607   1.831   3.388   9.576 -0.4372  0.9849  0.1759
   20SAPC   C29 2608   1.937   3.433   9.401 -0.3852 -0.3550 -0.5710
   20SAPC   H9R 2609   1.901   3.342   9.349  2.5998 -1.3256 -1.1088
   20SAPC  C210 2610   2.031   3.527   9.322 -0.8511  0.1267  0.7093
   20SAPC  H10R 2611   2.091   3.598   9.383  0.0693  0.0290 -0.0476
   20SAPC  H10S 2612   1.968   3.596   9.262 -0.1199  1.2402  1.2025
   20SAPC  C211 2613   2.126   3.456   9.235  0.4462  0.1847 -0.4213
   20SAPC  H11R 2614   2.219   3.432   9.289  1.1678 -0.7469 -1.9974
   20SAPC  C212 2615   2.109   3.391   9.116  0.3591 -0.6747  0.6226
   20SAPC  H12R 2616   2.190   3.324   9.083  0.9606 -1.6120  3.7383
   20SAPC  C213 2617   1.979   3.383   9.045  0.0055  0.1091  0.6137
   20SAPC  H13R 2618   1.901   3.453   9.081 -0.5719 -0.4740  0.5356
   20SAPC  H13S 2619   1.939   3.282   9.068  0.4150 -0.1264  0.3107
   20SAPC  C214 2620   1.976   3.404   8.894 -0.3669  0.0448  0.1246
   20SAPC  H14R 2621   2.057   3.469   8.859  0.6134 -1.4267 -0.4572
   20SAPC  C215 2622   1.874   3.366   8.812 -0.4321 -0.1146  0.3631
   20SAPC  H15R 2623   1.874   3.404   8.708 -1.4112 -0.3888  0.2607
   20SAPC  C216 2624   1.751   3.284   8.849 -0.1032 -0.2248 -0.7134
   20SAPC  H16R 2625   1.660   3.345   8.865 -1.3901 -2.4841  1.1906
   20SAPC  H16S 2626   1.761   3.258   8.956  0.3625 -0.0648 -0.7160
   20SAPC  C217 2627   1.723   3.156   8.763 -0.5013 -0.4802 -0.4303
   20SAPC  H17R 2628   1.626   3.113   8.793  0.2748 -0.3700  2.5900
   20SAPC  H17S 2629   1.810   3.088   8.777 -0.9349 -0.8609  0.5110
   20SAPC  C218 2630   1.724   3.173   8.612  0.1441 -0.2720  0.1210
   20SAPC  H18R 2631   1.828   3.196   8.580  0.2060  1.4876  1.4382
   20SAPC  H18S 2632   1.658   3.261   8.596 -2.1683 -1.7400  1.2210
   20SAPC  C219 2633   1.658   3.056   8.544 -0.5575 -0.2127 -0.4636
   20SAPC  H19R 2634   1.665   3.080   8.435 -2.1258 -0.0335 -0.5499
   20SAPC  H19S 2635   1.550   3.041   8.566 -0.5231  0.7817  0.4331
   20SAPC  C220 2636   1.741   2.927   8.556  0.2822  0.6649 -0.0081
   20SAPC  H20R 2637   1.845   2.941   8.522  0.3055  0.0508 -0.2002
   20SAPC  H20S 2638   1.688   2.845   8.502 -1.0195  0.9183  0.8311
   20SAPC  H20T 2639   1.753   2.898   8.662 -1.1046  2.2658  0.6350
   20SAPC   C33 2640   1.540   3.708  10.314  0.7708 -1.1683 -0.2686
   20SAPC   H3X 2641   1.615   3.753  10.383  1.5765  0.3086 -2.0309
   20SAPC   H3Y 2642   1.467   3.789  10.296  0.3025 -1.7219 -0.8745
   20SAPC   C34 2643   1.596   3.662  10.180 -0.0341  0.0814  0.4548
   20SAPC   H4X 2644   1.663   3.576  10.200  0.1222  0.7264  3.1178
   20SAPC   H4Y 2645   1.665   3.748  10.163  1.0877 -0.8634  0.1183
   20SAPC   C35 2646   1.501   3.632  10.067 -0.6418 -0.0552 -0.3367
   20SAPC   H5X 2647   1.432   3.718  10.056 -0.8619 -0.2629 -0.6263
   20SAPC   H5Y 2648   1.446   3.539  10.093 -1.6631  0.2181 -1.3930
   20SAPC   C36 2649   1.564   3.604   9.932 -0.7137  0.1108 -0.2848
   20SAPC   H6X 2650   1.659   3.548   9.945 -0.4715  0.3662 -0.9294
   20SAPC   H6Y 2651   1.604   3.687   9.870 -0.3379 -0.3773 -0.6896
   20SAPC   C37 2652   1.484   3.509   9.836 -0.1100 -0.1605 -0.2093
   20SAPC   H7X 2653   1.384   3.554   9.847  0.3681  0.4171  2.5655
   20SAPC   H7Y 2654   1.466   3.416   9.894  0.1080 -0.4533 -0.5982
   20SAPC   C38 2655   1.522   3.487   9.685  0.4689 -0.1806  0.2025
   20SAPC   H8X 2656   1.469   3.394   9.653 -1.2869  0.8261  0.0837
   20SAPC   H8Y 2657   1.632   3.477   9.670  0.6230 -1.0090  1.6529
   20SAPC   C39 2658   1.480   3.598   9.589  0.5065  0.1705  0.5420
   20SAPC   H9X 2659   1.544   3.687   9.610 -0.6492  1.0880  0.2735
   20SAPC   H9Y 2660   1.379   3.634   9.619  0.4365  0.4621 -0.0296
   20SAPC  C310 2661   1.483   3.549   9.441  0.1770 -0.4161 -0.2077
   20SAPC  H10X 2662   1.399   3.478   9.422  0.4834 -0.0360 -3.4159
   20SAPC  H10Y 2663   1.574   3.487   9.433  0.3095 -0.1711 -0.5649
   20SAPC  C311 2664   1.479   3.668   9.348 -0.7088 -0.4052 -0.2041
   20SAPC  H11X 2665   1.568   3.734   9.358 -1.0216 -0.0505  0.2749
   20SAPC  H11Y 2666   1.389   3.730   9.365 -1.5451 -1.2193 -1.4956
   20SAPC  C312 2667   1.465   3.632   9.198  0.4859  0.0534 -0.0940
   20SAPC  H12X 2668   1.378   3.563   9.190  0.5244  0.1991 -2.5850
   20SAPC  H12Y 2669   1.554   3.580   9.158  2.0832 -0.7062  3.9332
   20SAPC  C313 2670   1.442   3.765   9.115  0.3235  0.2629  0.1475
   20SAPC  H13X 2671   1.528   3.832   9.135  2.4038 -1.4012 -2.4815
   20SAPC  H13Y 2672   1.345   3.805   9.152 -1.1960 -1.6441 -1.5649
   20SAPC  C314 2673   1.423   3.743   8.970 -0.0454 -0.1744  0.1468
   20SAPC  H14X 2674   1.373   3.823   8.913  1.2777  1.0352  0.6209
   20SAPC  H14Y 2675   1.360   3.652   8.959  0.4789 -0.8169  1.9883
   20SAPC  C315 2676   1.562   3.717   8.907  0.7001 -0.0179 -0.3797
   20SAPC  H15X 2677   1.542   3.684   8.803 -0.7670 -0.2291 -0.0531
   20SAPC  H15Y 2678   1.625   3.642   8.961 -1.0871 -0.2339  1.5422
   20SAPC  C316 2679   1.645   3.851   8.893  0.8375  0.0459  0.3332
   20SAPC  H16X 2680   1.651   3.904   8.991  0.4631  0.3319  0.2035
   20SAPC  H16Y 2681   1.586   3.916   8.824  2.5353 -1.7897 -3.0786
   20SAPC  C317 2682   1.783   3.844   8.822 -0.2064 -0.2117 -0.1450
   20SAPC  H17X 2683   1.861   3.864   8.898 -0.1485  0.9267 -0.4828
   20SAPC  H17Y 2684   1.780   3.930   8.751 -1.1267  1.8004  2.1831
   20SAPC  C318 2685   1.819   3.716   8.740  0.9790 -0.2406 -0.0364
   20SAPC  H18X 2686   1.919   3.732   8.693  1.4510  1.5752  1.4410
   20SAPC  H18Y 2687   1.749   3.692   8.658  1.8720 -1.7186 -0.4145
   20SAPC  H18Z 2688   1.819   3.633   8.814  0.8948  1.1514  1.5914
   21SAPC     N 2689   1.901   0.317  10.833  0.2663 -0.3893 -0.1265
   21SAPC   C12 2690   1.966   0.203  10.751 -0.3124 -0.6476  0.1775
   21SAPC  H12A 2691   2.020   0.139  10.820  0.5547  1.2349  1.3045
   21SAPC  H12B 2692   2.040   0.238  10.680  1.1019 -0.4708  1.6966
   21SAPC   C13 2693   1.998   0.417  10.894  0.1287  0.0448  0.3947
   21SAPC  H13A 2694   2.068   0.450  10.818  0.5418 -0.4878  0.5453
   21SAPC  H13B 2695   1.945   0.501  10.937  0.2439  0.7718 -0.8413
   21SAPC  H13C 2696   2.067   0.379  10.968  1.3419  1.6464  0.1566
   21SAPC   C14 2697   1.805   0.401  10.755 -0.2614  0.1763  0.2034
   21SAPC  H14A 2698   1.728   0.339  10.712  0.8516 -0.4694 -0.9023
   21SAPC  H14B 2699   1.754   0.466  10.826 -1.4540  0.9037 -1.2656
   21SAPC  H14C 2700   1.851   0.462  10.679 -1.1501 -0.1525 -0.6178
   21SAPC   C15 2701   1.814   0.257  10.940 -0.2586 -0.1476  0.2825
   21SAPC  H15A 2702   1.766   0.332  11.001  0.0267 -0.7990  1.3319
   21SAPC  H15B 2703   1.741   0.194  10.890 -1.1071 -2.6659  4.2339
   21SAPC  H15C 2704   1.869   0.191  11.005 -2.0650  0.9039  3.0844
   21SAPC   C11 2705   1.871   0.119  10.656 -0.6981  0.0533 -0.0021
   21SAPC  H11A 2706   1.931   0.042  10.604 -2.7027 -1.2767 -0.4841
   21SAPC  H11B 2707   1.830   0.189  10.580 -2.4210  1.2819  1.9449
   21SAPC     P 2708   1.792  -0.085  10.791 -0.1504  0.2277  0.2597
   21SAPC   O13 2709   1.935  -0.092  10.830  0.4178 -0.0739 -0.4240
   21SAPC   O14 2710   1.692  -0.111  10.897 -0.3965 -0.3324  0.6680
   21SAPC   O12 2711   1.765   0.056  10.729 -0.6705 -0.3366 -0.0116
   21SAPC   O11 2712   1.764  -0.184  10.666 -0.9726 -0.0347  0.0319
   21SAPC    C1 2713   1.657  -0.162  10.576  0.1989  0.2077 -0.4204
   21SAPC    HA 2714   1.554  -0.182  10.614 -0.1566  0.2505 -1.3154
   21SAPC    HB 2715   1.649  -0.053  10.554 -1.8419  1.1615  4.0071
   21SAPC    C2 2716   1.679  -0.239  10.439  0.0119 -0.6533 -0.0470
   21SAPC    HS 2717   1.662  -0.347  10.459 -0.8291 -0.3805  0.7874
   21SAPC   O21 2718   1.811  -0.198  10.396  0.7252 -0.2025 -0.0258
   21SAPC   C21 2719   1.871  -0.293  10.327  0.6850  0.0074 -0.2993
   21SAPC   O22 2720   1.828  -0.406  10.315  0.4627 -0.5295 -0.2383
   21SAPC   C22 2721   2.007  -0.252  10.274 -0.1351  0.1157  0.6784
   21SAPC   H2R 2722   1.994  -0.213  10.170  1.4278  0.1787  0.4759
   21SAPC   H2S 2723   2.041  -0.168  10.338  1.7242  0.6579 -0.9048
   21SAPC    C3 2724   1.572  -0.186  10.338 -0.4725  0.1296 -0.2607
   21SAPC    HX 2725   1.594  -0.080  10.310 -1.0907 -0.2863 -2.4841
   21SAPC    HY 2726   1.479  -0.192  10.398 -0.2044  0.4864  0.2035
   21SAPC   O31 2727   1.579  -0.262  10.215 -0.5437 -0.1121  0.1941
   21SAPC   C31 2728   1.483  -0.348  10.203 -0.0582  0.2898  0.2708
   21SAPC   O32 2729   1.403  -0.391  10.287 -0.1910 -0.2935 -0.0075
   21SAPC   C32 2730   1.480  -0.395  10.061 -0.1770  0.5704 -0.4973
   21SAPC   H2X 2731   1.529  -0.494  10.058 -0.5547  0.3055  1.0656
   21SAPC   H2Y 2732   1.539  -0.324   9.999  0.6197 -0.7748 -1.3275
   21SAPC   C23 2733   2.101  -0.369  10.263  0.3058  0.2599 -0.1397
   21SAPC   H3R 2734   2.087  -0.436  10.351  2.7879 -1.3240 -0.8611
   21SAPC   H3S 2735   2.202  -0.323  10.270  0.1663  0.5868 -0.2674
   21SAPC   C24 2736   2.092  -0.441  10.127 -0.0723 -0.1035 -0.2864
   21SAPC   H4R 2737   1.984  -0.453  10.104 -0.1925 -1.0010  0.6629
   21SAPC   H4S 2738   2.134  -0.543  10.138 -0.6466 -0.3277 -0.1820
   21SAPC   C25 2739   2.158  -0.378  10.012 -0.3056 -0.8948  0.4803
   21SAPC   H5R 2740   2.261  -0.345  10.032  0.1738 -0.7002 -2.0332
   21SAPC   C26 2741   2.104  -0.337   9.892 -0.3797 -0.1082  0.0796
   21SAPC   H6R 2742   2.168  -0.294   9.814 -0.1006 -0.2536  0.2262
   21SAPC   C27 2743   1.957  -0.346   9.866  0.2075 -0.2238 -0.0295
   21SAPC   H7R 2744   1.903  -0.398   9.948 -0.1273  0.2676  0.0667
   21SAPC   H7S 2745   1.947  -0.410   9.775 -0.5094  2.3177 -1.8599
   21SAPC   C28 2746   1.883  -0.215   9.859  0.6971  0.3581 -0.0321
   21SAPC   H8R 2747   1.865  -0.160   9.952 -0.4042  2.8791 -1.6017
   21SAPC   C29 2748   1.831  -0.164   9.749 -0.1044  0.0415  0.7744
   21SAPC   H9R 2749   1.777  -0.068   9.747 -0.0311  0.0977 -1.5483
   21SAPC  C210 2750   1.843  -0.229   9.611  0.0178 -0.1095 -0.4706
   21SAPC  H10R 2751   1.765  -0.307   9.598  0.2868 -0.1967 -1.7269
   21SAPC  H10S 2752   1.934  -0.291   9.594  0.7185  0.9703 -0.7165
   21SAPC  C211 2753   1.835  -0.123   9.504  1.2045 -0.1942  0.1156
   21SAPC  H11R 2754   1.795  -0.028   9.543 -0.5335 -0.4031 -1.0475
   21SAPC  C212 2755   1.862  -0.136   9.371 -0.1638 -0.2410 -0.1603
   21SAPC  H12R 2756   1.829  -0.058   9.301 -1.1039  0.2486  0.8031
   21SAPC  C213 2757   1.919  -0.263   9.321  0.4056  1.3482  0.6052
   21SAPC  H13R 2758   1.885  -0.346   9.386  1.1685  1.7221  1.5240
   21SAPC  H13S 2759   2.028  -0.270   9.343  0.2454 -0.7280  0.9588
   21SAPC  C214 2760   1.917  -0.295   9.175  0.3604  0.1599  0.6695
   21SAPC  H14R 2761   1.816  -0.320   9.140  1.0358 -3.4190  0.8780
   21SAPC  C215 2762   2.023  -0.305   9.092  0.1341 -0.2941  0.5733
   21SAPC  H15R 2763   2.017  -0.327   8.984 -1.7885 -1.4419  0.8701
   21SAPC  C216 2764   2.166  -0.291   9.125 -0.3662 -0.0036 -0.6658
   21SAPC  H16R 2765   2.219  -0.384   9.155  0.0658  1.0585  2.1503
   21SAPC  H16S 2766   2.186  -0.231   9.217 -0.1553 -2.0454  0.6840
   21SAPC  C217 2767   2.225  -0.215   9.004  0.5990 -0.2970 -0.0939
   21SAPC  H17R 2768   2.175  -0.123   8.967 -1.5750 -0.9002  1.1499
   21SAPC  H17S 2769   2.232  -0.285   8.919  0.5581 -0.1590 -0.2123
   21SAPC  C218 2770   2.361  -0.158   9.022 -0.2361  0.0723  0.4114
   21SAPC  H18R 2771   2.430  -0.234   9.065  0.8491 -0.7270 -2.5006
   21SAPC  H18S 2772   2.360  -0.084   9.105 -0.7821  0.9132 -0.3217
   21SAPC  C219 2773   2.406  -0.070   8.907 -0.6862 -0.0201 -0.4930
   21SAPC  H19R 2774   2.352   0.028   8.908 -0.7410 -0.0473 -0.6823
   21SAPC  H19S 2775   2.380  -0.128   8.816 -0.3932 -1.2235  0.1652
   21SAPC  C220 2776   2.553  -0.037   8.918 -0.2417 -0.1840  0.5883
   21SAPC  H20R 2777   2.592   0.012   8.826 -1.5934 -1.2159 -0.5980
   21SAPC  H20S 2778   2.608  -0.134   8.922 -0.4520 -0.3822 -0.7903
   21SAPC  H20T 2779   2.571   0.035   9.000  1.4681 -1.6662  1.5830
   21SAPC   C33 2780   1.337  -0.393   9.992 -1.1044  0.5882  0.5777
   21SAPC   H3X 2781   1.290  -0.293  10.005  0.1125  1.3472 -0.5158
   21SAPC   H3Y 2782   1.286  -0.473  10.049 -0.8983 -0.9049 -1.2593
   21SAPC   C34 2783   1.324  -0.430   9.839 -0.2043  0.0923 -0.5393
   21SAPC   H4X 2784   1.215  -0.439   9.822 -0.0780  1.0671 -2.0577
   21SAPC   H4Y 2785   1.360  -0.532   9.810 -0.8517 -0.2575 -0.1383
   21SAPC   C35 2786   1.378  -0.324   9.742 -0.4528 -0.5022  0.4087
   21SAPC   H5X 2787   1.485  -0.306   9.764 -0.4274 -0.2758  0.0967
   21SAPC   H5Y 2788   1.340  -0.222   9.764  2.5673  0.5199  1.4413
   21SAPC   C36 2789   1.381  -0.356   9.589  0.0939  0.5194  0.6294
   21SAPC   H6X 2790   1.275  -0.369   9.558  0.1269  0.5557  0.5032
   21SAPC   H6Y 2791   1.435  -0.450   9.568  2.2489  1.4658  1.6901
   21SAPC   C37 2792   1.438  -0.245   9.503  0.0923  0.3319  0.6668
   21SAPC   H7X 2793   1.538  -0.219   9.542 -0.0657  0.6542  0.8668
   21SAPC   H7Y 2794   1.377  -0.152   9.507  0.9479  0.8609  1.9053
   21SAPC   C38 2795   1.460  -0.287   9.356 -0.3143 -0.2148 -0.0628
   21SAPC   H8X 2796   1.497  -0.202   9.294  0.5800 -1.2908 -1.0600
   21SAPC   H8Y 2797   1.365  -0.317   9.306  0.6083  1.7729 -3.3479
   21SAPC   C39 2798   1.539  -0.412   9.338  0.3428 -0.3347 -0.3559
   21SAPC   H9X 2799   1.478  -0.498   9.372  1.5029 -1.0529 -0.0540
   21SAPC   H9Y 2800   1.636  -0.425   9.390  0.1931  0.1660  0.0649
   21SAPC  C310 2801   1.573  -0.447   9.184  0.9758 -0.2667 -0.3062
   21SAPC  H10X 2802   1.623  -0.358   9.141  1.2602  0.3550  1.2453
   21SAPC  H10Y 2803   1.477  -0.474   9.135  0.0396  1.5520  0.4483
   21SAPC  C311 2804   1.673  -0.558   9.159 -0.8518  0.4220  0.7709
   21SAPC  H11X 2805   1.648  -0.655   9.208  0.4011 -0.2184  0.1848
   21SAPC  H11Y 2806   1.769  -0.527   9.204  0.6319 -1.1541 -1.1246
   21SAPC  C312 2807   1.693  -0.582   9.009 -0.8684 -0.5813 -0.3618
   21SAPC  H12X 2808   1.763  -0.664   8.986 -0.3976 -0.0761 -0.7535
   21SAPC  H12Y 2809   1.743  -0.488   8.976 -2.8200  1.3747  1.7900
   21SAPC  C313 2810   1.581  -0.635   8.921 -0.7174 -0.2052 -0.4195
   21SAPC  H13X 2811   1.579  -0.581   8.824 -1.4823  2.9984  1.2437
   21SAPC  H13Y 2812   1.491  -0.597   8.974 -0.1379 -0.9084  1.1207
   21SAPC  C314 2813   1.570  -0.787   8.897 -0.2053 -0.4090 -0.7675
   21SAPC  H14X 2814   1.474  -0.812   8.848  0.4902 -0.6437 -2.0397
   21SAPC  H14Y 2815   1.591  -0.831   8.997 -1.3732  1.0174  0.1548
   21SAPC  C315 2816   1.680  -0.837   8.804 -0.2458  0.2658 -0.8719
   21SAPC  H15X 2817   1.683  -0.948   8.808 -2.8205  0.1137 -1.2107
   21SAPC  H15Y 2818   1.780  -0.799   8.831 -0.3738 -0.7932  1.3090
   21SAPC  C316 2819   1.663  -0.785   8.663 -1.0893 -0.6324 -0.2435
   21SAPC  H16X 2820   1.688  -0.677   8.659 -1.5901 -0.2127  3.7507
   21SAPC  H16Y 2821   1.559  -0.791   8.626 -0.6780 -1.5692 -1.3087
   21SAPC  C317 2822   1.747  -0.856   8.555 -0.2594 -0.1080 -0.2125
   21SAPC  H17X 2823   1.716  -0.962   8.546  0.8768 -0.4772  0.0684
   21SAPC  H17Y 2824   1.853  -0.867   8.587  0.4068  0.3418 -2.1119
   21SAPC  C318 2825   1.732  -0.792   8.411 -0.7453  0.3683  0.4310
   21SAPC  H18X 2826   1.624  -0.787   8.390 -1.1062 -1.8402  1.4791
   21SAPC  H18Y 2827   1.783  -0.847   8.329 -0.7555  1.0226 -0.0179
   21SAPC  H18Z 2828   1.773  -0.689   8.403 -1.0114  0.5367  1.1614
   22SAPC     N 2829   1.216   1.152  10.669  0.1236 -1.1502 -0.2812
   22SAPC   C12 2830   1.258   1.008  10.651  0.8930 -0.1901 -0.1184
   22SAPC  H12A 2831   1.198   0.965  10.573  0.0493  1.2514 -0.3016
   22SAPC  H12B 2832   1.233   0.954  10.741  1.3415 -2.2597 -1.1915
   22SAPC   C13 2833   1.275   1.238  10.566  0.5057  0.3166  0.1390
   22SAPC  H13A 2834   1.241   1.200  10.471  1.3317 -0.9842  0.3268
   22SAPC  H13B 2835   1.241   1.340  10.566 -0.5421 -0.0164 -0.5167
   22SAPC  H13C 2836   1.383   1.238  10.572  0.6142 -0.6650 -1.2149
   22SAPC   C14 2837   1.066   1.166  10.672 -0.1073  0.6096 -0.1205
   22SAPC  H14A 2838   1.041   1.150  10.568  3.1814  1.9359 -1.2620
   22SAPC  H14B 2839   1.035   1.092  10.744  1.5518 -2.0564 -1.9425
   22SAPC  H14C 2840   1.027   1.262  10.702  1.0347  1.4944 -1.3566
   22SAPC   C15 2841   1.271   1.215  10.793  0.1578 -0.6353  0.3306
   22SAPC  H15A 2842   1.377   1.194  10.797  0.7626  1.8498 -0.8960
   22SAPC  H15B 2843   1.254   1.322  10.795 -1.9883 -0.8689 -1.3125
   22SAPC  H15C 2844   1.221   1.169  10.877  1.9671 -0.4645  1.5734
   22SAPC   C11 2845   1.412   0.983  10.633 -0.3715  0.1546 -0.2921
   22SAPC  H11A 2846   1.456   1.050  10.556  0.7244 -0.9481 -0.6646
   22SAPC  H11B 2847   1.435   0.882  10.593 -1.2982 -0.9822  1.8773
   22SAPC     P 2848   1.490   0.909  10.876  0.1810 -0.3311 -0.0989
   22SAPC   O13 2849   1.531   0.977  11.002  0.6788  0.3328  0.6291
   22SAPC   O14 2850   1.360   0.840  10.875 -0.2478  1.1228 -0.2088
   22SAPC   O12 2851   1.486   1.016  10.747 -0.0830  0.6186  0.0661
   22SAPC   O11 2852   1.597   0.803  10.842 -0.5904 -0.3118  0.1438
   22SAPC    C1 2853   1.733   0.851  10.809 -0.1593  0.3500 -0.1419
   22SAPC    HA 2854   1.740   0.952  10.853 -1.0584 -0.4626  2.0423
   22SAPC    HB 2855   1.813   0.784  10.849  0.4097  0.3028 -1.3114
   22SAPC    C2 2856   1.761   0.844  10.653  0.4889 -0.1972 -0.3620
   22SAPC    HS 2857   1.679   0.904  10.607  0.6701  0.6443  0.3736
   22SAPC   O21 2858   1.764   0.703  10.615  0.7403  0.2405  0.5023
   22SAPC   C21 2859   1.702   0.678  10.498  0.4454  0.3258 -0.3995
   22SAPC   O22 2860   1.645   0.755  10.423  0.4158  0.3216  0.1617
   22SAPC   C22 2861   1.719   0.527  10.470 -0.4967  0.5263  0.8988
   22SAPC   H2R 2862   1.829   0.510  10.465 -0.3811  1.3098  0.5743
   22SAPC   H2S 2863   1.669   0.465  10.547  0.5694  0.0233  1.2126
   22SAPC    C3 2864   1.882   0.919  10.611 -0.4596 -0.4699 -0.0935
   22SAPC    HX 2865   1.971   0.870  10.656  0.2517 -0.3913 -1.3573
   22SAPC    HY 2866   1.889   1.023  10.649  2.4684  0.2311 -2.1861
   22SAPC   O31 2867   1.897   0.912  10.468  0.3657 -0.2786 -0.0169
   22SAPC   C31 2868   1.826   1.001  10.392  0.4935 -0.1917 -0.1334
   22SAPC   O32 2869   1.749   1.080  10.444  0.0368 -0.4424  0.2075
   22SAPC   C32 2870   1.893   1.002  10.254 -0.0269  0.0160 -0.4962
   22SAPC   H2X 2871   1.947   0.907  10.234  1.5995  0.4789  1.3764
   22SAPC   H2Y 2872   1.964   1.086  10.265 -2.5922  2.2718 -0.2257
   22SAPC   C23 2873   1.673   0.474  10.330  0.0444  0.0484 -0.6857
   22SAPC   H3R 2874   1.712   0.528  10.241  0.2835  1.5575  0.2751
   22SAPC   H3S 2875   1.564   0.494  10.329  0.0022 -0.2002 -1.1430
   22SAPC   C24 2876   1.695   0.321  10.308  0.2906  0.1074 -0.0335
   22SAPC   H4R 2877   1.638   0.294  10.216 -0.2347 -3.5787  1.1890
   22SAPC   H4S 2878   1.639   0.272  10.391  0.8601 -2.6147 -1.1322
   22SAPC   C25 2879   1.831   0.254  10.306 -0.1327  0.0993  0.1331
   22SAPC   H5R 2880   1.889   0.263  10.399 -0.4316 -0.5183  0.3854
   22SAPC   C26 2881   1.878   0.188  10.197  0.7750 -0.4524 -0.0089
   22SAPC   H6R 2882   1.974   0.134  10.198 -0.0861 -2.1852 -1.7926
   22SAPC   C27 2883   1.799   0.168  10.069 -0.0262 -0.4333 -0.6226
   22SAPC   H7R 2884   1.879   0.162   9.992  2.9363 -0.6126  2.2430
   22SAPC   H7S 2885   1.745   0.261  10.043  3.7371  1.6320 -1.8415
   22SAPC   C28 2886   1.715   0.037  10.079 -0.3994  0.1202 -0.6315
   22SAPC   H8R 2887   1.766  -0.049  10.125 -2.2172 -0.6114  0.0788
   22SAPC   C29 2888   1.586   0.013  10.040  0.0686  0.9341 -0.3860
   22SAPC   H9R 2889   1.530  -0.077  10.068  0.7847 -0.2486 -2.5256
   22SAPC  C210 2890   1.512   0.123   9.959 -1.0412  0.9467 -0.0759
   22SAPC  H10R 2891   1.583   0.168   9.887 -0.8248 -1.3981 -1.4631
   22SAPC  H10S 2892   1.480   0.205  10.027 -0.3995 -0.3877  1.9408
   22SAPC  C211 2893   1.388   0.056   9.887  0.3630 -0.7063 -0.4363
   22SAPC  H11R 2894   1.312   0.009   9.950 -0.7221  0.9291 -0.4634
   22SAPC  C212 2895   1.359   0.056   9.753 -0.0642 -0.7001 -0.3039
   22SAPC  H12R 2896   1.258   0.025   9.720 -1.2009  0.6545  1.6504
   22SAPC  C213 2897   1.445   0.110   9.641 -0.5064 -0.4196 -0.5999
   22SAPC  H13R 2898   1.406   0.073   9.544 -0.2945 -0.6124 -0.6138
   22SAPC  H13S 2899   1.544   0.059   9.641  0.1854  0.8664  0.2744
   22SAPC  C214 2900   1.456   0.258   9.628 -0.0710 -0.4562 -0.3432
   22SAPC  H14R 2901   1.410   0.305   9.717  0.9010  1.2210 -0.6997
   22SAPC  C215 2902   1.532   0.314   9.531 -0.3553  0.0571 -0.4835
   22SAPC  H15R 2903   1.531   0.424   9.526 -0.8649  0.1216  0.6561
   22SAPC  C216 2904   1.609   0.247   9.423 -0.1475 -0.0307 -0.0528
   22SAPC  H16R 2905   1.671   0.167   9.469  1.8432  0.9872 -0.8206
   22SAPC  H16S 2906   1.673   0.328   9.382  1.0204 -1.5659 -1.4563
   22SAPC  C217 2907   1.529   0.195   9.306 -0.3904 -0.0847 -0.3749
   22SAPC  H17R 2908   1.488   0.290   9.265  0.4480  1.6426  2.4145
   22SAPC  H17S 2909   1.442   0.133   9.335 -0.4389 -0.4022 -1.1872
   22SAPC  C218 2910   1.617   0.117   9.204 -0.3637  0.2786 -0.0389
   22SAPC  H18R 2911   1.562   0.089   9.113  0.0035  0.9259 -0.4715
   22SAPC  H18S 2912   1.641   0.026   9.264 -0.8520 -0.0891 -0.3969
   22SAPC  C219 2913   1.746   0.195   9.171  0.5157 -0.0705  0.0088
   22SAPC  H19R 2914   1.811   0.206   9.259  2.4636 -1.5099 -1.1735
   22SAPC  H19S 2915   1.718   0.295   9.131 -1.0374 -1.2009 -1.9374
   22SAPC  C220 2916   1.838   0.125   9.058  0.0034 -0.5571  0.3104
   22SAPC  H20R 2917   1.881   0.030   9.096  1.7875  0.4120  0.7975
   22SAPC  H20S 2918   1.921   0.190   9.023  0.6299 -2.0583 -1.1354
   22SAPC  H20T 2919   1.782   0.087   8.970  0.9730 -0.3771 -0.4047
   22SAPC   C33 2920   1.783   1.020  10.144  0.1136  0.1968 -0.2310
   22SAPC   H3X 2921   1.709   1.094  10.182  1.6649  1.3314  0.7094
   22SAPC   H3Y 2922   1.729   0.923  10.137  3.1203 -1.5132 -2.5136
   22SAPC   C34 2923   1.844   1.058  10.007 -0.3125  0.0793 -0.8261
   22SAPC   H4X 2924   1.924   0.991   9.968  2.4463  1.8492  1.3958
   22SAPC   H4Y 2925   1.891   1.157  10.021  1.5601 -0.7047 -1.1574
   22SAPC   C35 2926   1.741   1.062   9.894 -0.0523  0.3121  0.3709
   22SAPC   H5X 2927   1.667   1.143   9.909  0.5963  0.8942  0.4540
   22SAPC   H5Y 2928   1.690   0.963   9.885  0.0381 -0.0078  2.7321
   22SAPC   C36 2929   1.801   1.092   9.757  0.4079  0.3225  0.0063
   22SAPC   H6X 2930   1.755   1.024   9.682  1.4135 -0.9691  0.5322
   22SAPC   H6Y 2931   1.907   1.061   9.757 -0.1088 -1.6182  1.0798
   22SAPC   C37 2932   1.791   1.235   9.708  0.5339  1.1225  0.2954
   22SAPC   H7X 2933   1.831   1.294   9.793 -0.3310  0.6754  1.0237
   22SAPC   H7Y 2934   1.686   1.262   9.685 -0.3215 -2.0785  0.0165
   22SAPC   C38 2935   1.869   1.276   9.579 -0.3225  0.5642 -0.0692
   22SAPC   H8X 2936   1.969   1.252   9.620 -0.9215  0.3811  1.3668
   22SAPC   H8Y 2937   1.860   1.386   9.569 -2.8717  0.2962 -1.6454
   22SAPC   C39 2938   1.828   1.190   9.464 -0.3395 -0.1751  0.7423
   22SAPC   H9X 2939   1.837   1.082   9.488  0.5529 -0.8735 -2.2607
   22SAPC   H9Y 2940   1.899   1.213   9.381 -0.1472  0.3582  1.0495
   22SAPC  C310 2941   1.677   1.201   9.417 -0.5468 -0.1955  0.1881
   22SAPC  H10X 2942   1.654   1.308   9.399  0.9728  0.4579  1.8726
   22SAPC  H10Y 2943   1.614   1.160   9.498  0.5704 -0.7686  0.7888
   22SAPC  C311 2944   1.633   1.117   9.295 -0.7142  0.3441 -0.0912
   22SAPC  H11X 2945   1.528   1.143   9.272 -0.2925  0.9972 -1.4091
   22SAPC  H11Y 2946   1.638   1.009   9.320 -1.0825 -0.1652 -2.0000
   22SAPC  C312 2947   1.722   1.136   9.171 -0.2720 -0.1567 -0.4784
   22SAPC  H12X 2948   1.827   1.101   9.186 -0.8568 -1.4589  0.8113
   22SAPC  H12Y 2949   1.738   1.242   9.143  0.9462  0.1751  1.2734
   22SAPC  C313 2950   1.678   1.063   9.043  0.8177  0.0663 -0.8236
   22SAPC  H13X 2951   1.700   0.955   9.055  0.5393  0.0958  0.0251
   22SAPC  H13Y 2952   1.742   1.096   8.958  1.7914 -0.0187 -0.1313
   22SAPC  C314 2953   1.529   1.080   8.997 -0.2896 -0.4194  0.0322
   22SAPC  H14X 2954   1.469   1.028   9.075 -0.7199  1.2085  0.8394
   22SAPC  H14Y 2955   1.517   1.027   8.900 -1.9705 -0.9791  0.4940
   22SAPC  C315 2956   1.478   1.224   8.989  0.5895  0.6357  0.7332
   22SAPC  H15X 2957   1.555   1.289   8.943  0.3152  2.2388  2.4435
   22SAPC  H15Y 2958   1.477   1.252   9.096  2.9334  0.1232  0.9413
   22SAPC  C316 2959   1.339   1.251   8.927 -0.2460  0.4223  0.7981
   22SAPC  H16X 2960   1.311   1.351   8.968  0.0054  1.7738 -2.1099
   22SAPC  H16Y 2961   1.269   1.170   8.958  0.5046  0.3117  2.3470
   22SAPC  C317 2962   1.339   1.252   8.773 -0.5019  0.3458 -1.0369
   22SAPC  H17X 2963   1.366   1.152   8.734 -0.3919  0.1076 -0.3534
   22SAPC  H17Y 2964   1.416   1.327   8.743 -0.0768  1.4949  2.4936
   22SAPC  C318 2965   1.203   1.296   8.706 -0.1170 -1.0746  0.1243
   22SAPC  H18X 2966   1.224   1.321   8.600  2.6710  3.0259  1.3947
   22SAPC  H18Y 2967   1.166   1.390   8.755  2.5175 -0.7009  1.5779
   22SAPC  H18Z 2968   1.123   1.219   8.717 -1.2679 -0.0934 -0.9679
   23SAPC     N 2969   2.036   2.498  11.128 -0.0649 -0.6632  0.7444
   23SAPC   C12 2970   2.008   2.371  11.054  0.5435  0.4469  0.6240
   23SAPC  H12A 2971   1.923   2.322  11.099  0.0646  1.2668  0.6157
   23SAPC  H12B 2972   2.088   2.298  11.063  1.7863  1.7868  0.8283
   23SAPC   C13 2973   1.934   2.598  11.118  0.9926  0.1738 -0.1104
   23SAPC  H13A 2974   1.914   2.624  11.015  0.5377 -1.4154 -0.4490
   23SAPC  H13B 2975   1.846   2.551  11.158  1.8969 -2.0757 -0.6051
   23SAPC  H13C 2976   1.970   2.684  11.171  1.3859 -0.3917  0.5552
   23SAPC   C14 2977   2.051   2.478  11.270 -0.0250  0.6302 -0.2158
   23SAPC  H14A 2978   1.950   2.447  11.289  0.3659 -0.3094  0.4270
   23SAPC  H14B 2979   2.122   2.400  11.294 -0.4722  0.8173  1.8143
   23SAPC  H14C 2980   2.071   2.566  11.328 -1.8584  0.3519  0.9046
   23SAPC   C15 2981   2.155   2.577  11.072  0.2065 -0.5159  0.0431
   23SAPC  H15A 2982   2.156   2.572  10.964 -0.7446  1.7639 -0.1276
   23SAPC  H15B 2983   2.145   2.681  11.100  3.6690  1.5880 -4.9705
   23SAPC  H15C 2984   2.252   2.547  11.109  0.1935 -0.7364 -0.1041
   23SAPC   C11 2985   1.984   2.368  10.899 -0.2213 -0.6911 -0.1569
   23SAPC  H11A 2986   1.900   2.439  10.884 -0.0726  0.0497  2.1704
   23SAPC  H11B 2987   1.958   2.269  10.856 -0.5443 -0.0511 -1.4967
   23SAPC     P 2988   2.224   2.342  10.793 -0.2370  0.5120 -0.8018
   23SAPC   O13 2989   2.348   2.429  10.806  1.1320 -0.3299  0.1066
   23SAPC   O14 2990   2.227   2.221  10.877 -0.3644  0.1830 -0.0496
   23SAPC   O12 2991   2.097   2.421  10.838  0.3648  0.2831 -0.4485
   23SAPC   O11 2992   2.204   2.306  10.644 -0.1695 -0.3415  0.2749
   23SAPC    C1 2993   2.073   2.305  10.577  0.7325 -1.1820 -0.3866
   23SAPC    HA 2994   2.023   2.212  10.611  1.9513 -0.8280  2.7565
   23SAPC    HB 2995   2.014   2.398  10.595  0.4199 -1.0790 -1.8860
   23SAPC    C2 2996   2.094   2.300  10.421 -1.1311  0.3057 -0.2326
   23SAPC    HS 2997   2.144   2.203  10.398 -1.0935  0.8605 -2.7204
   23SAPC   O21 2998   2.182   2.409  10.387 -0.3042  0.2814  0.1096
   23SAPC   C21 2999   2.268   2.385  10.285  0.0409  0.0016 -0.0371
   23SAPC   O22 3000   2.273   2.279  10.226  0.1923  0.1064  0.5786
   23SAPC   C22 3001   2.353   2.509  10.262 -0.1978  0.3426  0.8378
   23SAPC   H2R 3002   2.331   2.586  10.339 -0.6580 -0.2091  1.2664
   23SAPC   H2S 3003   2.461   2.484  10.265 -0.3855 -0.4301  1.4613
   23SAPC    C3 3004   1.963   2.310  10.339 -0.2334 -0.0886  0.0836
   23SAPC    HX 3005   1.926   2.412  10.364  1.4804  0.4379  0.6364
   23SAPC    HY 3006   1.883   2.242  10.374  0.1240  0.2762  1.7191
   23SAPC   O31 3007   1.976   2.299  10.199  0.0404  0.4193 -0.0346
   23SAPC   C31 3008   1.977   2.176  10.143 -0.3664 -0.3228  0.2925
   23SAPC   O32 3009   1.968   2.072  10.209  0.3699  0.4098 -0.0517
   23SAPC   C32 3010   2.009   2.193   9.995 -0.0378 -0.2688  0.1017
   23SAPC   H2X 3011   2.088   2.268   9.973 -1.1852  0.4650 -1.7269
   23SAPC   H2Y 3012   1.917   2.231   9.947 -1.8687 -1.1493  2.6604
   23SAPC   C23 3013   2.323   2.586  10.117  0.1296 -0.7030 -0.1489
   23SAPC   H3R 3014   2.382   2.681  10.114 -1.8929  0.6084  0.0827
   23SAPC   H3S 3015   2.216   2.609  10.103  0.5780  0.8339 -1.4112
   23SAPC   C24 3016   2.374   2.507   9.991 -0.8211  0.2427 -0.0871
   23SAPC   H4R 3017   2.353   2.568   9.900 -3.3412 -1.5254 -0.7928
   23SAPC   H4S 3018   2.309   2.419   9.977 -1.7393  0.5998  1.6365
   23SAPC   C25 3019   2.517   2.468  10.011 -0.0979 -0.0631  0.2291
   23SAPC   H5R 3020   2.557   2.472  10.114 -0.8909 -0.2404  0.5501
   23SAPC   C26 3021   2.597   2.412   9.915  0.3638  0.4841  0.3389
   23SAPC   H6R 3022   2.701   2.395   9.947  0.1887  0.2775  0.8060
   23SAPC   C27 3023   2.568   2.386   9.770 -0.6234 -0.2246  0.3421
   23SAPC   H7R 3024   2.498   2.300   9.771  1.9900 -2.4895  0.8629
   23SAPC   H7S 3025   2.661   2.343   9.726 -0.9146  2.0480 -2.8879
   23SAPC   C28 3026   2.536   2.505   9.683  0.4515  0.0096  0.5346
   23SAPC   H8R 3027   2.507   2.601   9.728  0.4614  0.0665  0.4205
   23SAPC   C29 3028   2.532   2.504   9.555 -0.6840 -0.8416 -0.2090
   23SAPC   H9R 3029   2.523   2.600   9.501 -1.6319  0.5530  2.2515
   23SAPC  C210 3030   2.560   2.382   9.462  0.4374 -0.0963 -1.0529
   23SAPC  H10R 3031   2.482   2.398   9.384 -2.0692 -1.8849  0.8759
   23SAPC  H10S 3032   2.541   2.283   9.509  0.3259 -0.0296 -0.9563
   23SAPC  C211 3033   2.697   2.368   9.403  0.2792 -0.3552  1.0438
   23SAPC  H11R 3034   2.773   2.363   9.482  0.6894  3.8891  1.1359
   23SAPC  C212 3035   2.716   2.375   9.270 -0.5367  0.1332  1.2738
   23SAPC  H12R 3036   2.815   2.342   9.235 -1.7098 -1.6618 -0.5827
   23SAPC  C213 3037   2.619   2.388   9.151  0.3916 -0.7545  0.5884
   23SAPC  H13R 3038   2.674   2.424   9.061 -1.0902 -1.3924 -0.6303
   23SAPC  H13S 3039   2.546   2.468   9.175 -0.3242 -1.0398 -0.5446
   23SAPC  C214 3040   2.560   2.261   9.104  0.3324  0.0525 -0.5957
   23SAPC  H14R 3041   2.585   2.173   9.165  0.0915 -1.8540 -3.0671
   23SAPC  C215 3042   2.471   2.237   9.004  0.0821 -0.1348 -0.8812
   23SAPC  H15R 3043   2.423   2.141   8.979 -0.8857 -0.0024  0.3765
   23SAPC  C216 3044   2.424   2.343   8.908 -0.0481  0.2341  0.5233
   23SAPC  H16R 3045   2.393   2.434   8.964  0.0087  0.1822  0.6382
   23SAPC  H16S 3046   2.339   2.304   8.848 -0.0454 -2.1446  1.9658
   23SAPC  C217 3047   2.527   2.377   8.798 -0.3389 -0.0610  0.9639
   23SAPC  H17R 3048   2.533   2.295   8.723 -0.4707  0.9598 -0.2054
   23SAPC  H17S 3049   2.626   2.404   8.841  0.6791 -0.4444 -0.9829
   23SAPC  C218 3050   2.483   2.504   8.723 -0.3904 -0.2954 -0.5757
   23SAPC  H18R 3051   2.476   2.598   8.780  0.5818  0.1687 -1.1991
   23SAPC  H18S 3052   2.380   2.477   8.691 -0.2335 -2.0621  0.2578
   23SAPC  C219 3053   2.561   2.545   8.590  0.9317  0.0529  0.1561
   23SAPC  H19R 3054   2.664   2.572   8.622  0.4819  0.8708  0.9690
   23SAPC  H19S 3055   2.519   2.637   8.545  0.6753  0.1978  0.6839
   23SAPC  C220 3056   2.561   2.439   8.482 -0.3150 -0.6249  0.3667
   23SAPC  H20R 3057   2.620   2.461   8.391  1.6265 -1.8839  1.2518
   23SAPC  H20S 3058   2.454   2.417   8.462 -0.1588 -0.1827 -1.0933
   23SAPC  H20T 3059   2.610   2.348   8.523  0.0956 -0.4310  0.3105
   23SAPC   C33 3060   2.034   2.055   9.923 -0.1632 -0.0436 -0.0864
   23SAPC   H3X 3061   1.948   1.987   9.940  0.3713 -0.7819 -0.2776
   23SAPC   H3Y 3062   2.123   2.001   9.962  0.2523 -0.8186 -2.0097
   23SAPC   C34 3063   2.054   2.074   9.773  0.6996  0.4093 -0.5212
   23SAPC   H4X 3064   1.979   2.137   9.722 -0.1888 -0.0852  0.1485
   23SAPC   H4Y 3065   2.047   1.975   9.723 -1.0424  0.8466 -1.2214
   23SAPC   C35 3066   2.196   2.131   9.745  0.0035 -0.5293 -0.1652
   23SAPC   H5X 3067   2.269   2.058   9.786  1.7585  1.1843 -0.0501
   23SAPC   H5Y 3068   2.207   2.236   9.779 -1.5443 -0.2813 -0.3535
   23SAPC   C36 3069   2.236   2.148   9.593 -0.0409 -0.7572 -0.5224
   23SAPC   H6X 3070   2.236   2.044   9.554 -0.8507 -0.1210 -2.3276
   23SAPC   H6Y 3071   2.333   2.202   9.590  0.0608 -0.9710 -1.1804
   23SAPC   C37 3072   2.128   2.230   9.516  0.0235 -0.4725 -0.3548
   23SAPC   H7X 3073   2.117   2.332   9.557  3.2594  1.0188 -2.7476
   23SAPC   H7Y 3074   2.036   2.174   9.544  0.0583 -0.5512 -0.3940
   23SAPC   C38 3075   2.152   2.243   9.372 -0.1762 -0.5133  0.1291
   23SAPC   H8X 3076   2.177   2.139   9.341  2.4039 -0.6298  2.2156
   23SAPC   H8Y 3077   2.241   2.310   9.363 -1.4574  1.1755 -0.5556
   23SAPC   C39 3078   2.038   2.312   9.289  0.0044  0.3039  0.0483
   23SAPC   H9X 3079   2.001   2.406   9.336 -1.1697  0.2736 -0.7735
   23SAPC   H9Y 3080   1.953   2.244   9.264  0.9964 -1.5088  1.3900
   23SAPC  C310 3081   2.088   2.348   9.156  0.1989  0.5655  0.4497
   23SAPC  H10X 3082   2.124   2.250   9.118  1.2005  0.7501  0.8910
   23SAPC  H10Y 3083   2.172   2.419   9.145  1.4400 -1.0312 -1.0045
   23SAPC  C311 3084   1.970   2.408   9.067  0.3358 -0.1505  0.7992
   23SAPC  H11X 3085   1.944   2.501   9.121 -0.6570 -0.8177  1.5117
   23SAPC  H11Y 3086   1.883   2.339   9.055  1.8514 -1.7939 -1.3832
   23SAPC  C312 3087   2.013   2.440   8.926  0.2878 -0.7945 -0.3626
   23SAPC  H12X 3088   2.119   2.472   8.930 -0.7212  2.9223  0.9907
   23SAPC  H12Y 3089   1.958   2.524   8.879  2.0615  0.9231  0.4849
   23SAPC  C313 3090   1.984   2.326   8.834 -0.2630 -0.1567  0.1427
   23SAPC  H13X 3091   1.876   2.327   8.807 -0.1972  0.2088 -0.1079
   23SAPC  H13Y 3092   2.012   2.228   8.878 -1.9196 -0.4470  0.5994
   23SAPC  C314 3093   2.067   2.342   8.706  0.3198 -0.2388  0.8214
   23SAPC  H14X 3094   2.172   2.312   8.727  0.3512 -1.0643 -0.4517
   23SAPC  H14Y 3095   2.061   2.447   8.673 -2.8482 -0.3987  0.6158
   23SAPC  C315 3096   2.008   2.253   8.592 -0.0231 -0.2789  0.8967
   23SAPC  H15X 3097   1.923   2.297   8.535 -0.2134  0.1252  1.4890
   23SAPC  H15Y 3098   1.973   2.160   8.642 -0.0520 -0.0344  1.3293
   23SAPC  C316 3099   2.112   2.210   8.491 -0.3577  0.2833 -0.3623
   23SAPC  H16X 3100   2.171   2.127   8.536  1.1817  0.5916 -1.7087
   23SAPC  H16Y 3101   2.170   2.303   8.471 -2.0094  1.0369 -1.9013
   23SAPC  C317 3102   2.062   2.155   8.365  0.6326  0.1746  0.2103
   23SAPC  H17X 3103   1.976   2.086   8.383 -1.6525  2.9898  0.8050
   23SAPC  H17Y 3104   2.139   2.089   8.320  1.2019  1.9816 -1.6170
   23SAPC  C318 3105   2.018   2.257   8.256  0.3899 -0.0550 -0.7199
   23SAPC  H18X 3106   1.920   2.307   8.270  0.1993 -0.7477  0.5380
   23SAPC  H18Y 3107   2.019   2.212   8.155  0.8810  0.8735 -1.1399
   23SAPC  H18Z 3108   2.093   2.339   8.265 -0.7317  0.8080  1.8001
   24SAPC     N 3109   5.816   1.087  10.997  0.2969 -0.9836  0.7174
   24SAPC   C12 3110   5.857   1.234  11.005  0.0517  0.3126 -0.2154
   24SAPC  H12A 3111   5.933   1.255  10.932  0.9528 -3.2688 -0.4858
   24SAPC  H12B 3112   5.909   1.252  11.098 -1.5086 -0.7756  0.9290
   24SAPC   C13 3113   5.746   1.069  10.866 -0.5485 -0.0182  0.6213
   24SAPC  H13A 3114   5.814   1.092  10.785  0.7031 -1.2800  1.2533
   24SAPC  H13B 3115   5.722   0.966  10.845  1.6503 -0.6447  0.8682
   24SAPC  H13C 3116   5.657   1.130  10.860 -0.8023 -0.4713 -0.7204
   24SAPC   C14 3117   5.934   1.001  11.005 -0.3243  0.0746 -0.4535
   24SAPC  H14A 3118   5.986   1.017  11.099 -1.9537  1.3046  0.2883
   24SAPC  H14B 3119   5.908   0.896  11.010  0.9818 -0.2017  1.6292
   24SAPC  H14C 3120   5.998   1.015  10.919  0.9586 -1.4743  0.1912
   24SAPC   C15 3121   5.721   1.040  11.100 -0.6616 -0.1227 -0.2718
   24SAPC  H15A 3122   5.765   1.044  11.198  2.6449 -3.5071 -1.3521
   24SAPC  H15B 3123   5.634   1.103  11.110 -0.2065  0.2032  2.4376
   24SAPC  H15C 3124   5.702   0.934  11.087 -0.4816  0.0984 -3.1618
   24SAPC   C11 3125   5.752   1.342  10.991  0.4519 -0.3538  0.3337
   24SAPC  H11A 3126   5.800   1.439  11.017  0.2662 -0.1102 -0.2100
   24SAPC  H11B 3127   5.669   1.323  11.063  0.0441  0.4489  0.0830
   24SAPC     P 3128   5.548   1.365  10.825  0.4178  0.2133  0.1550
   24SAPC   O13 3129   5.474   1.245  10.881 -0.1239 -0.2908 -0.5418
   24SAPC   O14 3130   5.512   1.496  10.876  0.4503  0.0859  0.3297
   24SAPC   O12 3131   5.701   1.342  10.852 -0.4686  0.2234 -0.4497
   24SAPC   O11 3132   5.534   1.374  10.666  0.5498  0.3704  0.3705
   24SAPC    C1 3133   5.617   1.429  10.575  0.4260  0.5327 -0.1000
   24SAPC    HA 3134   5.563   1.507  10.518 -0.9503 -0.1316  0.2698
   24SAPC    HB 3135   5.709   1.473  10.618 -0.9814  2.8601  0.6753
   24SAPC    C2 3136   5.660   1.326  10.469 -0.2144  0.0208 -0.2697
   24SAPC    HS 3137   5.727   1.374  10.394  0.8551  1.0694  1.2960
   24SAPC   O21 3138   5.546   1.274  10.405 -0.4703 -0.2093 -0.3186
   24SAPC   C21 3139   5.521   1.337  10.292  0.3957  0.6066  0.5809
   24SAPC   O22 3140   5.580   1.437  10.246 -0.1649  0.6841 -0.2837
   24SAPC   C22 3141   5.385   1.284  10.229 -1.0846 -0.2260 -0.5159
   24SAPC   H2R 3142   5.362   1.180  10.259  1.2857 -0.9266 -0.9543
   24SAPC   H2S 3143   5.313   1.360  10.267  0.7692  1.4179 -0.1356
   24SAPC    C3 3144   5.748   1.209  10.530  0.0178 -0.5209 -0.0582
   24SAPC    HX 3145   5.695   1.163  10.616  3.5763 -2.7446  1.2114
   24SAPC    HY 3146   5.836   1.256  10.579  0.5344 -1.5879  0.0684
   24SAPC   O31 3147   5.785   1.110  10.438  0.5409 -0.6833  0.4224
   24SAPC   C31 3148   5.786   0.976  10.476 -0.3582 -0.2174  0.3790
   24SAPC   O32 3149   5.773   0.940  10.590  0.6330 -0.1158  0.1865
   24SAPC   C32 3150   5.824   0.895  10.359 -0.7048  0.1057  0.8800
   24SAPC   H2X 3151   5.787   0.791  10.375 -3.0813  0.5190 -1.2492
   24SAPC   H2Y 3152   5.933   0.901  10.339 -0.7224  0.9013  0.9981
   24SAPC   C23 3153   5.371   1.298  10.080 -0.2818  0.5080  0.6457
   24SAPC   H3R 3154   5.441   1.231  10.026  0.6076  2.1239 -0.2783
   24SAPC   H3S 3155   5.404   1.396  10.040  2.9385 -0.2682  1.1514
   24SAPC   C24 3156   5.230   1.274  10.025 -0.1350  0.3235  0.6554
   24SAPC   H4R 3157   5.188   1.196  10.092  0.7470  0.1035  0.9678
   24SAPC   H4S 3158   5.243   1.231   9.924  0.2538 -2.6734  1.8815
   24SAPC   C25 3159   5.155   1.404  10.038  0.1044 -0.2434  0.1815
   24SAPC   H5R 3160   5.100   1.423  10.132  0.3421  0.1552  0.2410
   24SAPC   C26 3161   5.154   1.508   9.951  0.3823 -0.6872  0.7020
   24SAPC   H6R 3162   5.091   1.597   9.967  0.3366 -0.4102 -0.8859
   24SAPC   C27 3163   5.226   1.513   9.816 -0.6150 -0.5803 -0.1365
   24SAPC   H7R 3164   5.158   1.550   9.736  0.0299 -0.5908 -0.6968
   24SAPC   H7S 3165   5.274   1.421   9.779  2.5837  1.4392 -1.4688
   24SAPC   C28 3166   5.340   1.613   9.817 -0.4504 -0.1076 -1.0013
   24SAPC   H8R 3167   5.413   1.594   9.897 -1.5729  1.3757  0.4515
   24SAPC   C29 3168   5.361   1.716   9.734  1.0716  0.1778 -0.1711
   24SAPC   H9R 3169   5.453   1.777   9.734  1.9771 -1.0184 -2.7601
   24SAPC  C210 3170   5.262   1.759   9.623 -0.2762  0.1408 -0.0127
   24SAPC  H10R 3171   5.204   1.675   9.579  0.6390  0.6138 -2.2830
   24SAPC  H10S 3172   5.332   1.779   9.538  1.3372  0.0741  1.2535
   24SAPC  C211 3173   5.183   1.879   9.666 -0.2766 -0.0513  0.4820
   24SAPC  H11R 3174   5.120   1.869   9.756 -1.4538  1.5498 -0.1139
   24SAPC  C212 3175   5.184   2.000   9.604 -0.0688 -0.1081  0.1866
   24SAPC  H12R 3176   5.112   2.078   9.635  0.2044  1.7641 -3.4333
   24SAPC  C213 3177   5.257   2.033   9.479  0.4993  0.4416  0.0486
   24SAPC  H13R 3178   5.209   1.974   9.397 -1.3866  0.6955  0.9183
   24SAPC  H13S 3179   5.364   2.005   9.490  1.0447  2.0879 -0.6885
   24SAPC  C214 3180   5.247   2.176   9.440  0.8508 -0.2895  0.2680
   24SAPC  H14R 3181   5.252   2.255   9.516  1.8752  1.6328 -1.6750
   24SAPC  C215 3182   5.237   2.229   9.312 -0.1375 -0.1640 -0.2391
   24SAPC  H15R 3183   5.225   2.338   9.299 -0.6315 -0.2941 -0.9323
   24SAPC  C216 3184   5.240   2.159   9.181  0.6549  0.5791  0.5299
   24SAPC  H16R 3185   5.167   2.205   9.112  1.7624  1.5530 -0.0385
   24SAPC  H16S 3186   5.222   2.051   9.201  0.7614  0.8696  2.4011
   24SAPC  C217 3187   5.360   2.163   9.076 -1.0191  0.2763 -0.2261
   24SAPC  H17R 3188   5.403   2.265   9.065  1.2822 -0.1715  3.0185
   24SAPC  H17S 3189   5.326   2.114   8.982  0.6151 -0.1175 -0.6520
   24SAPC  C218 3190   5.484   2.067   9.120 -0.5714 -0.1803  0.2933
   24SAPC  H18R 3191   5.519   2.105   9.219 -1.1141  0.1307  0.3691
   24SAPC  H18S 3192   5.564   2.080   9.044  0.9686 -1.1748  1.6728
   24SAPC  C219 3193   5.462   1.919   9.114 -0.3069  0.0230 -0.6747
   24SAPC  H19R 3194   5.443   1.886   9.009  1.8535 -0.7436 -0.8866
   24SAPC  H19S 3195   5.371   1.892   9.171 -0.7523 -0.9424 -1.8006
   24SAPC  C220 3196   5.575   1.842   9.178 -0.3976 -0.2595  0.0129
   24SAPC  H20R 3197   5.672   1.888   9.147 -0.1114 -0.2688  0.8671
   24SAPC  H20S 3198   5.574   1.735   9.148 -0.0283 -0.3274  0.2326
   24SAPC  H20T 3199   5.571   1.861   9.288 -0.3704 -1.9832  0.3347
   24SAPC   C33 3200   5.746   0.937  10.231 -0.2247  0.4580  0.3980
   24SAPC   H3X 3201   5.793   0.891  10.141 -2.2428  0.6797 -0.8259
   24SAPC   H3Y 3202   5.752   1.046  10.211 -0.7226  0.5792  0.8919
   24SAPC   C34 3203   5.599   0.900  10.231 -0.1757  0.2879  0.5018
   24SAPC   H4X 3204   5.555   0.927  10.330  0.3436  1.2261  0.4849
   24SAPC   H4Y 3205   5.585   0.790  10.221 -0.8227  0.3173  1.0142
   24SAPC   C35 3206   5.517   0.966  10.114  0.8794  0.3205  0.2057
   24SAPC   H5X 3207   5.556   1.066  10.088  0.2390  0.7851  0.9861
   24SAPC   H5Y 3208   5.410   0.969  10.144  0.4822 -2.3696 -0.6738
   24SAPC   C36 3209   5.508   0.890   9.972  0.0239 -0.2585 -0.8778
   24SAPC   H6X 3210   5.482   0.784   9.991 -0.7527 -0.1474 -1.2947
   24SAPC   H6Y 3211   5.616   0.881   9.947  0.4593 -0.4763  0.9275
   24SAPC   C37 3212   5.421   0.959   9.866 -0.5908 -0.0333 -0.0032
   24SAPC   H7X 3213   5.325   0.989   9.912 -1.8871 -1.6196 -1.5183
   24SAPC   H7Y 3214   5.389   0.888   9.787  0.1582 -0.8216  0.3722
   24SAPC   C38 3215   5.496   1.067   9.783 -0.9224  0.4843 -1.3913
   24SAPC   H8X 3216   5.591   1.033   9.735 -0.6144 -0.7308 -0.0076
   24SAPC   H8Y 3217   5.514   1.157   9.846 -0.4068  0.7525 -1.9123
   24SAPC   C39 3218   5.407   1.114   9.673  0.1977 -0.2477 -0.6761
   24SAPC   H9X 3219   5.452   1.210   9.638 -0.5598  1.1623  2.0015
   24SAPC   H9Y 3220   5.310   1.151   9.711  1.9454  3.2476  0.7648
   24SAPC  C310 3221   5.391   1.014   9.555 -0.3437 -0.3356 -0.5360
   24SAPC  H10X 3222   5.332   0.928   9.594  0.8197  0.0788  2.4505
   24SAPC  H10Y 3223   5.489   0.968   9.529  0.1734 -1.2196  2.5532
   24SAPC  C311 3224   5.325   1.075   9.442  0.3416 -0.5170  0.3745
   24SAPC  H11X 3225   5.389   1.152   9.393 -0.3690  0.5650  1.1245
   24SAPC  H11Y 3226   5.236   1.131   9.475  0.5201 -0.5683  0.9452
   24SAPC  C312 3227   5.279   0.973   9.340  0.6941  0.0005 -0.4299
   24SAPC  H12X 3228   5.210   0.907   9.398  0.1847 -0.1501 -1.1972
   24SAPC  H12Y 3229   5.363   0.913   9.300 -0.9932 -1.8603 -1.3357
   24SAPC  C313 3230   5.210   1.041   9.218  0.3681  0.0002 -0.4190
   24SAPC  H13X 3231   5.265   1.135   9.194  0.8890 -0.6619 -1.9290
   24SAPC  H13Y 3232   5.107   1.077   9.241  0.0008 -1.2553 -0.0208
   24SAPC  C314 3233   5.224   0.948   9.094 -0.1895  0.5679 -0.2920
   24SAPC  H14X 3234   5.146   0.869   9.103 -0.6347  1.1463  1.1903
   24SAPC  H14Y 3235   5.321   0.896   9.081 -0.8100 -0.3838 -1.3897
   24SAPC  C315 3236   5.202   1.022   8.957 -0.0169 -0.5809 -0.6110
   24SAPC  H15X 3237   5.105   1.078   8.956  0.2181 -0.1475  0.0740
   24SAPC  H15Y 3238   5.208   0.944   8.879  0.5764 -0.8423 -0.3055
   24SAPC  C316 3239   5.312   1.120   8.925  0.2073  0.3766  0.0023
   24SAPC  H16X 3240   5.400   1.105   8.991 -0.7254 -3.5230  0.5764
   24SAPC  H16Y 3241   5.270   1.214   8.968 -0.5385  0.3225 -0.5846
   24SAPC  C317 3242   5.350   1.144   8.780 -0.4816  0.0535  0.1798
   24SAPC  H17X 3243   5.270   1.105   8.713  0.2473 -1.3635  0.0850
   24SAPC  H17Y 3244   5.434   1.073   8.762 -1.2998 -1.1724  1.0413
   24SAPC  C318 3245   5.406   1.283   8.739  0.5515  0.0286 -0.2996
   24SAPC  H18X 3246   5.411   1.280   8.628  0.3208 -4.4367 -0.3661
   24SAPC  H18Y 3247   5.508   1.308   8.776  0.5458  1.2097 -1.0127
   24SAPC  H18Z 3248   5.334   1.365   8.758 -0.3371 -0.1673 -2.5416
   25SAPC     N 3249   4.112   5.676   5.717 -0.6740 -0.1921  0.7922
   25SAPC   C12 3250   4.053   5.743   5.842  0.4215  0.2703  0.2715
   25SAPC  H12A 3251   3.961   5.790   5.813  0.5451  2.3075  2.8105
   25SAPC  H12B 3252   4.112   5.828   5.873  0.2924  0.9888 -1.3468
   25SAPC   C13 3253   4.002   5.582   5.676  0.1095 -0.5040 -0.0090
   25SAPC  H13A 3254   3.991   5.496   5.740 -1.9212 -1.3475 -1.4023
   25SAPC  H13B 3255   3.907   5.632   5.685  0.3652 -0.1635  0.9683
   25SAPC  H13C 3256   4.015   5.543   5.576 -0.3550 -0.1513 -0.2069
   25SAPC   C14 3257   4.128   5.781   5.614  0.2371 -0.8519 -0.2892
   25SAPC  H14A 3258   4.151   5.741   5.517 -1.4516 -0.0116 -1.0695
   25SAPC  H14B 3259   4.031   5.827   5.605 -0.0936 -1.3117  0.7174
   25SAPC  H14C 3260   4.205   5.854   5.633 -0.2797 -0.1859 -0.7164
   25SAPC   C15 3261   4.237   5.602   5.736  0.2963 -0.0906  0.2740
   25SAPC  H15A 3262   4.273   5.554   5.646  1.6826 -0.6779  1.1273
   25SAPC  H15B 3263   4.311   5.679   5.753  0.5433  0.2332 -1.9444
   25SAPC  H15C 3264   4.234   5.528   5.814  1.9188 -0.1748  0.2908
   25SAPC   C11 3265   4.032   5.652   5.962 -0.2953  0.1720 -0.3482
   25SAPC  H11A 3266   3.983   5.555   5.943  0.2162 -0.4249  1.1951
   25SAPC  H11B 3267   3.967   5.708   6.033  0.8014  0.2184  0.6571
   25SAPC     P 3268   4.232   5.721   6.115  0.0946  0.2263  0.1939
   25SAPC   O13 3269   4.310   5.639   6.203  0.6537  0.5985 -0.0783
   25SAPC   O14 3270   4.305   5.827   6.043  0.8392 -0.0314  0.2850
   25SAPC   O12 3271   4.159   5.621   6.020 -0.2269 -0.0742  0.0619
   25SAPC   O11 3272   4.123   5.794   6.199 -0.2323  0.9798  0.1443
   25SAPC    C1 3273   4.071   5.727   6.314 -0.2407  0.6071 -0.1893
   25SAPC    HA 3274   4.057   5.618   6.298  0.7949  0.2943  0.8712
   25SAPC    HB 3275   4.140   5.733   6.401  1.2449 -0.5980 -1.2277
   25SAPC    C2 3276   3.945   5.790   6.363  0.1571 -0.4143  0.1105
   25SAPC    HS 3277   3.882   5.800   6.273 -0.4379 -0.1848  0.5458
   25SAPC   O21 3278   3.986   5.923   6.406  1.2554 -0.3184 -0.2036
   25SAPC   C21 3279   3.881   6.017   6.406 -0.0032  0.8446  0.1070
   25SAPC   O22 3280   3.778   5.997   6.344 -0.2669  0.0808 -0.1453
   25SAPC   C22 3281   3.922   6.138   6.487  0.3119  0.3588  0.4580
   25SAPC   H2R 3282   3.973   6.118   6.584 -1.0962  0.2122  1.1995
   25SAPC   H2S 3283   3.992   6.195   6.422 -0.3262 -0.5786 -1.1235
   25SAPC    C3 3284   3.897   5.701   6.481  0.0437 -0.0960  0.3509
   25SAPC    HX 3285   3.971   5.701   6.564 -0.3791  1.0756  0.7626
   25SAPC    HY 3286   3.887   5.601   6.435 -0.0763  0.4268 -0.7825
   25SAPC   O31 3287   3.775   5.750   6.538  0.0120  0.6131  0.1820
   25SAPC   C31 3288   3.663   5.705   6.489 -0.1845  0.6958 -0.2765
   25SAPC   O32 3289   3.644   5.616   6.407  0.1295  0.1183 -0.3109
   25SAPC   C32 3290   3.552   5.771   6.578  0.7565  0.3059  0.3789
   25SAPC   H2X 3291   3.542   5.882   6.571  1.5334  0.3806  0.4526
   25SAPC   H2Y 3292   3.567   5.739   6.683  0.8171  0.7398  0.5052
   25SAPC   C23 3293   3.797   6.232   6.512 -0.0239  0.3723 -0.2603
   25SAPC   H3R 3294   3.754   6.256   6.413 -0.0879 -1.3216 -0.6717
   25SAPC   H3S 3295   3.849   6.320   6.555  2.2090 -1.0878  0.2261
   25SAPC   C24 3296   3.687   6.185   6.608 -0.5573 -0.8765  0.5680
   25SAPC   H4R 3297   3.739   6.127   6.687  2.4427 -0.8362 -1.2281
   25SAPC   H4S 3298   3.631   6.124   6.534  0.4137  0.3148 -1.2175
   25SAPC   C25 3299   3.605   6.296   6.663  0.9148 -0.2882 -0.3280
   25SAPC   H5R 3300   3.538   6.351   6.596  1.6998  2.3877  0.9288
   25SAPC   C26 3301   3.587   6.342   6.790 -0.6158  0.0482 -0.0701
   25SAPC   H6R 3302   3.506   6.413   6.809  1.4388  2.9776 -1.4635
   25SAPC   C27 3303   3.663   6.282   6.907 -0.1633  0.0064 -0.1831
   25SAPC   H7R 3304   3.733   6.202   6.875 -0.2218 -0.0334 -0.2126
   25SAPC   H7S 3305   3.599   6.217   6.971  2.1824 -0.0901  2.2345
   25SAPC   C28 3306   3.753   6.368   6.986  0.3109 -0.8944  0.3688
   25SAPC   H8R 3307   3.837   6.412   6.931 -1.1137  1.0338 -0.3977
   25SAPC   C29 3308   3.748   6.392   7.117  0.2022 -0.0911  0.2674
   25SAPC   H9R 3309   3.818   6.462   7.163  0.3796  0.4507 -0.7920
   25SAPC  C210 3310   3.652   6.321   7.213 -0.4311  0.3633  1.0109
   25SAPC  H10R 3311   3.609   6.228   7.170  0.7404  0.3965 -0.3250
   25SAPC  H10S 3312   3.560   6.381   7.227 -0.4958  0.3696  0.5962
   25SAPC  C211 3313   3.699   6.297   7.351 -1.1660  0.2780  0.6492
   25SAPC  H11R 3314   3.776   6.371   7.380 -1.6339  1.1680 -0.2899
   25SAPC  C212 3315   3.652   6.214   7.439 -0.3525 -0.5530 -0.1088
   25SAPC  H12R 3316   3.699   6.217   7.538 -1.1148  1.0557  0.2307
   25SAPC  C213 3317   3.544   6.117   7.428 -0.0352 -0.1134 -0.3000
   25SAPC  H13R 3318   3.480   6.141   7.340  1.9754 -0.2101 -1.8531
   25SAPC  H13S 3319   3.478   6.124   7.518 -1.6918 -0.8470 -1.4021
   25SAPC  C214 3320   3.594   5.970   7.407 -0.0254  0.1371 -0.2057
   25SAPC  H14R 3321   3.587   5.931   7.304 -0.5855  1.0847 -0.5479
   25SAPC  C215 3322   3.646   5.883   7.498 -0.2595 -0.8295 -0.2480
   25SAPC  H15R 3323   3.678   5.783   7.465  1.3936 -1.0353  1.8327
   25SAPC  C216 3324   3.667   5.906   7.650 -0.0908  1.1304  1.0009
   25SAPC  H16R 3325   3.692   6.008   7.685  2.4992  0.2600  1.8668
   25SAPC  H16S 3326   3.739   5.828   7.681 -1.2169 -1.4230 -2.1960
   25SAPC  C217 3327   3.535   5.865   7.718 -0.0084  0.2920 -0.3347
   25SAPC  H17R 3328   3.499   5.780   7.657  0.4454  1.4163 -2.2766
   25SAPC  H17S 3329   3.460   5.947   7.729  1.9466  1.9557  1.5540
   25SAPC  C218 3330   3.550   5.813   7.863 -0.2984  0.0031  0.3073
   25SAPC  H18R 3331   3.616   5.881   7.921 -0.4645 -0.0625  0.5752
   25SAPC  H18S 3332   3.595   5.712   7.856  0.3204  0.3550 -1.1639
   25SAPC  C219 3333   3.421   5.791   7.932 -0.0911  0.1110 -0.3245
   25SAPC  H19R 3334   3.358   5.719   7.875  1.1884 -2.2724  1.1222
   25SAPC  H19S 3335   3.366   5.887   7.939  0.8864  0.6141  0.8305
   25SAPC  C220 3336   3.436   5.725   8.068 -0.5482 -0.2442 -0.3759
   25SAPC  H20R 3337   3.344   5.735   8.128  0.5967  0.1435  1.3927
   25SAPC  H20S 3338   3.521   5.776   8.118 -0.5812 -0.3140 -0.2501
   25SAPC  H20T 3339   3.457   5.617   8.056  0.0343 -0.3048  1.0352
   25SAPC   C33 3340   3.413   5.712   6.529  0.1885  0.8332 -0.1965
   25SAPC   H3X 3341   3.399   5.728   6.420  3.6372  1.2298 -0.6925
   25SAPC   H3Y 3342   3.331   5.766   6.582 -0.2177  0.1458 -0.1125
   25SAPC   C34 3343   3.390   5.563   6.546  0.0928  0.3594  0.5913
   25SAPC   H4X 3344   3.463   5.502   6.488 -1.1309  3.3445 -4.7515
   25SAPC   H4Y 3345   3.289   5.533   6.511  0.5681  0.2949 -0.8116
   25SAPC   C35 3346   3.414   5.517   6.697 -0.3674  0.0343 -0.0694
   25SAPC   H5X 3347   3.517   5.550   6.723 -0.0712 -1.8638  1.3851
   25SAPC   H5Y 3348   3.402   5.406   6.690  0.1735 -0.0576  0.3284
   25SAPC   C36 3349   3.305   5.563   6.798  0.4334 -0.1165 -0.4604
   25SAPC   H6X 3350   3.214   5.498   6.797  0.9863 -0.9031 -0.5811
   25SAPC   H6Y 3351   3.272   5.667   6.775  0.2098 -0.2116 -0.5801
   25SAPC   C37 3352   3.355   5.530   6.945  1.0005 -0.6403  0.2648
   25SAPC   H7X 3353   3.407   5.435   6.967  0.0999 -0.7478  2.1181
   25SAPC   H7Y 3354   3.257   5.538   6.998  0.0954 -1.2066 -1.2429
   25SAPC   C38 3355   3.452   5.642   6.990  0.3766 -0.6393 -0.2204
   25SAPC   H8X 3356   3.394   5.733   6.965 -1.1249 -1.1875  1.1000
   25SAPC   H8Y 3357   3.542   5.639   6.925 -0.0483 -0.7628 -0.8092
   25SAPC   C39 3358   3.506   5.630   7.131  0.4107  0.4804 -0.5748
   25SAPC   H9X 3359   3.594   5.697   7.147  0.3111  0.3537  0.5846
   25SAPC   H9Y 3360   3.526   5.522   7.151 -0.3533  0.6421  1.1888
   25SAPC  C310 3361   3.395   5.685   7.223  0.0299  0.7779 -0.0905
   25SAPC  H10X 3362   3.296   5.666   7.177  0.1504 -1.3208  0.4423
   25SAPC  H10Y 3363   3.413   5.795   7.219  0.3025  0.7926  1.1876
   25SAPC  C311 3364   3.402   5.626   7.364  0.5180 -0.6504  0.0163
   25SAPC  H11X 3365   3.341   5.680   7.439 -0.0635  0.1863 -1.0280
   25SAPC  H11Y 3366   3.508   5.607   7.392  1.0714  0.8957 -0.9396
   25SAPC  C312 3367   3.348   5.485   7.377 -0.2212  0.6626  0.2791
   25SAPC  H12X 3368   3.374   5.434   7.282 -0.6689  0.1580  0.4230
   25SAPC  H12Y 3369   3.237   5.478   7.374 -0.1255 -1.2830 -0.6452
   25SAPC  C313 3370   3.402   5.392   7.492 -0.2414 -0.2197 -0.4044
   25SAPC  H13X 3371   3.511   5.407   7.511 -0.4314  0.4751  0.1800
   25SAPC  H13Y 3372   3.388   5.289   7.451 -2.2668  0.3959 -1.3783
   25SAPC  C314 3373   3.335   5.404   7.632  0.1023 -0.3310 -0.0554
   25SAPC  H14X 3374   3.230   5.367   7.628 -0.0936 -0.1007  1.9488
   25SAPC  H14Y 3375   3.335   5.513   7.657 -0.4498 -0.3468  0.0285
   25SAPC  C315 3376   3.403   5.319   7.733 -1.0087 -0.3388 -0.1298
   25SAPC  H15X 3377   3.511   5.345   7.737 -0.2080 -3.3321  0.5698
   25SAPC  H15Y 3378   3.414   5.221   7.681  0.5034  0.2452 -0.9816
   25SAPC  C316 3379   3.335   5.303   7.868  0.5008 -0.4582  0.0698
   25SAPC  H16X 3380   3.225   5.299   7.857  0.1218 -1.3794  3.2415
   25SAPC  H16Y 3381   3.349   5.392   7.934  1.3225 -1.5458  1.4359
   25SAPC  C317 3382   3.376   5.171   7.940 -0.1934  0.8316  0.2254
   25SAPC  H17X 3383   3.484   5.146   7.932 -0.7385 -1.6169 -0.3292
   25SAPC  H17Y 3384   3.318   5.096   7.881 -2.2784 -0.1691  3.3181
   25SAPC  C318 3385   3.329   5.154   8.078  0.1013  0.5086  0.8204
   25SAPC  H18X 3386   3.365   5.234   8.145 -0.8199  2.6814 -1.1371
   25SAPC  H18Y 3387   3.368   5.060   8.123  0.0719  0.2957  0.4049
   25SAPC  H18Z 3388   3.218   5.151   8.084 -0.0971 -0.6236 -1.8474
   26SAPC     N 3389   1.890   0.996   6.304  0.8235 -0.1657 -0.0284
   26SAPC   C12 3390   1.964   1.029   6.181  0.8402  0.9489 -0.1176
   26SAPC  H12A 3391   1.925   0.962   6.105  0.9104  0.1306  0.5587
   26SAPC  H12B 3392   2.065   0.993   6.196  1.2364  2.1656  0.2083
   26SAPC   C13 3393   1.949   1.060   6.424  0.1491 -0.8696  0.3978
   26SAPC  H13A 3394   1.956   1.166   6.402 -1.7446 -0.9510 -0.8584
   26SAPC  H13B 3395   1.891   1.047   6.514 -2.3194 -0.6834 -1.0533
   26SAPC  H13C 3396   2.054   1.037   6.436  0.4461 -0.2991 -0.8980
   26SAPC   C14 3397   1.744   1.040   6.280  0.3578 -0.4571 -0.4978
   26SAPC  H14A 3398   1.698   0.973   6.208 -1.4836  0.8918 -0.6687
   26SAPC  H14B 3399   1.686   1.021   6.369  0.6839 -0.8674 -0.3716
   26SAPC  H14C 3400   1.739   1.143   6.247 -0.5254 -0.9199 -1.9238
   26SAPC   C15 3401   1.896   0.855   6.324  0.1503  0.4802  0.2263
   26SAPC  H15A 3402   1.831   0.828   6.406 -0.3324 -1.8477 -0.8283
   26SAPC  H15B 3403   1.849   0.794   6.249  0.1515 -1.2244  1.5502
   26SAPC  H15C 3404   1.993   0.818   6.355  1.1751  2.7131 -0.1049
   26SAPC   C11 3405   1.987   1.176   6.137 -0.0472  0.0316  0.3784
   26SAPC  H11A 3406   1.886   1.221   6.124  0.5227  1.5499  0.8652
   26SAPC  H11B 3407   2.042   1.169   6.041  2.3799  0.0451  1.6975
   26SAPC     P 3408   2.213   1.267   6.230  0.3086 -0.0208 -0.0205
   26SAPC   O13 3409   2.277   1.144   6.271 -0.1928  0.1965  0.4583
   26SAPC   O14 3410   2.248   1.330   6.099 -0.6615 -0.2644 -0.8596
   26SAPC   O12 3411   2.052   1.249   6.238  0.6308  0.1302  0.1938
   26SAPC   O11 3412   2.217   1.382   6.347 -0.2954 -0.0665 -0.3198
   26SAPC    C1 3413   2.340   1.395   6.420 -0.1234 -0.5882 -0.1821
   26SAPC    HA 3414   2.416   1.315   6.404  1.9850  0.8454  1.9394
   26SAPC    HB 3415   2.394   1.491   6.406  0.5224 -0.9849 -0.5135
   26SAPC    C2 3416   2.304   1.383   6.573 -0.2202 -0.4734  0.9310
   26SAPC    HS 3417   2.279   1.276   6.587  1.5788 -0.8591  1.5070
   26SAPC   O21 3418   2.199   1.480   6.604 -0.6897 -0.0814  0.3369
   26SAPC   C21 3419   2.104   1.437   6.675 -0.4955 -0.0675 -0.2923
   26SAPC   O22 3420   2.102   1.329   6.736  0.6698 -0.0553  0.4464
   26SAPC   C22 3421   2.001   1.542   6.693 -0.6311 -0.8608  0.6715
   26SAPC   H2R 3422   2.042   1.645   6.684 -0.4117 -1.0898 -1.3957
   26SAPC   H2S 3423   1.943   1.529   6.599  0.7175 -1.0182 -0.1654
   26SAPC    C3 3424   2.423   1.410   6.666  0.4900 -0.3812  0.2681
   26SAPC    HX 3425   2.433   1.521   6.665 -0.5583 -0.2305 -2.3624
   26SAPC    HY 3426   2.515   1.366   6.621 -0.0800  0.1372 -1.4807
   26SAPC   O31 3427   2.405   1.362   6.803 -0.5622 -0.0410  0.3748
   26SAPC   C31 3428   2.390   1.229   6.823  0.0511  0.1091 -0.6323
   26SAPC   O32 3429   2.418   1.139   6.743  0.3386 -0.5506 -0.2763
   26SAPC   C32 3430   2.351   1.196   6.973 -0.2702  0.3770 -0.2291
   26SAPC   H2X 3431   2.288   1.282   7.002 -1.9472 -1.0631  0.5990
   26SAPC   H2Y 3432   2.445   1.208   7.031 -1.3644  0.1833  1.6678
   26SAPC   C23 3433   1.931   1.532   6.822  0.2623 -0.2661  0.4055
   26SAPC   H3R 3434   1.990   1.559   6.913 -0.7857  0.7197  0.8139
   26SAPC   H3S 3435   1.900   1.425   6.825 -2.6315  0.3511 -2.7158
   26SAPC   C24 3436   1.804   1.616   6.810 -1.0046  0.3588  0.3082
   26SAPC   H4R 3437   1.731   1.568   6.880 -0.9730  1.3824  1.0679
   26SAPC   H4S 3438   1.765   1.610   6.706  0.9147  0.2294 -0.4308
   26SAPC   C25 3439   1.833   1.756   6.839 -0.1510  0.3105  0.7931
   26SAPC   H5R 3440   1.888   1.795   6.752 -2.2556 -3.1180 -2.3571
   26SAPC   C26 3441   1.805   1.835   6.944  0.0324 -0.8029 -0.0275
   26SAPC   H6R 3442   1.816   1.943   6.927  0.5515 -0.8176  0.1965
   26SAPC   C27 3443   1.740   1.776   7.066 -0.3509  0.2234 -0.8119
   26SAPC   H7R 3444   1.781   1.673   7.079 -2.2061 -0.4381  0.1185
   26SAPC   H7S 3445   1.631   1.759   7.053 -0.7527  0.6297  1.5464
   26SAPC   C28 3446   1.769   1.866   7.187  0.5027 -0.0877 -0.1230
   26SAPC   H8R 3447   1.827   1.958   7.168 -1.9925  1.8568  1.1063
   26SAPC   C29 3448   1.720   1.845   7.312 -0.2532  0.3709  0.5916
   26SAPC   H9R 3449   1.756   1.900   7.400  0.0684  3.0617 -1.0873
   26SAPC  C210 3450   1.636   1.722   7.351 -0.0267  0.2560 -0.0819
   26SAPC  H10R 3451   1.678   1.696   7.450  1.1306 -1.8004 -1.0438
   26SAPC  H10S 3452   1.655   1.635   7.285 -0.5702 -1.2378  1.6525
   26SAPC  C211 3453   1.489   1.737   7.327 -0.2278 -0.1563 -0.7173
   26SAPC  H11R 3454   1.463   1.799   7.240  0.6068  4.5696  2.0861
   26SAPC  C212 3455   1.389   1.683   7.396 -0.5346 -0.2145  0.7588
   26SAPC  H12R 3456   1.284   1.703   7.372 -0.3177 -0.6060 -0.5649
   26SAPC  C213 3457   1.414   1.601   7.518  1.2032 -0.1461 -0.4250
   26SAPC  H13R 3458   1.514   1.556   7.537  0.8706 -1.0723 -0.8113
   26SAPC  H13S 3459   1.341   1.519   7.500  1.3404 -0.0505 -1.4922
   26SAPC  C214 3460   1.374   1.689   7.638 -0.3614  0.8833 -0.3641
   26SAPC  H14R 3461   1.368   1.798   7.621  2.3703  1.2695  0.6538
   26SAPC  C215 3462   1.350   1.640   7.763 -0.2184 -1.0083  0.3557
   26SAPC  H15R 3463   1.312   1.712   7.837 -2.8651 -2.2340  0.3145
   26SAPC  C216 3464   1.351   1.505   7.816  0.5547 -0.4132  1.4330
   26SAPC  H16R 3465   1.423   1.443   7.759  1.2398 -0.3222  2.1823
   26SAPC  H16S 3466   1.252   1.459   7.792  0.0228  0.4955  1.8666
   26SAPC  C217 3467   1.382   1.494   7.966  0.3698  0.9086 -0.8647
   26SAPC  H17R 3468   1.316   1.572   8.011 -0.4344  0.0075 -0.4290
   26SAPC  H17S 3469   1.489   1.517   7.981  0.3210 -0.0763  1.4019
   26SAPC  C218 3470   1.374   1.353   8.033 -0.5127 -0.1611  0.2980
   26SAPC  H18R 3471   1.404   1.367   8.139 -0.7026 -0.0859  0.3436
   26SAPC  H18S 3472   1.460   1.292   7.998  0.2861  0.8125  0.5116
   26SAPC  C219 3473   1.243   1.272   8.022  0.0703 -0.5675 -0.5733
   26SAPC  H19R 3474   1.245   1.207   7.932 -3.3268 -2.8454  0.7902
   26SAPC  H19S 3475   1.162   1.347   8.013 -1.1173 -1.6317  0.8795
   26SAPC  C220 3476   1.228   1.176   8.136 -0.3574 -0.2207 -0.5780
   26SAPC  H20R 3477   1.309   1.104   8.158  0.1381  0.2307 -0.9077
   26SAPC  H20S 3478   1.133   1.119   8.125 -0.8392  0.7381 -1.6313
   26SAPC  H20T 3479   1.222   1.236   8.229  0.2206 -2.6355  1.1238
   26SAPC   C33 3480   2.267   1.070   6.994  0.2301 -0.1639 -0.4617
   26SAPC   H3X 3481   2.310   1.011   7.078  1.9922  1.8138  0.1274
   26SAPC   H3Y 3482   2.271   1.012   6.899  1.5842 -0.4742 -0.2406
   26SAPC   C34 3483   2.115   1.101   7.028  0.1682 -0.4682 -0.6537
   26SAPC   H4X 3484   2.056   1.009   7.007  0.0860 -0.8773  1.2017
   26SAPC   H4Y 3485   2.091   1.181   6.956  2.4928  1.7342  0.8449
   26SAPC   C35 3486   2.088   1.154   7.170  0.4121  0.1679  0.9025
   26SAPC   H5X 3487   1.984   1.193   7.179  0.7418  0.7630  2.6027
   26SAPC   H5Y 3488   2.143   1.248   7.192 -1.9209  1.6127  0.9987
   26SAPC   C36 3489   2.127   1.053   7.273  0.4768  0.3763 -0.7296
   26SAPC   H6X 3490   2.235   1.027   7.267  0.0696 -1.5955 -0.1226
   26SAPC   H6Y 3491   2.084   0.954   7.249  1.7626 -1.1545  2.6855
   26SAPC   C37 3492   2.094   1.090   7.421  0.0620 -0.1391 -0.3179
   26SAPC   H7X 3493   1.984   1.100   7.433  0.2608 -0.3923  2.4723
   26SAPC   H7Y 3494   2.140   1.189   7.440  0.1884 -0.2721  0.0853
   26SAPC   C38 3495   2.159   0.991   7.513  0.3697  0.0463 -0.4683
   26SAPC   H8X 3496   2.266   0.977   7.487  0.6610  0.6843  0.3220
   26SAPC   H8Y 3497   2.104   0.896   7.497 -2.4756  1.3219  1.0045
   26SAPC   C39 3498   2.151   1.011   7.659  0.1775  0.1157 -0.0991
   26SAPC   H9X 3499   2.046   1.034   7.689  0.3595  2.4573 -1.0184
   26SAPC   H9Y 3500   2.211   1.101   7.684 -0.6888  0.3499  1.2623
   26SAPC  C310 3501   2.209   0.895   7.744 -0.0827 -0.4282 -0.3301
   26SAPC  H10X 3502   2.308   0.869   7.701  0.2069 -0.6698  0.4550
   26SAPC  H10Y 3503   2.149   0.801   7.741 -2.4191  0.9029  1.1758
   26SAPC  C311 3504   2.228   0.919   7.897 -0.8119  0.1489 -0.0494
   26SAPC  H11X 3505   2.137   0.970   7.935 -0.4272  0.5716  0.3210
   26SAPC  H11Y 3506   2.302   0.997   7.924  0.4773 -1.8514  2.7009
   26SAPC  C312 3507   2.270   0.792   7.973 -0.5778 -0.5255 -0.0413
   26SAPC  H12X 3508   2.366   0.746   7.942 -0.6191  0.0997 -1.1672
   26SAPC  H12Y 3509   2.187   0.719   7.966 -0.1571 -1.0392  0.1981
   26SAPC  C313 3510   2.297   0.819   8.127 -0.1848 -0.6371  0.2437
   26SAPC  H13X 3511   2.205   0.844   8.184  0.2134 -0.0318  0.6360
   26SAPC  H13Y 3512   2.366   0.906   8.137 -1.6713  0.5415  0.6005
   26SAPC  C314 3513   2.373   0.697   8.185 -0.4023 -0.4297  0.0833
   26SAPC  H14X 3514   2.471   0.689   8.133 -0.7261 -2.2099 -0.3155
   26SAPC  H14Y 3515   2.316   0.604   8.165  0.6564 -1.1580  0.3566
   26SAPC  C315 3516   2.396   0.717   8.334 -0.3160 -0.3846  0.5667
   26SAPC  H15X 3517   2.293   0.721   8.376 -1.8407  2.1253 -2.9066
   26SAPC  H15Y 3518   2.444   0.815   8.355 -0.6870 -0.1467  0.3137
   26SAPC  C316 3519   2.470   0.605   8.402 -0.1937  0.2809  0.0881
   26SAPC  H16X 3520   2.423   0.508   8.375 -1.8463  0.8349  0.7908
   26SAPC  H16Y 3521   2.452   0.613   8.511 -1.4185  0.7507 -0.1239
   26SAPC  C317 3522   2.621   0.615   8.384 -0.4809  0.4400  0.2145
   26SAPC  H17X 3523   2.660   0.710   8.426 -1.1531 -0.2720  2.5769
   26SAPC  H17Y 3524   2.628   0.616   8.273 -2.6329 -1.4861 -0.0155
   26SAPC  C318 3525   2.683   0.489   8.437 -0.4922  0.5285 -0.7660
   26SAPC  H18X 3526   2.648   0.400   8.380  0.9678 -1.4924  1.3199
   26SAPC  H18Y 3527   2.664   0.482   8.547  2.8394 -0.9645 -0.1411
   26SAPC  H18Z 3528   2.793   0.499   8.430 -0.2741 -0.7726  0.3371
   27SAPC     N 3529   5.847   6.710   6.473  0.0522 -0.1649  0.1531
   27SAPC   C12 3530   5.990   6.662   6.456  0.1536 -0.2452 -0.8281
   27SAPC  H12A 3531   6.046   6.751   6.482  1.4046 -1.5126  1.0549
   27SAPC  H12B 3532   6.015   6.644   6.353  2.7912 -0.5583 -0.1904
   27SAPC   C13 3533   5.815   6.812   6.367  0.3162 -0.6203 -0.4848
   27SAPC  H13A 3534   5.876   6.900   6.383  2.3475 -2.1405  0.6678
   27SAPC  H13B 3535   5.834   6.767   6.270 -1.4199 -0.8637 -0.7339
   27SAPC  H13C 3536   5.708   6.822   6.374  0.3026 -1.3811  0.5465
   27SAPC   C14 3537   5.747   6.600   6.473 -0.5740 -0.8645  0.9420
   27SAPC  H14A 3538   5.737   6.543   6.382 -1.1337 -0.2221  0.5884
   27SAPC  H14B 3539   5.758   6.529   6.553  1.0828 -2.1555 -0.3670
   27SAPC  H14C 3540   5.647   6.639   6.485  0.0322  0.9130  0.5721
   27SAPC   C15 3541   5.835   6.776   6.613  0.6291  0.3070  1.1197
   27SAPC  H15A 3542   5.905   6.856   6.624 -0.5257  1.3268  1.2598
   27SAPC  H15B 3543   5.731   6.799   6.634  0.1075 -1.9619  1.3216
   27SAPC  H15C 3544   5.860   6.700   6.687 -1.1695 -1.6293 -0.1191
   27SAPC   C11 3545   6.046   6.555   6.562 -0.4773  0.3717  0.1267
   27SAPC  H11A 3546   5.994   6.461   6.533 -2.6205  1.4958  0.0720
   27SAPC  H11B 3547   6.008   6.580   6.663  0.3487 -0.7000  0.7205
   27SAPC     P 3548   6.279   6.657   6.635 -0.2301  0.5083 -0.0413
   27SAPC   O13 3549   6.422   6.615   6.641 -0.4659  0.2519 -0.0228
   27SAPC   O14 3550   6.259   6.781   6.558 -0.4857  0.1127  0.2951
   27SAPC   O12 3551   6.192   6.544   6.561  0.0220 -0.0818 -0.0787
   27SAPC   O11 3552   6.215   6.671   6.776 -0.3561  0.0672  0.4578
   27SAPC    C1 3553   6.191   6.551   6.846  0.1513  0.0136 -0.4974
   27SAPC    HA 3554   6.096   6.563   6.903 -0.3407 -0.2550 -1.2528
   27SAPC    HB 3555   6.170   6.464   6.780 -2.7629  2.8461 -3.6537
   27SAPC    C2 3556   6.300   6.531   6.951  0.0410 -0.5410 -0.6524
   27SAPC    HS 3557   6.382   6.486   6.891  0.1891  0.4798 -1.2404
   27SAPC   O21 3558   6.255   6.446   7.059 -0.4224 -0.7997  0.3098
   27SAPC   C21 3559   6.228   6.322   7.023  0.0824 -0.0065 -0.4119
   27SAPC   O22 3560   6.227   6.276   6.913 -0.3468  0.5057  0.4912
   27SAPC   C22 3561   6.181   6.246   7.144  0.5755  0.8573  0.3776
   27SAPC   H2R 3562   6.256   6.186   7.200  1.4511  0.7843 -0.8267
   27SAPC   H2S 3563   6.129   6.317   7.211  0.9291 -0.9378  2.6886
   27SAPC    C3 3564   6.349   6.668   7.011  0.6895  0.1856 -0.2364
   27SAPC    HX 3565   6.258   6.728   7.031  2.0161  1.4108  2.6394
   27SAPC    HY 3566   6.402   6.722   6.930  2.2346 -0.5813  0.2310
   27SAPC   O31 3567   6.429   6.644   7.130  0.0100  0.0622  0.0790
   27SAPC   C31 3568   6.474   6.757   7.179 -0.6086  0.1529  0.3619
   27SAPC   O32 3569   6.447   6.872   7.144  0.4225  0.1653  0.8593
   27SAPC   C32 3570   6.565   6.718   7.294  0.3743  0.3427  0.0321
   27SAPC   H2X 3571   6.648   6.662   7.245  0.0729  1.2013 -1.5042
   27SAPC   H2Y 3572   6.512   6.653   7.367  0.9814  0.3128  0.4550
   27SAPC   C23 3573   6.074   6.136   7.105 -0.1148  0.1178 -0.4463
   27SAPC   H3R 3574   6.124   6.062   7.039  0.0891  1.1124 -1.4442
   27SAPC   H3S 3575   5.994   6.193   7.053  1.2356  0.8873 -1.8024
   27SAPC   C24 3576   6.028   6.071   7.242  0.3074 -0.3666  0.0465
   27SAPC   H4R 3577   6.127   6.031   7.273  1.6354  0.2500 -3.1127
   27SAPC   H4S 3578   5.964   5.990   7.201  1.1441  0.2096 -2.5643
   27SAPC   C25 3579   5.948   6.159   7.338  0.1304  0.0417 -0.0853
   27SAPC   H5R 3580   5.873   6.231   7.304 -0.3106 -0.2058  0.3477
   27SAPC   C26 3581   5.968   6.166   7.473  0.4734  0.4420 -0.1896
   27SAPC   H6R 3582   5.909   6.233   7.538  0.8086  0.9236 -0.3751
   27SAPC   C27 3583   6.062   6.073   7.540  0.0493  0.2403  0.7817
   27SAPC   H7R 3584   6.161   6.094   7.494 -0.2878  0.2134  0.0279
   27SAPC   H7S 3585   6.030   5.967   7.524  2.8762 -0.3829 -1.4564
   27SAPC   C28 3586   6.070   6.097   7.690 -0.7351  0.3253  0.2687
   27SAPC   H8R 3587   5.991   6.052   7.751 -0.3486  0.6217  1.0071
   27SAPC   C29 3588   6.175   6.157   7.761 -0.0352  0.3034  0.4409
   27SAPC   H9R 3589   6.168   6.166   7.870  1.5571 -2.1334  0.8315
   27SAPC  C210 3590   6.305   6.197   7.704  0.5341 -0.2131 -0.5595
   27SAPC  H10R 3591   6.329   6.141   7.611  0.9126 -0.5650 -0.2564
   27SAPC  H10S 3592   6.379   6.154   7.775 -0.7465  1.8844  2.1950
   27SAPC  C211 3593   6.329   6.341   7.677 -0.1781 -0.1130  0.7091
   27SAPC  H11R 3594   6.330   6.368   7.571  4.4408 -1.4941  0.1689
   27SAPC  C212 3595   6.360   6.430   7.770 -0.1291 -0.3501 -0.4731
   27SAPC  H12R 3596   6.380   6.532   7.735  2.1441 -1.3688 -2.4168
   27SAPC  C213 3597   6.374   6.397   7.924  0.2758 -0.1440  0.1268
   27SAPC  H13R 3598   6.479   6.411   7.959 -0.4409  0.8777  2.0088
   27SAPC  H13S 3599   6.364   6.288   7.943 -0.0652 -0.2490 -0.6246
   27SAPC  C214 3600   6.295   6.485   8.007  0.2115  0.0627 -0.9170
   27SAPC  H14R 3601   6.226   6.557   7.961  0.3642 -0.2680 -1.6846
   27SAPC  C215 3602   6.278   6.479   8.142  0.2643  0.1155  0.5335
   27SAPC  H15R 3603   6.205   6.550   8.183  0.0697 -0.3495  1.0016
   27SAPC  C216 3604   6.333   6.385   8.241 -0.1605  0.6597 -0.2622
   27SAPC  H16R 3605   6.424   6.433   8.283 -0.3391  1.7996 -1.1258
   27SAPC  H16S 3606   6.376   6.300   8.182  0.5680  0.6397  0.2791
   27SAPC  C217 3607   6.239   6.326   8.350  0.3182 -0.5212 -0.6020
   27SAPC  H17R 3608   6.224   6.407   8.425 -1.3179 -1.7626  0.4774
   27SAPC  H17S 3609   6.302   6.246   8.394  0.7618  0.7390  1.1930
   27SAPC  C218 3610   6.103   6.272   8.305  0.2217  0.0672 -0.0061
   27SAPC  H18R 3611   6.115   6.207   8.216  1.2907 -1.1397  0.9754
   27SAPC  H18S 3612   6.042   6.357   8.267  0.7178 -0.3839 -1.8929
   27SAPC  C219 3613   6.034   6.200   8.422  0.5948 -0.7386 -0.6335
   27SAPC  H19R 3614   6.087   6.104   8.438 -1.0704 -1.9658 -2.0748
   27SAPC  H19S 3615   5.933   6.165   8.391 -0.0420  0.4224  0.0804
   27SAPC  C220 3616   6.019   6.294   8.540 -0.0998 -0.3705 -0.2152
   27SAPC  H20R 3617   6.108   6.312   8.604  0.3552 -0.1293 -0.9126
   27SAPC  H20S 3618   5.937   6.269   8.611  0.2957  2.2911  1.2860
   27SAPC  H20T 3619   5.976   6.390   8.507 -0.5061 -0.4128  0.1735
   27SAPC   C33 3620   6.622   6.839   7.368 -0.0062 -0.1560 -0.6255
   27SAPC   H3X 3621   6.542   6.916   7.373  1.1018  1.0361 -0.6446
   27SAPC   H3Y 3622   6.703   6.882   7.305  0.0232 -1.2142 -1.3268
   27SAPC   C34 3623   6.665   6.819   7.519 -0.4229  0.0316  0.1515
   27SAPC   H4X 3624   6.670   6.709   7.530 -2.0836 -0.1185 -0.2719
   27SAPC   H4Y 3625   6.593   6.841   7.600  0.1569 -0.8236  0.9067
   27SAPC   C35 3626   6.802   6.873   7.561  0.3572  0.2060 -0.3161
   27SAPC   H5X 3627   6.817   6.978   7.528 -0.8590  0.7677  0.8597
   27SAPC   H5Y 3628   6.871   6.808   7.503 -0.5383 -0.9626 -0.1022
   27SAPC   C36 3629   6.826   6.872   7.713 -0.4732  0.3708  0.2963
   27SAPC   H6X 3630   6.771   6.783   7.752 -1.4584  0.8354  0.0057
   27SAPC   H6Y 3631   6.775   6.957   7.763  0.2705  1.6536 -1.0388
   27SAPC   C37 3632   6.982   6.870   7.743  0.2882 -0.3008 -0.2682
   27SAPC   H7X 3633   7.028   6.962   7.702 -0.0194 -0.7077 -1.5470
   27SAPC   H7Y 3634   7.020   6.779   7.693 -2.4481 -1.3954 -0.5610
   27SAPC   C38 3635   7.004   6.867   7.896 -0.4558  0.0788  0.2651
   27SAPC   H8X 3636   6.943   6.784   7.938 -0.0769  0.9710  2.7967
   27SAPC   H8Y 3637   6.966   6.961   7.940 -0.9562  0.2898 -0.6100
   27SAPC   C39 3638   7.152   6.848   7.927 -0.2930  0.5914 -0.3946
   27SAPC   H9X 3639   7.221   6.917   7.874 -0.9593  0.6184 -1.2403
   27SAPC   H9Y 3640   7.173   6.742   7.901  1.3207  0.9565 -0.6891
   27SAPC  C310 3641   7.186   6.863   8.079  0.3163 -0.2319 -0.5493
   27SAPC  H10X 3642   7.137   6.794   8.152  0.8513  0.5151  0.5313
   27SAPC  H10Y 3643   7.139   6.962   8.095  1.2477  0.2708 -0.8958
   27SAPC  C311 3644   7.335   6.863   8.119 -0.2510 -0.7112 -0.2025
   27SAPC  H11X 3645   7.388   6.943   8.064  0.5326 -0.7117  0.5334
   27SAPC  H11Y 3646   7.373   6.767   8.078  2.5400  1.1971 -2.4747
   27SAPC  C312 3647   7.361   6.860   8.268 -0.1153 -0.4266 -0.6101
   27SAPC  H12X 3648   7.303   6.782   8.322  1.7113  0.5519  3.0805
   27SAPC  H12Y 3649   7.323   6.953   8.314 -2.1590 -0.0445 -2.8569
   27SAPC  C313 3650   7.512   6.835   8.300 -0.3426  0.4029 -0.8724
   27SAPC  H13X 3651   7.572   6.860   8.210  1.4288  0.9758  0.4095
   27SAPC  H13Y 3652   7.528   6.730   8.333 -4.3751 -0.6682 -1.7843
   27SAPC  C314 3653   7.547   6.931   8.417  0.0339 -0.6904  0.3687
   27SAPC  H14X 3654   7.485   7.023   8.407  1.7542  0.4756  0.0503
   27SAPC  H14Y 3655   7.652   6.966   8.413  0.1386 -0.8984  1.1477
   27SAPC  C315 3656   7.528   6.866   8.557 -0.3330  0.3328  0.5120
   27SAPC  H15X 3657   7.584   6.770   8.564  0.6084  0.5993 -2.3640
   27SAPC  H15Y 3658   7.419   6.846   8.565 -0.7614  2.0367 -0.5926
   27SAPC  C316 3659   7.582   6.968   8.663 -0.1800  0.5014 -0.3644
   27SAPC  H16X 3660   7.683   7.008   8.642 -0.5752  1.1677 -1.0882
   27SAPC  H16Y 3661   7.595   6.920   8.762 -1.2571 -2.4651 -1.5376
   27SAPC  C317 3662   7.483   7.086   8.689 -0.0933  0.2004  0.4600
   27SAPC  H17X 3663   7.378   7.049   8.683  0.2800 -0.6599 -1.8296
   27SAPC  H17Y 3664   7.501   7.150   8.600  1.7035  1.0943  1.4140
   27SAPC  C318 3665   7.500   7.177   8.812 -0.1607  0.8404  0.5898
   27SAPC  H18X 3666   7.452   7.277   8.803 -1.1926  0.2334 -1.2873
   27SAPC  H18Y 3667   7.610   7.184   8.826  0.1134 -1.0670 -0.2880
   27SAPC  H18Z 3668   7.458   7.121   8.898 -1.5897 -1.3589 -1.4144
   28SAPC     N 3669   4.631   4.806   5.913 -0.4593  0.6677  0.4516
   28SAPC   C12 3670   4.719   4.831   6.033  0.2295 -0.2051  0.2639
   28SAPC  H12A 3671   4.674   4.913   6.088 -0.4109  0.2297 -0.8845
   28SAPC  H12B 3672   4.818   4.862   6.003  0.0127  1.1888  0.9041
   28SAPC   C13 3673   4.492   4.764   5.955  0.1416 -0.1497  0.0889
   28SAPC  H13A 3674   4.425   4.779   5.871  1.0877  0.9909 -0.4902
   28SAPC  H13B 3675   4.493   4.666   6.000  1.8996 -0.2826 -0.1686
   28SAPC  H13C 3676   4.459   4.827   6.036 -0.2382 -1.6519  1.1502
   28SAPC   C14 3677   4.605   4.930   5.827  0.2279 -0.5330 -0.3467
   28SAPC  H14A 3678   4.694   4.986   5.803 -0.1255  0.4050  0.4421
   28SAPC  H14B 3679   4.571   4.894   5.731 -0.4312 -1.8464  0.3450
   28SAPC  H14C 3680   4.527   4.991   5.870  2.9878  0.4089  3.8783
   28SAPC   C15 3681   4.686   4.704   5.818 -0.1684 -0.6546  0.0554
   28SAPC  H15A 3682   4.749   4.759   5.749  0.2550  0.2170  1.0916
   28SAPC  H15B 3683   4.749   4.638   5.876  1.9046  2.1980  1.3320
   28SAPC  H15C 3684   4.609   4.656   5.760  0.7710 -1.8266 -0.2479
   28SAPC   C11 3685   4.745   4.720   6.127  0.2439  0.0087 -0.2368
   28SAPC  H11A 3686   4.651   4.702   6.182 -0.4623 -0.5857 -1.5996
   28SAPC  H11B 3687   4.809   4.761   6.209 -0.5123 -0.6550  0.7123
   28SAPC     P 3688   4.769   4.470   6.129  0.3793 -0.0550  0.2481
   28SAPC   O13 3689   4.638   4.483   6.200  0.4276 -0.4216  0.4482
   28SAPC   O14 3690   4.786   4.364   6.026  0.7780 -0.4848 -0.2675
   28SAPC   O12 3691   4.798   4.610   6.062  0.0237  0.2037  0.0857
   28SAPC   O11 3692   4.882   4.469   6.230 -0.1395 -0.2655 -0.3225
   28SAPC    C1 3693   4.875   4.384   6.347  0.5366 -0.4252 -0.2145
   28SAPC    HA 3694   4.785   4.413   6.406  0.6964 -0.0603 -0.1498
   28SAPC    HB 3695   4.861   4.278   6.317  0.3875 -0.7609  0.9808
   28SAPC    C2 3696   5.000   4.416   6.436 -0.4544  0.2488 -0.9342
   28SAPC    HS 3697   5.083   4.417   6.363  0.8949 -1.0266  0.4825
   28SAPC   O21 3698   5.011   4.312   6.533 -0.8704  0.1087 -0.3436
   28SAPC   C21 3699   5.136   4.297   6.592  0.1194 -0.2664  0.3905
   28SAPC   O22 3700   5.225   4.377   6.567  0.1438  0.1910  0.0593
   28SAPC   C22 3701   5.151   4.192   6.705  0.2995 -0.1216 -0.8656
   28SAPC   H2R 3702   5.081   4.111   6.674  0.5257  0.0646 -1.8980
   28SAPC   H2S 3703   5.257   4.160   6.711  0.8438  1.2901 -2.3295
   28SAPC    C3 3704   4.999   4.556   6.511 -0.2760 -0.5727  0.0373
   28SAPC    HX 3705   4.989   4.635   6.433 -2.8208 -0.0931  0.7650
   28SAPC    HY 3706   5.097   4.569   6.562 -0.3291  1.8939 -0.3930
   28SAPC   O31 3707   4.884   4.565   6.604 -0.3813 -0.0381  0.6152
   28SAPC   C31 3708   4.802   4.664   6.580  0.1831  0.3354 -0.7393
   28SAPC   O32 3709   4.824   4.761   6.508 -0.5184 -0.0319 -0.3966
   28SAPC   C32 3710   4.682   4.665   6.674 -0.1637 -0.1935 -0.1424
   28SAPC   H2X 3711   4.593   4.618   6.628  1.4605 -2.6502 -0.9754
   28SAPC   H2Y 3712   4.656   4.769   6.704 -0.0317 -0.8170  2.3280
   28SAPC   C23 3713   5.103   4.255   6.835  0.2857 -0.3394 -0.3869
   28SAPC   H3R 3714   4.999   4.293   6.831  0.3140 -0.2422 -0.2127
   28SAPC   H3S 3715   5.175   4.337   6.860 -0.4941  0.3663 -0.4119
   28SAPC   C24 3716   5.100   4.163   6.960 -0.1171  0.8117  0.5274
   28SAPC   H4R 3717   5.008   4.102   6.955 -1.6812  3.1200 -2.9101
   28SAPC   H4S 3718   5.178   4.088   6.938 -0.5475  1.2483 -3.0515
   28SAPC   C25 3719   5.131   4.234   7.088  0.4457 -0.1550 -0.2055
   28SAPC   H5R 3720   5.230   4.280   7.086  0.2770  0.2042 -1.4651
   28SAPC   C26 3721   5.065   4.229   7.205 -0.0459 -0.0085  0.2302
   28SAPC   H6R 3722   5.114   4.276   7.291  1.0096 -1.9719  0.7594
   28SAPC   C27 3723   4.935   4.154   7.237  0.0990 -0.1234  0.5000
   28SAPC   H7R 3724   4.970   4.095   7.325  0.5108  0.0758  0.4736
   28SAPC   H7S 3725   4.897   4.091   7.154  0.6639 -2.2922  1.7920
   28SAPC   C28 3726   4.820   4.252   7.272 -0.2203  0.2305  0.0155
   28SAPC   H8R 3727   4.797   4.335   7.203  1.2882 -0.3068 -1.1931
   28SAPC   C29 3728   4.738   4.246   7.378 -1.3313  0.4387 -0.2842
   28SAPC   H9R 3729   4.651   4.314   7.376  0.6404  3.1134 -0.1250
   28SAPC  C210 3730   4.731   4.145   7.491 -0.0671  0.6086  0.2286
   28SAPC  H10R 3731   4.740   4.205   7.583 -0.2767  2.7159 -1.0567
   28SAPC  H10S 3732   4.819   4.077   7.488  1.0708  2.0111  0.5973
   28SAPC  C211 3733   4.601   4.066   7.480  0.0857 -0.4744 -0.0066
   28SAPC  H11R 3734   4.571   4.048   7.375  0.1353  1.2253 -0.3301
   28SAPC  C212 3735   4.517   4.028   7.583 -0.8111  0.4593 -0.0016
   28SAPC  H12R 3736   4.431   3.965   7.555  0.1304 -0.2483 -1.3989
   28SAPC  C213 3737   4.524   4.054   7.726 -0.7766  0.0422 -0.6425
   28SAPC  H13R 3738   4.425   4.053   7.776  0.2181  0.6990  1.4324
   28SAPC  H13S 3739   4.561   4.157   7.743 -1.6917  0.1804  0.6509
   28SAPC  C214 3740   4.621   3.953   7.784 -0.3724 -0.4289 -0.4276
   28SAPC  H14R 3741   4.651   3.868   7.721 -0.5549 -0.1528 -0.8966
   28SAPC  C215 3742   4.671   3.959   7.909  0.3109 -0.4933 -0.1534
   28SAPC  H15R 3743   4.743   3.883   7.944 -0.6589 -1.6866 -0.6966
   28SAPC  C216 3744   4.635   4.064   8.009 -0.5226  0.4545  0.2308
   28SAPC  H16R 3745   4.575   4.020   8.092 -0.1095 -3.1677 -1.1732
   28SAPC  H16S 3746   4.566   4.137   7.962 -0.7747  0.4726  0.6211
   28SAPC  C217 3747   4.753   4.147   8.055  0.1992 -0.1293  0.1958
   28SAPC  H17R 3748   4.806   4.194   7.969 -1.7244 -0.7130 -1.3839
   28SAPC  H17S 3749   4.826   4.078   8.102  2.4237  3.0183  1.7736
   28SAPC  C218 3750   4.714   4.253   8.157 -0.1725  0.6729 -0.5151
   28SAPC  H18R 3751   4.662   4.209   8.245  0.9244 -0.5149 -0.4275
   28SAPC  H18S 3752   4.633   4.317   8.117 -1.0262  1.5617  2.4076
   28SAPC  C219 3753   4.819   4.349   8.212 -0.5918  0.7935 -0.1871
   28SAPC  H19R 3754   4.769   4.416   8.286 -1.2111  0.5096 -0.3392
   28SAPC  H19S 3755   4.854   4.409   8.125  2.1265  0.6459  0.7111
   28SAPC  C220 3756   4.932   4.280   8.287 -0.4160  0.0862  0.3501
   28SAPC  H20R 3757   4.996   4.366   8.317 -1.4453  0.9169  0.2171
   28SAPC  H20S 3758   4.995   4.219   8.219  0.2370 -0.2219  1.2173
   28SAPC  H20T 3759   4.897   4.226   8.377 -3.1098  0.7312 -0.2392
   28SAPC   C33 3760   4.700   4.576   6.804  0.9572  0.0289  0.5744
   28SAPC   H3X 3761   4.743   4.476   6.782  1.0477  0.3013 -0.5462
   28SAPC   H3Y 3762   4.596   4.555   6.835 -0.2232  0.0415 -2.9053
   28SAPC   C34 3763   4.764   4.650   6.920 -0.7108  0.0567 -0.2713
   28SAPC   H4X 3764   4.692   4.733   6.941 -3.2233 -2.1582  0.5452
   28SAPC   H4Y 3765   4.862   4.689   6.886 -0.4956 -0.8600 -0.7157
   28SAPC   C35 3766   4.801   4.567   7.045  0.2130  0.6147 -0.0112
   28SAPC   H5X 3767   4.870   4.482   7.025 -1.7128 -1.2051  0.7514
   28SAPC   H5Y 3768   4.706   4.523   7.082  0.9060 -0.3979  0.6033
   28SAPC   C36 3769   4.860   4.652   7.162  0.5620 -0.2678  0.5267
   28SAPC   H6X 3770   4.796   4.741   7.176  0.1091 -0.1996 -1.6720
   28SAPC   H6Y 3771   4.947   4.713   7.129 -0.0670 -0.4091 -1.5537
   28SAPC   C37 3772   4.881   4.587   7.294 -0.0773 -0.2400 -0.4526
   28SAPC   H7X 3773   4.944   4.497   7.279 -0.6252 -0.5765 -0.7914
   28SAPC   H7Y 3774   4.785   4.549   7.335  0.0610 -1.9719 -1.6279
   28SAPC   C38 3775   4.963   4.685   7.383  0.4823 -0.1012 -0.1598
   28SAPC   H8X 3776   4.909   4.773   7.424  0.4043 -0.6980  1.0659
   28SAPC   H8Y 3777   5.046   4.719   7.317 -0.1980 -2.0254 -2.1570
   28SAPC   C39 3778   5.012   4.614   7.509 -0.1573 -1.1304  0.1521
   28SAPC   H9X 3779   5.077   4.533   7.469  2.8102  0.2667  1.8105
   28SAPC   H9Y 3780   4.921   4.566   7.550 -0.7331 -0.1750  0.0104
   28SAPC  C310 3781   5.092   4.714   7.601 -0.2191  0.1879  0.4589
   28SAPC  H10X 3782   5.039   4.812   7.593  1.3749  1.0437  0.0541
   28SAPC  H10Y 3783   5.191   4.724   7.552 -0.5935 -0.6110 -0.4978
   28SAPC  C311 3784   5.098   4.658   7.739 -0.0726 -0.1562 -0.3319
   28SAPC  H11X 3785   5.176   4.708   7.800  1.1821 -1.4121 -0.8310
   28SAPC  H11Y 3786   5.106   4.547   7.740 -2.9876 -0.4507  1.5212
   28SAPC  C312 3787   4.973   4.678   7.835 -0.0736 -0.1303 -0.0924
   28SAPC  H12X 3788   4.886   4.628   7.787 -2.1774  1.7085  1.6008
   28SAPC  H12Y 3789   4.944   4.784   7.850 -1.8044 -0.7047  0.9245
   28SAPC  C313 3790   4.989   4.627   7.981  0.1965  0.2380  0.4571
   28SAPC  H13X 3791   5.021   4.521   7.970  1.5094  0.5392  1.2026
   28SAPC  H13Y 3792   4.888   4.648   8.020 -0.6357  0.9308 -1.8763
   28SAPC  C314 3793   5.098   4.686   8.061 -0.8186  0.6075 -0.0024
   28SAPC  H14X 3794   5.085   4.795   8.074 -4.0661  0.1853  1.3737
   28SAPC  H14Y 3795   5.192   4.649   8.015 -2.0983 -0.8735 -1.6025
   28SAPC  C315 3796   5.099   4.627   8.204  0.4224 -0.2157  0.1062
   28SAPC  H15X 3797   5.079   4.518   8.210  0.6294 -0.2507  0.1672
   28SAPC  H15Y 3798   5.015   4.676   8.257 -0.2370 -0.0085 -1.0820
   28SAPC  C316 3799   5.223   4.659   8.287 -0.1979 -0.0620 -0.1843
   28SAPC  H16X 3800   5.295   4.588   8.242 -0.4267  0.4580 -1.4081
   28SAPC  H16Y 3801   5.190   4.636   8.391  0.4516  3.0565  0.8031
   28SAPC  C317 3802   5.290   4.795   8.271  0.7974 -0.2065 -0.7919
   28SAPC  H17X 3803   5.221   4.870   8.315 -1.6254 -1.1013 -2.7534
   28SAPC  H17Y 3804   5.290   4.833   8.167  1.4933 -0.2828 -0.8212
   28SAPC  C318 3805   5.429   4.805   8.331  0.3368  0.3636  0.2272
   28SAPC  H18X 3806   5.488   4.728   8.277  1.7393  0.9558  0.8847
   28SAPC  H18Y 3807   5.426   4.763   8.434 -2.0434  0.3262  0.1947
   28SAPC  H18Z 3808   5.470   4.907   8.347 -0.1174  0.3925  1.2452
   29SAPC     N 3809   1.319   1.152   6.021 -0.1037  0.4378 -0.2970
   29SAPC   C12 3810   1.215   1.145   6.133 -0.0239 -0.4142 -0.3400
   29SAPC  H12A 3811   1.126   1.183   6.085  1.0237 -0.9230 -2.8901
   29SAPC  H12B 3812   1.239   1.213   6.212 -2.8610  0.4974 -0.1659
   29SAPC   C13 3813   1.452   1.116   6.072  0.3751 -1.2539 -0.4972
   29SAPC  H13A 3814   1.520   1.109   5.989 -0.3291 -0.5666 -1.1531
   29SAPC  H13B 3815   1.478   1.197   6.139 -1.6787 -1.4688  0.6572
   29SAPC  H13C 3816   1.450   1.028   6.134 -1.5576  0.0178  1.4309
   29SAPC   C14 3817   1.282   1.054   5.919  0.1681  0.2098  0.5351
   29SAPC  H14A 3818   1.341   1.061   5.828 -2.3189  1.3153 -1.0947
   29SAPC  H14B 3819   1.291   0.955   5.962 -3.3829  0.3841  1.9778
   29SAPC  H14C 3820   1.177   1.049   5.894 -0.4059  2.8214  2.1013
   29SAPC   C15 3821   1.324   1.289   5.961  0.0654  0.9480  0.3013
   29SAPC  H15A 3822   1.235   1.297   5.900 -1.4164  0.2660  2.2459
   29SAPC  H15B 3823   1.324   1.373   6.030  3.3589  1.1891  0.1773
   29SAPC  H15C 3824   1.402   1.286   5.887 -0.8447 -4.0327 -0.7883
   29SAPC   C11 3825   1.210   1.010   6.206 -0.2785 -0.0158 -0.5315
   29SAPC  H11A 3826   1.196   0.928   6.133 -3.0128 -2.1508  2.1236
   29SAPC  H11B 3827   1.115   1.006   6.265  0.6062  0.2518  0.9645
   29SAPC     P 3828   1.368   1.088   6.416 -0.1713 -0.1718  0.2615
   29SAPC   O13 3829   1.502   1.050   6.467 -0.7530  0.0789 -0.9628
   29SAPC   O14 3830   1.332   1.227   6.383 -0.3126  0.0145 -0.4959
   29SAPC   O12 3831   1.333   0.991   6.292  0.6702  0.2564 -0.2195
   29SAPC   O11 3832   1.264   1.047   6.524 -0.4103  0.6379  0.2327
   29SAPC    C1 3833   1.223   0.920   6.559 -0.3355 -0.0302  0.6514
   29SAPC    HA 3834   1.141   0.889   6.491 -0.4584 -0.5610  1.0351
   29SAPC    HB 3835   1.299   0.842   6.538  0.5618 -0.2392  4.0887
   29SAPC    C2 3836   1.185   0.904   6.712  0.3584 -0.0910  0.1968
   29SAPC    HS 3837   1.154   0.799   6.730 -1.3037  0.4061  0.3503
   29SAPC   O21 3838   1.072   0.983   6.747 -0.3005  0.4934  0.7420
   29SAPC   C21 3839   0.954   0.944   6.704  0.0481  0.4193 -0.3393
   29SAPC   O22 3840   0.929   0.839   6.644 -0.1446 -1.1109 -0.2868
   29SAPC   C22 3841   0.858   1.055   6.742 -0.5848  0.1392 -0.5790
   29SAPC   H2R 3842   0.916   1.131   6.799 -3.3603  1.0147  1.2980
   29SAPC   H2S 3843   0.825   1.100   6.646  2.4369  0.9219 -1.3781
   29SAPC    C3 3844   1.304   0.941   6.799 -0.3425  0.4405  0.0740
   29SAPC    HX 3845   1.353   1.037   6.773  0.3401  0.0450 -0.1177
   29SAPC    HY 3846   1.395   0.877   6.792 -0.2007  0.7596 -1.4562
   29SAPC   O31 3847   1.261   0.954   6.932 -0.2124  0.1737 -0.3773
   29SAPC   C31 3848   1.309   0.871   7.025 -1.1530  0.0060 -0.1939
   29SAPC   O32 3849   1.405   0.792   7.013 -0.0712 -0.2644  0.3870
   29SAPC   C32 3850   1.212   0.877   7.146  0.3565 -0.1273  0.1375
   29SAPC   H2X 3851   1.114   0.845   7.104 -1.0954  3.5633  0.4058
   29SAPC   H2Y 3852   1.186   0.980   7.178 -1.3571  0.2132 -2.1147
   29SAPC   C23 3853   0.740   0.999   6.818 -0.2863  0.1650 -0.2788
   29SAPC   H3R 3854   0.680   0.937   6.749 -0.3349 -1.9598  1.5703
   29SAPC   H3S 3855   0.677   1.083   6.853  1.1862  0.7998  0.9877
   29SAPC   C24 3856   0.784   0.916   6.940 -0.1702  0.1060 -0.3233
   29SAPC   H4R 3857   0.826   0.829   6.886  0.0644 -0.1583  0.2817
   29SAPC   H4S 3858   0.697   0.873   6.994 -0.8481  0.8463 -0.7881
   29SAPC   C25 3859   0.880   0.980   7.030  0.4394 -0.2507  0.2809
   29SAPC   H5R 3860   0.971   1.010   6.976 -1.4365  0.8493 -2.4941
   29SAPC   C26 3861   0.868   1.005   7.165 -0.1305 -0.4903 -0.0147
   29SAPC   H6R 3862   0.949   1.056   7.220 -0.2113 -2.1632  1.7823
   29SAPC   C27 3863   0.748   0.976   7.247  0.5302  0.2245  0.3464
   29SAPC   H7R 3864   0.660   0.978   7.178  0.3964  0.1879  0.5154
   29SAPC   H7S 3865   0.735   1.058   7.321 -0.0819  0.6923 -0.2686
   29SAPC   C28 3866   0.755   0.853   7.332 -0.2250  0.0137 -0.4970
   29SAPC   H8R 3867   0.841   0.794   7.297 -1.1152 -1.6632  0.0078
   29SAPC   C29 3868   0.666   0.808   7.425 -0.4028  0.8747 -0.7374
   29SAPC   H9R 3869   0.701   0.717   7.475 -1.5421  0.2599 -1.0296
   29SAPC  C210 3870   0.541   0.876   7.481  0.1766  0.0660 -0.1874
   29SAPC  H10R 3871   0.501   0.920   7.387  4.4988  0.4061 -2.1072
   29SAPC  H10S 3872   0.557   0.966   7.545  0.6701 -0.1978  0.0630
   29SAPC  C211 3873   0.442   0.776   7.544 -0.1765  0.0264 -0.1406
   29SAPC  H11R 3874   0.390   0.699   7.485 -0.2079 -0.6122  0.7152
   29SAPC  C212 3875   0.408   0.770   7.668  0.0220 -0.4164  0.0880
   29SAPC  H12R 3876   0.345   0.686   7.700  3.0295 -2.5452  0.8794
   29SAPC  C213 3877   0.432   0.868   7.780 -0.3982  0.3864 -0.3350
   29SAPC  H13R 3878   0.344   0.933   7.797 -0.8667 -0.1506 -0.6875
   29SAPC  H13S 3879   0.516   0.939   7.761 -0.1825 -0.4055 -2.6023
   29SAPC  C214 3880   0.455   0.795   7.914 -0.4806 -0.5524  0.2543
   29SAPC  H14R 3881   0.464   0.687   7.900  3.3159 -0.1807 -1.5047
   29SAPC  C215 3882   0.476   0.856   8.033  0.5935  0.3180 -1.0623
   29SAPC  H15R 3883   0.483   0.801   8.128 -2.6612  2.9366  0.8847
   29SAPC  C216 3884   0.488   1.007   8.050  0.1811  0.1404 -0.5370
   29SAPC  H16R 3885   0.452   1.058   7.958  3.8817 -1.6615 -3.2884
   29SAPC  H16S 3886   0.594   1.040   8.059 -0.5852  2.1229  2.1903
   29SAPC  C217 3887   0.409   1.049   8.177 -0.3710  0.9401 -0.3885
   29SAPC  H17R 3888   0.449   1.003   8.270  1.8859  1.6263 -0.9792
   29SAPC  H17S 3889   0.307   1.009   8.157  0.6540 -0.5378 -3.2886
   29SAPC  C218 3890   0.403   1.204   8.201  0.3082 -0.2784 -0.1090
   29SAPC  H18R 3891   0.351   1.242   8.111 -2.4956 -0.7355  1.1899
   29SAPC  H18S 3892   0.498   1.260   8.213  0.1850 -0.5162  2.9081
   29SAPC  C219 3893   0.321   1.249   8.325 -0.6281 -0.3706 -0.2814
   29SAPC  H19R 3894   0.347   1.357   8.333  0.1055 -0.4476 -1.4455
   29SAPC  H19S 3895   0.357   1.197   8.417  0.0301 -1.0745 -0.9245
   29SAPC  C220 3896   0.174   1.229   8.306 -0.4949  0.5516  0.6946
   29SAPC  H20R 3897   0.128   1.263   8.401  0.5869 -0.3052  1.5597
   29SAPC  H20S 3898   0.139   1.124   8.300 -2.3551  1.2085 -1.2382
   29SAPC  H20T 3899   0.135   1.291   8.222  0.0768 -0.3510 -0.2623
   29SAPC   C33 3900   1.253   0.779   7.261 -0.1008 -0.1747  0.1895
   29SAPC   H3X 3901   1.338   0.831   7.309 -0.6223 -0.9929  2.0793
   29SAPC   H3Y 3902   1.285   0.685   7.211  0.0454  0.6721 -1.3656
   29SAPC   C34 3903   1.130   0.749   7.351 -0.7084 -0.5797 -0.2612
   29SAPC   H4X 3904   1.068   0.672   7.301  0.0896  0.1555 -2.5119
   29SAPC   H4Y 3905   1.073   0.841   7.375 -0.5659 -0.9716  1.8372
   29SAPC   C35 3906   1.164   0.669   7.482  0.8850  0.4625  0.4613
   29SAPC   H5X 3907   1.242   0.595   7.456  1.2888  0.9317  0.3127
   29SAPC   H5Y 3908   1.071   0.621   7.517  2.4458 -2.8363  0.4048
   29SAPC   C36 3909   1.213   0.760   7.598 -0.2239  0.3526 -0.8008
   29SAPC   H6X 3910   1.135   0.837   7.617  0.0872  0.7947 -1.3181
   29SAPC   H6Y 3911   1.309   0.808   7.569  0.1217 -0.4162 -0.9662
   29SAPC   C37 3912   1.231   0.681   7.731  0.6881 -0.2386  0.1941
   29SAPC   H7X 3913   1.279   0.581   7.721 -0.5061 -0.8169 -0.0343
   29SAPC   H7Y 3914   1.129   0.651   7.764  0.7428 -0.2935  0.3118
   29SAPC   C38 3915   1.291   0.762   7.845  0.1136  0.0740  0.4132
   29SAPC   H8X 3916   1.207   0.813   7.896 -1.1524 -0.3117 -1.1988
   29SAPC   H8Y 3917   1.361   0.838   7.804 -0.3721  0.2316 -0.1353
   29SAPC   C39 3918   1.373   0.678   7.941 -0.3830 -0.1493  0.1551
   29SAPC   H9X 3919   1.470   0.655   7.892  0.6675  1.7347  1.2134
   29SAPC   H9Y 3920   1.315   0.585   7.958  1.3226 -1.1671  0.6742
   29SAPC  C310 3921   1.420   0.749   8.070  0.1272  0.6156  0.2091
   29SAPC  H10X 3922   1.453   0.854   8.055 -0.9753  0.9476  0.0741
   29SAPC  H10Y 3923   1.501   0.688   8.118  1.2499  0.6560 -1.5447
   29SAPC  C311 3924   1.301   0.752   8.176  0.1464  0.0073  0.2714
   29SAPC  H11X 3925   1.250   0.653   8.165 -0.0639 -0.0776  1.7079
   29SAPC  H11Y 3926   1.236   0.841   8.163  0.6054  0.7455  2.4839
   29SAPC  C312 3927   1.356   0.770   8.323 -0.0081  0.3865  0.0710
   29SAPC  H12X 3928   1.379   0.878   8.329 -0.9098  0.6219 -0.4899
   29SAPC  H12Y 3929   1.452   0.716   8.335  1.1317  1.6839 -2.3361
   29SAPC  C313 3930   1.255   0.729   8.427  0.8242 -0.8857 -0.2692
   29SAPC  H13X 3931   1.244   0.618   8.429  2.6170 -1.0737  0.6587
   29SAPC  H13Y 3932   1.157   0.778   8.409  2.3632  3.0301  0.9292
   29SAPC  C314 3933   1.301   0.763   8.566 -0.6732  0.1361 -0.0134
   29SAPC  H14X 3934   1.404   0.801   8.551 -0.1161 -1.4397 -0.3505
   29SAPC  H14Y 3935   1.294   0.669   8.624 -2.7572 -1.7677 -3.0420
   29SAPC  C315 3936   1.212   0.852   8.643 -0.0538 -0.3814 -0.2069
   29SAPC  H15X 3937   1.195   0.944   8.583  0.1985  0.8583  1.5441
   29SAPC  H15Y 3938   1.247   0.889   8.742  0.8411  0.3012 -0.7683
   29SAPC  C316 3939   1.075   0.783   8.665 -0.3610  0.9623 -0.8889
   29SAPC  H16X 3940   1.087   0.681   8.706  3.6024  0.9309 -1.7555
   29SAPC  H16Y 3941   1.015   0.790   8.572 -3.3775  0.1056  0.8525
   29SAPC  C317 3942   0.986   0.860   8.762  0.9412  1.0126 -0.3097
   29SAPC  H17X 3943   0.878   0.854   8.737  0.1786  2.5124  2.2296
   29SAPC  H17Y 3944   0.998   0.970   8.751 -1.2576  1.1293 -2.6528
   29SAPC  C318 3945   0.997   0.821   8.915  0.1436 -0.4848 -0.0127
   29SAPC  H18X 3946   0.930   0.885   8.976 -0.1677  1.2965 -2.0805
   29SAPC  H18Y 3947   1.103   0.829   8.946 -0.0569 -0.4113  0.6556
   29SAPC  H18Z 3948   0.981   0.713   8.932  3.5270 -0.8891  1.2990
   30SAPC     N 3949   3.237   3.190   5.979  0.1708 -0.7731 -0.0980
   30SAPC   C12 3950   3.187   3.144   6.113  0.3357 -0.3357  0.6894
   30SAPC  H12A 3951   3.272   3.115   6.173  0.5652  0.7857  0.9145
   30SAPC  H12B 3952   3.121   3.058   6.105 -2.3544  1.5184  1.3982
   30SAPC   C13 3953   3.343   3.298   5.993  0.5047  0.4429 -0.0194
   30SAPC  H13A 3954   3.313   3.375   6.063  2.6184  0.6759  0.7218
   30SAPC  H13B 3955   3.442   3.262   6.016  1.5281  1.9197 -1.8404
   30SAPC  H13C 3956   3.337   3.354   5.901 -0.4149 -0.4718 -0.5316
   30SAPC   C14 3957   3.307   3.082   5.903 -0.9354 -0.0339  0.3832
   30SAPC  H14A 3958   3.340   3.125   5.810 -1.0940  1.3064  0.9280
   30SAPC  H14B 3959   3.398   3.048   5.949  0.3773  0.7467 -1.4916
   30SAPC  H14C 3960   3.241   2.999   5.882  0.2208 -0.8974  0.0410
   30SAPC   C15 3961   3.136   3.264   5.896 -0.4840 -0.0052  0.3743
   30SAPC  H15A 3962   3.187   3.317   5.817  1.4252 -4.2158 -1.5443
   30SAPC  H15B 3963   3.076   3.191   5.843 -0.4905 -0.3912  0.8993
   30SAPC  H15C 3964   3.075   3.327   5.960  0.0834  0.2436  0.6749
   30SAPC   C11 3965   3.108   3.249   6.195 -0.3084  0.6306 -1.1230
   30SAPC  H11A 3966   3.160   3.347   6.192  2.6080 -0.5145  3.3430
   30SAPC  H11B 3967   3.112   3.228   6.304 -1.1782  1.9757 -0.7994
   30SAPC     P 3968   2.869   3.158   6.170  0.4074  0.6285 -0.2163
   30SAPC   O13 3969   2.729   3.211   6.174  0.1847  0.2654 -0.1519
   30SAPC   O14 3970   2.903   3.051   6.075 -0.2758 -0.1377  0.1195
   30SAPC   O12 3971   2.972   3.277   6.148  0.3543  0.2352  0.5994
   30SAPC   O11 3972   2.896   3.108   6.315 -0.2637 -0.6418 -0.3720
   30SAPC    C1 3973   2.929   2.978   6.352 -0.4751  0.7070 -0.3240
   30SAPC    HA 3974   2.976   2.925   6.267 -1.5867 -3.1655  1.2447
   30SAPC    HB 3975   3.007   2.985   6.431 -0.3411  0.9781 -0.4780
   30SAPC    C2 3976   2.808   2.882   6.392  0.0653 -0.6707  0.2433
   30SAPC    HS 3977   2.726   2.884   6.318 -0.1605  2.0185  0.4419
   30SAPC   O21 3978   2.760   2.935   6.515 -0.0508 -0.3452 -0.6061
   30SAPC   C21 3979   2.666   2.866   6.583 -0.1117  0.3985  0.1367
   30SAPC   O22 3980   2.597   2.771   6.540 -0.6001 -0.4251  0.1811
   30SAPC   C22 3981   2.653   2.919   6.725  0.0030  0.3010 -1.1970
   30SAPC   H2R 3982   2.741   2.907   6.791  0.0819  1.5876 -1.0348
   30SAPC   H2S 3983   2.633   3.028   6.720 -1.9477  0.0708  0.5707
   30SAPC    C3 3984   2.861   2.734   6.407  0.4123 -0.3933 -0.4151
   30SAPC    HX 3985   2.868   2.709   6.299 -2.5089  0.5586 -0.8987
   30SAPC    HY 3986   2.785   2.666   6.450 -1.4598  2.3538  0.8869
   30SAPC   O31 3987   2.995   2.735   6.460 -0.2329 -0.2677 -0.0636
   30SAPC   C31 3988   3.006   2.728   6.593  0.8188 -0.2343  0.5360
   30SAPC   O32 3989   2.920   2.696   6.673  0.9037 -0.2423  0.3664
   30SAPC   C32 3990   3.151   2.761   6.636  0.1508  1.1195  0.1728
   30SAPC   H2X 3991   3.191   2.849   6.581  1.4830  0.2785 -0.2593
   30SAPC   H2Y 3992   3.212   2.673   6.605 -0.0993  0.5546  1.2462
   30SAPC   C23 3993   2.525   2.855   6.795  0.2107  0.5031 -0.4498
   30SAPC   H3R 3994   2.549   2.751   6.827  1.3368  0.8104 -0.2651
   30SAPC   H3S 3995   2.437   2.857   6.727  0.7022  0.0709 -1.1144
   30SAPC   C24 3996   2.494   2.926   6.925 -0.5645 -0.0362  0.1728
   30SAPC   H4R 3997   2.483   3.036   6.915 -0.9271 -0.0501  0.4053
   30SAPC   H4S 3998   2.572   2.899   6.999 -0.1940  1.6054  0.4276
   30SAPC   C25 3999   2.361   2.882   6.973  1.4949  0.0869  0.1166
   30SAPC   H5R 4000   2.289   2.896   6.891  3.2597 -2.6692 -2.0776
   30SAPC   C26 4001   2.311   2.836   7.087  0.6545  0.6251 -0.4074
   30SAPC   H6R 4002   2.203   2.815   7.087  1.3666 -4.1601  0.8277
   30SAPC   C27 4003   2.390   2.794   7.216 -0.4188 -0.5664  0.7105
   30SAPC   H7R 4004   2.497   2.825   7.206  0.1074 -1.7943  2.2324
   30SAPC   H7S 4005   2.391   2.684   7.224  0.7765 -0.9575 -2.7715
   30SAPC   C28 4006   2.333   2.865   7.334  1.0141  0.4164 -0.2649
   30SAPC   H8R 4007   2.289   2.963   7.311 -0.8437  0.5133  3.0927
   30SAPC   C29 4008   2.352   2.828   7.464  0.2199 -0.1210  0.1744
   30SAPC   H9R 4009   2.311   2.887   7.547 -2.6122 -1.9514  0.2170
   30SAPC  C210 4010   2.424   2.703   7.516 -0.1100 -1.2009 -0.4086
   30SAPC  H10R 4011   2.471   2.639   7.439  0.8835 -0.1850 -0.6659
   30SAPC  H10S 4012   2.347   2.641   7.568  0.5704 -2.0447 -0.3983
   30SAPC  C211 4013   2.517   2.738   7.634  0.7307  0.2830  0.9726
   30SAPC  H11R 4014   2.608   2.789   7.599  0.6304  0.5097  1.0403
   30SAPC  C212 4015   2.497   2.720   7.761 -0.1622  0.5163 -0.8362
   30SAPC  H12R 4016   2.581   2.735   7.831 -0.1287  0.9406 -0.9647
   30SAPC  C213 4017   2.384   2.657   7.832  0.2795  0.5768 -0.4919
   30SAPC  H13R 4018   2.291   2.703   7.793  0.0037  0.1730 -0.3132
   30SAPC  H13S 4019   2.392   2.683   7.940  2.6922 -0.7600 -0.2658
   30SAPC  C214 4020   2.378   2.509   7.813  0.1159  0.1688 -0.0370
   30SAPC  H14R 4021   2.407   2.459   7.720 -0.5130 -1.8138  0.7824
   30SAPC  C215 4022   2.350   2.418   7.905  0.0096  0.3909  0.4526
   30SAPC  H15R 4023   2.355   2.310   7.884  0.1195 -0.0351  2.4711
   30SAPC  C216 4024   2.316   2.437   8.052 -0.1085  0.5481 -0.0073
   30SAPC  H16R 4025   2.210   2.408   8.070  0.0612  0.0487  0.2072
   30SAPC  H16S 4026   2.333   2.545   8.075  1.7160  0.1086  0.9033
   30SAPC  C217 4027   2.413   2.358   8.146  0.9367  0.2541  0.3437
   30SAPC  H17R 4028   2.365   2.344   8.245 -0.4149  1.4051 -0.1265
   30SAPC  H17S 4029   2.499   2.423   8.172  0.2139  1.3312  0.0870
   30SAPC  C218 4030   2.471   2.223   8.093  0.0745 -0.4630 -0.3762
   30SAPC  H18R 4031   2.529   2.253   8.003  1.8426 -1.7160  0.3059
   30SAPC  H18S 4032   2.386   2.162   8.056 -0.9528  0.1235  0.9154
   30SAPC  C219 4033   2.540   2.144   8.197 -0.1001  1.0312 -0.7982
   30SAPC  H19R 4034   2.629   2.197   8.237 -0.5257  0.0796  1.5652
   30SAPC  H19S 4035   2.587   2.053   8.154  0.4566  0.5775  0.6922
   30SAPC  C220 4036   2.467   2.097   8.324 -0.4328  0.2370 -0.1666
   30SAPC  H20R 4037   2.443   2.181   8.393  0.3991  0.2556  0.1073
   30SAPC  H20S 4038   2.523   2.015   8.374 -3.3575 -1.1813  1.0181
   30SAPC  H20T 4039   2.365   2.065   8.295 -0.7843  1.5436 -0.4520
   30SAPC   C33 4040   3.156   2.769   6.792 -0.3932  0.2199  0.1590
   30SAPC   H3X 4041   3.104   2.680   6.835  3.3433 -1.7464  1.0435
   30SAPC   H3Y 4042   3.099   2.855   6.833  1.6035  0.7676  1.9380
   30SAPC   C34 4043   3.303   2.766   6.833  0.3998 -0.2989 -0.1527
   30SAPC   H4X 4044   3.359   2.852   6.789 -1.5969 -0.3531 -3.0814
   30SAPC   H4Y 4045   3.355   2.671   6.808  2.4590 -0.0494  2.7022
   30SAPC   C35 4046   3.312   2.791   6.986  0.0730  0.2536 -0.4510
   30SAPC   H5X 4047   3.266   2.890   7.004  3.9208  2.1552  0.0294
   30SAPC   H5Y 4048   3.421   2.812   6.992  0.3842 -1.2451 -0.2381
   30SAPC   C36 4049   3.276   2.679   7.096  0.5514 -0.0371  0.9028
   30SAPC   H6X 4050   3.339   2.588   7.084  0.7874  0.3658 -1.2551
   30SAPC   H6Y 4051   3.175   2.638   7.078  1.0643 -1.0134  0.1566
   30SAPC   C37 4052   3.295   2.726   7.243  0.7382  0.0881  0.5958
   30SAPC   H7X 4053   3.216   2.803   7.255 -0.7311 -1.5814  2.4284
   30SAPC   H7Y 4054   3.401   2.759   7.248  0.9216 -0.2311 -0.7679
   30SAPC   C38 4055   3.263   2.612   7.332  0.4182  0.1991  0.6447
   30SAPC   H8X 4056   3.324   2.520   7.316  1.0720  0.0069  3.7203
   30SAPC   H8Y 4057   3.159   2.579   7.310  0.0557  1.2596  0.7058
   30SAPC   C39 4058   3.272   2.657   7.481  0.3157  0.5449  0.3344
   30SAPC   H9X 4059   3.210   2.748   7.499  1.4636  1.4896 -0.3511
   30SAPC   H9Y 4060   3.377   2.683   7.504 -0.3213  2.4118  1.3648
   30SAPC  C310 4061   3.234   2.542   7.572  0.3893  0.3774  0.8889
   30SAPC  H10X 4062   3.309   2.461   7.553  0.1916  0.2326  0.7228
   30SAPC  H10Y 4063   3.133   2.505   7.545  0.3490  0.4265  0.9741
   30SAPC  C311 4064   3.235   2.573   7.720  0.3666 -0.1670  0.2563
   30SAPC  H11X 4065   3.136   2.608   7.754  0.7021 -1.7458  3.1381
   30SAPC  H11Y 4066   3.308   2.655   7.736 -0.3092  0.7090 -0.9812
   30SAPC  C312 4067   3.270   2.460   7.821  0.4323  0.1065 -0.4347
   30SAPC  H12X 4068   3.376   2.433   7.804 -0.0962 -1.1591 -1.9888
   30SAPC  H12Y 4069   3.200   2.374   7.811 -0.0975  0.5927 -0.9728
   30SAPC  C313 4070   3.270   2.511   7.967 -0.0969  0.3764 -0.5142
   30SAPC  H13X 4071   3.169   2.551   7.987  0.2913  0.8696  0.5698
   30SAPC  H13Y 4072   3.345   2.592   7.978  0.7710 -0.2515 -1.5645
   30SAPC  C314 4073   3.333   2.413   8.073  0.0291 -0.4654 -0.1123
   30SAPC  H14X 4074   3.375   2.475   8.155  0.4586  0.4962 -1.0441
   30SAPC  H14Y 4075   3.415   2.352   8.029  0.9406 -0.9626  2.1369
   30SAPC  C315 4076   3.237   2.303   8.122  0.6055 -0.2504  0.1158
   30SAPC  H15X 4077   3.296   2.239   8.191  2.4882 -1.2150 -2.2522
   30SAPC  H15Y 4078   3.209   2.224   8.048 -2.3060  0.2633  0.5472
   30SAPC  C316 4079   3.124   2.371   8.208 -0.4255 -0.2958  0.1636
   30SAPC  H16X 4080   3.066   2.445   8.148  0.9625 -0.9577 -2.1180
   30SAPC  H16Y 4081   3.192   2.422   8.280  0.4168 -1.9656  0.5960
   30SAPC  C317 4082   3.030   2.271   8.274 -0.2168 -0.4191  0.0591
   30SAPC  H17X 4083   3.075   2.203   8.350  0.1175 -2.3809 -1.8020
   30SAPC  H17Y 4084   2.996   2.200   8.196  0.0268  0.5699 -0.9710
   30SAPC  C318 4085   2.893   2.330   8.319 -0.2059 -0.2272 -0.2588
   30SAPC  H18X 4086   2.916   2.407   8.396  0.5268  0.6846 -1.3523
   30SAPC  H18Y 4087   2.834   2.245   8.361  0.1660 -0.6099 -0.4986
   30SAPC  H18Z 4088   2.833   2.375   8.237  0.6441 -0.5435 -1.0715
   31SAPC     N 4089   1.664   3.177   6.242 -0.2409 -0.0471 -0.2040
   31SAPC   C12 4090   1.694   3.041   6.180  0.1590 -0.7614  1.1217
   31SAPC  H12A 4091   1.792   2.999   6.198 -0.1984 -1.3336  1.7934
   31SAPC  H12B 4092   1.680   3.064   6.075 -1.0097  0.1786  1.4677
   31SAPC   C13 4093   1.531   3.233   6.191  1.3251  0.2919  0.3567
   31SAPC  H13A 4094   1.497   3.327   6.230 -1.7816 -0.7478  0.3902
   31SAPC  H13B 4095   1.550   3.242   6.085 -0.8539  0.5449 -0.0438
   31SAPC  H13C 4096   1.452   3.160   6.196  0.0680  1.5728 -0.2242
   31SAPC   C14 4097   1.654   3.178   6.395  0.5647  0.4084  0.4166
   31SAPC  H14A 4098   1.620   3.273   6.432 -0.0165 -0.9387  3.6657
   31SAPC  H14B 4099   1.579   3.109   6.431  1.8455 -1.1232  0.2563
   31SAPC  H14C 4100   1.751   3.153   6.435  0.0613  1.3092  2.2846
   31SAPC   C15 4101   1.766   3.272   6.205  1.0318 -0.0501 -0.1562
   31SAPC  H15A 4102   1.731   3.369   6.239 -2.2928 -1.2069  0.0101
   31SAPC  H15B 4103   1.861   3.254   6.254 -0.1515 -3.0567  1.2555
   31SAPC  H15C 4104   1.783   3.273   6.098  2.7419  1.9721  0.0510
   31SAPC   C11 4105   1.586   2.929   6.199  0.7037 -0.3213  0.4294
   31SAPC  H11A 4106   1.581   2.918   6.309 -0.4747 -0.6416  0.3668
   31SAPC  H11B 4107   1.623   2.835   6.153  1.3721 -0.9002  2.0725
   31SAPC     P 4108   1.309   2.929   6.209 -0.1131  0.0885 -0.0297
   31SAPC   O13 4109   1.218   3.042   6.181 -0.6506  0.5656 -0.6612
   31SAPC   O14 4110   1.263   2.803   6.147 -0.7411 -1.0042 -0.0919
   31SAPC   O12 4111   1.455   2.961   6.151  0.1891  0.5316  0.2797
   31SAPC   O11 4112   1.328   2.908   6.361  0.0317  1.0476 -0.4539
   31SAPC    C1 4113   1.322   2.782   6.434  0.8049  0.0241 -0.0313
   31SAPC    HA 4114   1.216   2.758   6.456 -0.4734  3.6025 -1.6347
   31SAPC    HB 4115   1.361   2.694   6.379  1.6091 -1.0384  2.1137
   31SAPC    C2 4116   1.382   2.785   6.581  0.5065  0.0324  0.8865
   31SAPC    HS 4117   1.363   2.684   6.625 -1.6106  0.3199  0.7610
   31SAPC   O21 4118   1.333   2.890   6.663  0.5683 -0.1696 -0.1067
   31SAPC   C21 4119   1.223   2.853   6.727  0.0060 -0.0255 -0.3163
   31SAPC   O22 4120   1.165   2.746   6.712  0.2149 -0.2882  0.2163
   31SAPC   C22 4121   1.184   2.965   6.830 -0.0010  0.0821  0.4842
   31SAPC   H2R 4122   1.249   3.055   6.817  1.5570 -0.9825  0.6980
   31SAPC   H2S 4123   1.084   3.005   6.800 -0.9702 -0.9144  2.2524
   31SAPC    C3 4124   1.537   2.803   6.566  0.2346  0.5757  0.3166
   31SAPC    HX 4125   1.552   2.903   6.521 -2.7596  1.1310  0.3372
   31SAPC    HY 4126   1.581   2.727   6.497  1.0634  0.9653  0.4006
   31SAPC   O31 4127   1.602   2.800   6.691  0.0477  0.3517  0.0423
   31SAPC   C31 4128   1.679   2.900   6.722  0.0581  0.1506 -0.9653
   31SAPC   O32 4129   1.698   3.003   6.658  0.1309 -0.2290 -0.1172
   31SAPC   C32 4130   1.760   2.874   6.850  0.5398 -0.3949  0.3165
   31SAPC   H2X 4131   1.863   2.915   6.846  0.1503  1.2616  3.7008
   31SAPC   H2Y 4132   1.764   2.764   6.865  0.7761 -0.2795  1.1623
   31SAPC   C23 4133   1.185   2.917   6.974  0.1358 -0.1608 -0.5990
   31SAPC   H3R 4134   1.268   2.848   7.000  1.3451  1.4202 -0.1600
   31SAPC   H3S 4135   1.098   2.848   6.964  2.6257 -3.6761  0.1510
   31SAPC   C24 4136   1.155   3.029   7.076 -0.6992  0.1414  0.1587
   31SAPC   H4R 4137   1.089   2.985   7.154  0.5096 -3.6221 -0.7498
   31SAPC   H4S 4138   1.104   3.113   7.022 -0.7472 -1.0401 -1.7303
   31SAPC   C25 4139   1.286   3.072   7.125 -0.3864 -0.6730 -0.7514
   31SAPC   H5R 4140   1.351   3.104   7.043  0.5316 -2.1733 -0.6536
   31SAPC   C26 4141   1.327   3.078   7.256 -0.2132 -0.8901 -0.2935
   31SAPC   H6R 4142   1.428   3.112   7.283 -0.5419 -0.8536  0.9424
   31SAPC   C27 4143   1.234   3.045   7.370 -0.1517  0.2136  0.4395
   31SAPC   H7R 4144   1.182   2.950   7.346 -0.3739  0.6790 -1.0212
   31SAPC   H7S 4145   1.155   3.123   7.384  0.8208  1.1421  0.9406
   31SAPC   C28 4146   1.304   3.016   7.496 -0.7972 -0.0584  0.0181
   31SAPC   H8R 4147   1.382   2.939   7.486  0.3886  1.2063 -0.8720
   31SAPC   C29 4148   1.271   3.070   7.612  0.2710 -0.3332 -0.1347
   31SAPC   H9R 4149   1.330   3.040   7.699 -0.0542  0.1395  0.2561
   31SAPC  C210 4150   1.159   3.172   7.639 -0.2558  1.1285 -0.4659
   31SAPC  H10R 4151   1.061   3.122   7.655  0.2381 -0.1077 -1.1538
   31SAPC  H10S 4152   1.128   3.235   7.553 -0.6307  1.0559 -0.3903
   31SAPC  C211 4153   1.211   3.257   7.755  0.8199 -0.5235 -0.2689
   31SAPC  H11R 4154   1.277   3.342   7.732 -0.2670 -0.2324 -2.5557
   31SAPC  C212 4155   1.194   3.229   7.880  0.3837  0.2290 -0.2931
   31SAPC  H12R 4156   1.230   3.297   7.959 -2.4422  1.0980  0.3708
   31SAPC  C213 4157   1.138   3.106   7.943  0.1302 -0.4577  0.1664
   31SAPC  H13R 4158   1.215   3.035   7.982 -1.2359 -0.3831  3.2932
   31SAPC  H13S 4159   1.071   3.054   7.871 -0.3760  2.5968 -1.7246
   31SAPC  C214 4160   1.042   3.149   8.057  0.0485 -0.6202  0.3101
   31SAPC  H14R 4161   0.956   3.203   8.016 -0.6634 -0.3515  2.0695
   31SAPC  C215 4162   1.052   3.138   8.192  0.5846  0.4915  0.7329
   31SAPC  H15R 4163   0.971   3.176   8.256  1.4295 -1.5153  3.1619
   31SAPC  C216 4164   1.163   3.070   8.267 -1.3295  0.9523 -0.0509
   31SAPC  H16R 4165   1.201   3.147   8.337 -0.2570 -0.7234  1.3063
   31SAPC  H16S 4166   1.248   3.045   8.201 -0.9754 -1.1437  1.0976
   31SAPC  C217 4167   1.129   2.936   8.343 -0.1454 -0.2900  0.1481
   31SAPC  H17R 4168   1.099   2.865   8.263 -2.2030 -1.8488  2.1811
   31SAPC  H17S 4169   1.040   2.964   8.404  0.2162  0.6161  0.2789
   31SAPC  C218 4170   1.248   2.886   8.434 -0.2190  0.2025 -0.2801
   31SAPC  H18R 4171   1.274   2.963   8.510  0.8994 -0.9587  0.5555
   31SAPC  H18S 4172   1.337   2.858   8.373  1.5553 -0.6724  2.4985
   31SAPC  C219 4173   1.216   2.748   8.502 -0.4851 -0.4306 -0.0190
   31SAPC  H19R 4174   1.207   2.665   8.428  2.3604 -1.2817  0.4664
   31SAPC  H19S 4175   1.114   2.760   8.545 -0.6847 -0.4184 -0.4857
   31SAPC  C220 4176   1.321   2.696   8.606  0.8561  0.6409 -0.1692
   31SAPC  H20R 4177   1.323   2.756   8.699 -0.9649  0.0160  0.3135
   31SAPC  H20S 4178   1.425   2.708   8.569  1.1899 -0.3260  0.4482
   31SAPC  H20T 4179   1.294   2.591   8.629 -0.8584 -0.0647 -4.4362
   31SAPC   C33 4180   1.694   2.945   6.978 -0.6800  0.1448 -0.6839
   31SAPC   H3X 4181   1.587   2.913   6.974 -0.1377 -1.6537 -1.9322
   31SAPC   H3Y 4182   1.708   3.054   6.989 -1.6341  0.2672 -0.5478
   31SAPC   C34 4183   1.754   2.894   7.112  0.4581 -0.0674 -0.7717
   31SAPC   H4X 4184   1.862   2.920   7.110  1.0562 -1.7779  2.2909
   31SAPC   H4Y 4185   1.752   2.783   7.122  0.0305 -0.0533 -0.6775
   31SAPC   C35 4186   1.691   2.963   7.241 -0.3270 -0.5442  0.8327
   31SAPC   H5X 4187   1.583   2.940   7.235 -0.5729  0.2766  1.8006
   31SAPC   H5Y 4188   1.711   3.072   7.239 -0.4476 -0.5326  0.2872
   31SAPC   C36 4189   1.743   2.906   7.375  0.0013  0.0070 -0.0175
   31SAPC   H6X 4190   1.727   2.796   7.374 -1.2943  0.1460  1.2622
   31SAPC   H6Y 4191   1.681   2.944   7.459 -2.0716  1.7116 -2.1868
   31SAPC   C37 4192   1.891   2.950   7.386  0.3358  0.0084 -0.1595
   31SAPC   H7X 4193   1.891   3.060   7.401 -2.6824  0.1762 -0.8001
   31SAPC   H7Y 4194   1.952   2.942   7.293  0.0005  0.3018 -0.4074
   31SAPC   C38 4195   1.973   2.901   7.511  0.6861 -0.2099 -0.2575
   31SAPC   H8X 4196   2.068   2.958   7.515 -0.4076  2.0057 -2.7804
   31SAPC   H8Y 4197   1.998   2.795   7.487  1.2157  0.0473 -0.8602
   31SAPC   C39 4198   1.905   2.938   7.642  0.0179 -0.1695  0.4158
   31SAPC   H9X 4199   1.801   2.897   7.643 -0.0719 -0.0277 -1.0174
   31SAPC   H9Y 4200   1.911   3.048   7.648  3.1768 -0.2058 -0.3596
   31SAPC  C310 4201   1.973   2.884   7.767 -0.0409 -0.1794 -0.5734
   31SAPC  H10X 4202   1.937   2.941   7.856 -0.9058  1.3959 -1.8762
   31SAPC  H10Y 4203   2.082   2.902   7.758 -0.2315  0.3078 -2.2197
   31SAPC  C311 4204   1.959   2.731   7.776 -0.4580  0.1802 -0.0539
   31SAPC  H11X 4205   2.003   2.673   7.693 -0.6870 -1.2964  0.8278
   31SAPC  H11Y 4206   1.853   2.700   7.772 -0.5268  0.3521  0.3403
   31SAPC  C312 4207   2.024   2.680   7.907 -0.3225 -0.2510  0.7558
   31SAPC  H12X 4208   2.131   2.706   7.917  0.6518 -3.0125 -1.1379
   31SAPC  H12Y 4209   2.016   2.569   7.901 -1.0186 -0.2325  1.2493
   31SAPC  C313 4210   1.940   2.718   8.023 -0.0073  0.3202 -0.2248
   31SAPC  H13X 4211   1.837   2.676   8.023  0.7719 -1.9212 -2.7007
   31SAPC  H13Y 4212   1.939   2.829   8.032  1.2503  0.2411  1.3264
   31SAPC  C314 4213   1.997   2.663   8.155 -0.1737  0.4595  0.6944
   31SAPC  H14X 4214   2.024   2.557   8.139  1.8562  0.0730  5.2376
   31SAPC  H14Y 4215   1.913   2.670   8.227 -0.3992  0.3380  0.4485
   31SAPC  C315 4216   2.120   2.728   8.208 -0.0207 -0.3911 -0.4785
   31SAPC  H15X 4217   2.103   2.837   8.205  1.1615 -0.0248  2.5874
   31SAPC  H15Y 4218   2.208   2.690   8.152  0.3785 -1.8186  1.0275
   31SAPC  C316 4219   2.120   2.711   8.357  0.2106  0.2798  0.0226
   31SAPC  H16X 4220   2.113   2.604   8.387  2.2177  0.2120  0.3990
   31SAPC  H16Y 4221   2.035   2.765   8.402 -0.6206 -1.2561  0.3863
   31SAPC  C317 4222   2.254   2.752   8.430  1.1908  0.0945 -0.1695
   31SAPC  H17X 4223   2.298   2.849   8.397 -0.0709 -0.1948 -3.0395
   31SAPC  H17Y 4224   2.318   2.674   8.384 -1.2271 -1.9761 -0.1870
   31SAPC  C318 4225   2.249   2.725   8.578 -0.1641  0.6089 -0.6394
   31SAPC  H18X 4226   2.216   2.621   8.597  1.4537  0.4485  1.7949
   31SAPC  H18Y 4227   2.178   2.795   8.627  1.3272  1.2880  0.6508
   31SAPC  H18Z 4228   2.346   2.738   8.632 -0.7253  0.7345  0.3797
   32SAPC     N 4229   4.501   2.845   6.138  0.6897 -0.1133 -0.4100
   32SAPC   C12 4230   4.581   2.871   6.261  0.1891  0.1915 -0.7668
   32SAPC  H12A 4231   4.679   2.907   6.233 -0.1506  0.4778 -1.5867
   32SAPC  H12B 4232   4.600   2.774   6.305 -0.7058  1.1978  2.0829
   32SAPC   C13 4233   4.365   2.790   6.164  0.2159 -0.6628  0.0333
   32SAPC  H13A 4234   4.376   2.698   6.220 -2.9713 -2.5761 -2.1694
   32SAPC  H13B 4235   4.306   2.857   6.225  0.2888  0.6831 -1.3194
   32SAPC  H13C 4236   4.306   2.774   6.075  0.7519 -0.1311 -0.4239
   32SAPC   C14 4237   4.480   2.969   6.056 -0.1597 -0.3261  0.0980
   32SAPC  H14A 4238   4.433   3.047   6.113 -1.1157 -0.5878 -0.3188
   32SAPC  H14B 4239   4.575   2.998   6.013 -0.4086 -0.4419 -0.5460
   32SAPC  H14C 4240   4.424   2.944   5.967 -0.9347 -0.3956  0.5993
   32SAPC   C15 4241   4.578   2.749   6.045  0.1042  0.0370 -0.3329
   32SAPC  H15A 4242   4.527   2.735   5.951 -1.1995  0.6381  0.2513
   32SAPC  H15B 4243   4.677   2.783   6.020  0.6151 -2.6061 -2.3650
   32SAPC  H15C 4244   4.597   2.655   6.095  1.9916 -0.8269 -2.4708
   32SAPC   C11 4245   4.529   2.965   6.371  0.3396  0.0172 -0.2359
   32SAPC  H11A 4246   4.598   2.964   6.458  0.6041  0.9927 -0.4218
   32SAPC  H11B 4247   4.433   2.919   6.401  0.2612 -0.8615 -1.7102
   32SAPC     P 4248   4.631   3.199   6.314  0.0497 -0.0893  0.3476
   32SAPC   O13 4249   4.739   3.118   6.258 -0.8570  0.2959  0.3172
   32SAPC   O14 4250   4.588   3.319   6.235 -0.6693  0.0110  0.3737
   32SAPC   O12 4251   4.501   3.099   6.326 -0.6277  0.0897 -0.1489
   32SAPC   O11 4252   4.662   3.244   6.465 -0.7587 -0.0435  0.2645
   32SAPC    C1 4253   4.541   3.261   6.542  0.1934 -0.2439 -0.5000
   32SAPC    HA 4254   4.495   3.357   6.513  0.3700  0.1442  0.4835
   32SAPC    HB 4255   4.464   3.181   6.539  1.0875 -1.1664  0.2893
   32SAPC    C2 4256   4.578   3.258   6.695  0.1360  0.2958 -0.2520
   32SAPC    HS 4257   4.495   3.238   6.766  0.8755 -1.3534  0.2044
   32SAPC   O21 4258   4.651   3.382   6.728  1.1338  0.6305  0.6749
   32SAPC   C21 4259   4.572   3.477   6.748  0.8177  0.2290 -0.1395
   32SAPC   O22 4260   4.450   3.470   6.724  0.5245 -0.2890 -0.0765
   32SAPC   C22 4261   4.652   3.596   6.800  0.5274 -0.0611 -0.4207
   32SAPC   H2R 4262   4.739   3.560   6.858 -1.2121  0.3639  2.6314
   32SAPC   H2S 4263   4.696   3.656   6.718  2.4964  0.7842  1.1823
   32SAPC    C3 4264   4.675   3.143   6.727 -0.1125 -0.0158 -0.1677
   32SAPC    HX 4265   4.777   3.161   6.686 -0.0090 -1.2083 -0.4487
   32SAPC    HY 4266   4.644   3.047   6.681 -0.5237 -0.4886  1.0514
   32SAPC   O31 4267   4.696   3.136   6.872 -0.2830  0.2499 -0.2596
   32SAPC   C31 4268   4.683   3.017   6.934  0.2023 -0.8580  0.0391
   32SAPC   O32 4269   4.635   2.919   6.890 -0.1392  0.4913  1.0073
   32SAPC   C32 4270   4.724   3.050   7.074  0.0322  0.5408 -0.2708
   32SAPC   H2X 4271   4.669   3.139   7.112 -0.1172  0.4342 -0.2360
   32SAPC   H2Y 4272   4.827   3.091   7.067  0.0440  0.6912  0.6848
   32SAPC   C23 4273   4.573   3.699   6.889 -0.0944 -0.1284 -0.1477
   32SAPC   H3R 4274   4.474   3.723   6.845 -0.7250 -1.2830  0.5896
   32SAPC   H3S 4275   4.634   3.792   6.891  1.1194 -0.8568  3.0359
   32SAPC   C24 4276   4.565   3.659   7.034 -0.2835  0.4996 -0.5470
   32SAPC   H4R 4277   4.546   3.741   7.106  1.5449 -1.5648  2.5328
   32SAPC   H4S 4278   4.664   3.612   7.054 -0.6612 -0.0513  0.0612
   32SAPC   C25 4279   4.453   3.558   7.053  0.2664 -0.7396  0.5055
   32SAPC   H5R 4280   4.364   3.579   6.991 -0.6040  0.5495  2.1269
   32SAPC   C26 4281   4.459   3.444   7.125  0.5702  0.2152  0.1916
   32SAPC   H6R 4282   4.362   3.397   7.143  0.4357  0.8835  1.2902
   32SAPC   C27 4283   4.567   3.399   7.216  0.1504 -0.9094 -0.0562
   32SAPC   H7R 4284   4.596   3.488   7.277 -0.1848 -0.9753  0.1983
   32SAPC   H7S 4285   4.659   3.370   7.161  0.6633  0.3733  0.0762
   32SAPC   C28 4286   4.532   3.296   7.316  0.1391 -0.3727 -1.0155
   32SAPC   H8R 4287   4.526   3.196   7.270 -0.7640  0.2458 -2.2969
   32SAPC   C29 4288   4.502   3.316   7.445  0.4572  0.2183  0.1759
   32SAPC   H9R 4289   4.479   3.223   7.500  1.0150 -0.7895 -1.2334
   32SAPC  C210 4290   4.489   3.447   7.519 -0.0000  0.8282  0.0079
   32SAPC  H10R 4291   4.488   3.536   7.453  1.8195  1.4547  0.7446
   32SAPC  H10S 4292   4.582   3.449   7.580  1.2642  2.9560 -1.8399
   32SAPC  C211 4293   4.366   3.441   7.606 -0.1728 -0.1662 -0.1231
   32SAPC  H11R 4294   4.308   3.348   7.605  2.0769 -1.6297 -1.4372
   32SAPC  C212 4295   4.348   3.527   7.707  0.1188  0.4665 -0.4280
   32SAPC  H12R 4296   4.266   3.513   7.778  1.5595  0.4089  1.2970
   32SAPC  C213 4297   4.428   3.651   7.741  0.2531 -0.2193  0.2907
   32SAPC  H13R 4298   4.382   3.741   7.697  2.8316  0.0511 -2.0872
   32SAPC  H13S 4299   4.524   3.661   7.687 -0.4542 -0.0258 -0.9616
   32SAPC  C214 4300   4.436   3.667   7.889 -0.1137 -0.0473 -0.1766
   32SAPC  H14R 4301   4.529   3.622   7.928 -0.6585 -1.3684 -0.3334
   32SAPC  C215 4302   4.353   3.718   7.979 -0.3289  0.1947 -0.3477
   32SAPC  H15R 4303   4.372   3.715   8.087 -2.1620 -1.2114 -0.0066
   32SAPC  C216 4304   4.219   3.765   7.940 -0.6473  0.3128 -0.2138
   32SAPC  H16R 4305   4.146   3.684   7.964 -0.5391  0.5745  1.0829
   32SAPC  H16S 4306   4.210   3.768   7.830  1.1372  0.0028 -0.3997
   32SAPC  C217 4307   4.147   3.886   8.016  0.1832 -0.0676  0.4183
   32SAPC  H17R 4308   4.044   3.893   7.976  0.0290  3.3942  1.0951
   32SAPC  H17S 4309   4.186   3.982   7.976 -0.0512 -0.3583 -0.5360
   32SAPC  C218 4310   4.147   3.876   8.168 -0.0442 -0.0922 -0.0209
   32SAPC  H18R 4311   4.255   3.884   8.195 -0.1014  1.9796 -0.2434
   32SAPC  H18S 4312   4.109   3.773   8.186  1.1110 -0.7819 -1.3812
   32SAPC  C219 4313   4.062   3.980   8.240  0.0163 -0.5191 -0.1020
   32SAPC  H19R 4314   3.961   3.981   8.194 -1.2528  0.3643  2.5197
   32SAPC  H19S 4315   4.116   4.076   8.223 -0.1179 -0.1955  1.2097
   32SAPC  C220 4316   4.046   3.971   8.395  0.5952  0.6054  0.0650
   32SAPC  H20R 4317   4.143   3.963   8.449 -0.0101  0.7647  1.2044
   32SAPC  H20S 4318   3.993   3.874   8.408 -1.8981  2.0661  1.5413
   32SAPC  H20T 4319   3.991   4.063   8.424 -0.5988 -0.7047  2.2731
   32SAPC   C33 4320   4.715   2.931   7.178  0.4841 -1.1998  0.1197
   32SAPC   H3X 4321   4.799   2.864   7.149  1.7903  1.0428 -1.6439
   32SAPC   H3Y 4322   4.612   2.891   7.169 -1.2882  2.8797  0.4847
   32SAPC   C34 4323   4.739   2.981   7.326 -0.0757 -0.2373 -0.5892
   32SAPC   H4X 4324   4.655   3.045   7.361 -0.2760 -0.6428 -0.3192
   32SAPC   H4Y 4325   4.836   3.033   7.339  0.2583 -1.2839  1.4904
   32SAPC   C35 4326   4.744   2.867   7.425 -0.4381  0.2705 -0.5606
   32SAPC   H5X 4327   4.828   2.805   7.387  0.1733  0.5836  0.2339
   32SAPC   H5Y 4328   4.656   2.799   7.433  0.7954 -1.7383 -2.7867
   32SAPC   C36 4329   4.791   2.913   7.559  0.7625  0.2540 -0.8216
   32SAPC   H6X 4330   4.877   2.984   7.550  0.7627  0.7177  1.9823
   32SAPC   H6Y 4331   4.848   2.831   7.606  1.4774  0.1278 -1.8717
   32SAPC   C37 4332   4.686   2.979   7.647  0.0401  0.4024  0.1778
   32SAPC   H7X 4333   4.592   2.921   7.651 -1.5369  2.7538 -0.8477
   32SAPC   H7Y 4334   4.666   3.078   7.601  2.1820  0.4491 -0.8149
   32SAPC   C38 4335   4.713   3.012   7.795  0.0950 -0.9781  0.7871
   32SAPC   H8X 4336   4.792   3.090   7.791 -0.1028 -0.6599  2.3275
   32SAPC   H8Y 4337   4.759   2.924   7.844  1.2622 -0.4444  0.6911
   32SAPC   C39 4338   4.593   3.056   7.873  0.0020 -0.0850 -1.0955
   32SAPC   H9X 4339   4.630   3.095   7.970  0.5151 -1.7477 -0.5923
   32SAPC   H9Y 4340   4.520   2.977   7.901 -0.1716  0.3285 -0.3325
   32SAPC  C310 4341   4.511   3.175   7.820 -0.6786  0.4190 -0.2481
   32SAPC  H10X 4342   4.447   3.144   7.734  0.2137 -1.2536 -0.3473
   32SAPC  H10Y 4343   4.579   3.256   7.787 -0.1352  0.5280  1.0718
   32SAPC  C311 4344   4.431   3.244   7.934  0.9939  0.9589  0.3010
   32SAPC  H11X 4345   4.384   3.339   7.902 -0.8355 -0.1810 -0.5893
   32SAPC  H11Y 4346   4.476   3.264   8.033 -0.0516  0.5605  0.8694
   32SAPC  C312 4347   4.304   3.162   7.968  0.4041  0.1422  0.2988
   32SAPC  H12X 4348   4.339   3.088   8.043 -3.3145 -1.2910  0.8326
   32SAPC  H12Y 4349   4.262   3.116   7.876  0.0827 -1.7138  1.3184
   32SAPC  C313 4350   4.192   3.246   8.021 -0.4790  0.0489 -0.1817
   32SAPC  H13X 4351   4.238   3.329   8.080  1.0882 -0.3838 -0.7594
   32SAPC  H13Y 4352   4.136   3.184   8.094  1.6836 -0.7720  0.8818
   32SAPC  C314 4353   4.096   3.287   7.912 -0.8048  0.0210 -0.2419
   32SAPC  H14X 4354   4.035   3.203   7.872 -0.4436  0.6491 -2.2491
   32SAPC  H14Y 4355   4.147   3.348   7.834 -2.1566  1.7317  0.1612
   32SAPC  C315 4356   4.001   3.398   7.971  0.4290  0.2384  0.0673
   32SAPC  H15X 4357   4.057   3.482   8.017 -1.2392  0.5828  1.5885
   32SAPC  H15Y 4358   3.944   3.356   8.057 -1.3972 -0.1724 -1.2798
   32SAPC  C316 4359   3.911   3.437   7.850  0.4982 -0.0659 -0.4971
   32SAPC  H16X 4360   3.878   3.342   7.803 -0.7934  0.9445 -1.7362
   32SAPC  H16Y 4361   3.969   3.489   7.771  0.9929 -0.0327 -0.1194
   32SAPC  C317 4362   3.789   3.523   7.893  0.4203  0.0096  0.3438
   32SAPC  H17X 4363   3.697   3.470   7.928 -0.3496  0.6532 -0.6764
   32SAPC  H17Y 4364   3.773   3.579   7.799  0.6274  1.9859  1.4419
   32SAPC  C318 4365   3.826   3.628   8.002 -0.0815 -0.5328 -0.2128
   32SAPC  H18X 4366   3.757   3.715   8.003 -0.8919 -1.1765  0.2962
   32SAPC  H18Y 4367   3.925   3.674   7.980  0.1111 -0.7546  0.1889
   32SAPC  H18Z 4368   3.817   3.579   8.101 -3.1650 -0.6238 -0.4439
   33POPC     N 4369   0.413   6.624  10.891  0.4340  0.8834 -0.2403
   33POPC   C12 4370   0.317   6.587  10.777  1.0118 -0.0102  0.2926
   33POPC  H12A 4371   0.255   6.510  10.822  0.2771  1.1878  1.3994
   33POPC  H12B 4372   0.362   6.538  10.692 -0.0556 -0.9599  0.2430
   33POPC   C13 4373   0.474   6.505  10.959 -0.2239  0.0057 -0.4933
   33POPC  H13A 4374   0.513   6.429  10.893  2.9694  1.2478 -0.2182
   33POPC  H13B 4375   0.550   6.536  11.030 -0.9540  1.7035 -0.4194
   33POPC  H13C 4376   0.398   6.459  11.022 -1.2757  0.4783 -1.3885
   33POPC   C14 4377   0.523   6.705  10.837 -0.4606 -0.2613 -0.3061
   33POPC  H14A 4378   0.485   6.794  10.788  2.1274  1.3922  0.4894
   33POPC  H14B 4379   0.582   6.735  10.921 -1.5889  1.1972  0.0116
   33POPC  H14C 4380   0.586   6.656  10.765  0.9739  0.7983  0.1948
   33POPC   C15 4381   0.339   6.702  11.000  0.1035  0.0234  0.2647
   33POPC  H15A 4382   0.417   6.732  11.068  0.6736  0.9348 -0.7586
   33POPC  H15B 4383   0.274   6.645  11.065 -0.6426  0.4613 -0.0907
   33POPC  H15C 4384   0.297   6.786  10.947  1.6698 -0.5358 -2.0395
   33POPC   C11 4385   0.226   6.691  10.704 -0.1434 -0.0482  0.5364
   33POPC  H11A 4386   0.302   6.752  10.652  0.6003 -0.7727  0.7536
   33POPC  H11B 4387   0.185   6.751  10.788 -0.2854  0.7458 -0.0889
   33POPC     P 4388  -0.013   6.606  10.654  0.2046 -0.0589  0.0571
   33POPC   O13 4389  -0.045   6.690  10.768 -0.1116 -0.0208 -0.0284
   33POPC   O14 4390  -0.049   6.464  10.665  0.2254  0.2137  0.1350
   33POPC   O12 4391   0.136   6.629  10.608  0.3901  0.0744 -0.1682
   33POPC   O11 4392  -0.097   6.675  10.538  0.7144  0.1638  0.4088
   33POPC    C1 4393  -0.076   6.812  10.499  0.3659 -0.1074 -0.3618
   33POPC    HA 4394  -0.122   6.883  10.571  1.3412  1.5034 -1.2664
   33POPC    HB 4395   0.033   6.832  10.494  0.3080  0.7185  1.0884
   33POPC    C2 4396  -0.139   6.832  10.355  0.7599  0.3781 -0.4596
   33POPC    HS 4397  -0.127   6.941  10.334  0.6675  0.5155  0.1671
   33POPC   O21 4398  -0.278   6.799  10.362  0.0997  0.0923 -0.1903
   33POPC   C21 4399  -0.342   6.869  10.453  0.4835 -0.4080 -0.3227
   33POPC   O22 4400  -0.315   6.982  10.499  0.2026 -0.7329  0.4236
   33POPC   C22 4401  -0.448   6.782  10.509  0.5585 -0.0408 -0.3303
   33POPC   H2R 4402  -0.466   6.807  10.615  2.1827 -0.0415 -0.0265
   33POPC   H2S 4403  -0.421   6.676  10.488 -0.6051 -0.3161 -0.5082
   33POPC    C3 4404  -0.079   6.751  10.242 -0.4741  0.1246 -0.5054
   33POPC    HX 4405  -0.087   6.644  10.270 -0.3625  0.4122  0.6833
   33POPC    HY 4406   0.032   6.758  10.245 -0.4900  0.2488  2.9550
   33POPC   O31 4407  -0.138   6.780  10.113 -0.3901  0.1975  0.0213
   33POPC   C31 4408  -0.087   6.883  10.035  0.0232 -0.0264 -0.5353
   33POPC   O32 4409   0.004   6.956  10.078  0.1652  0.0578 -0.1027
   33POPC   C32 4410  -0.151   6.885   9.899 -0.1731  0.4572  0.6466
   33POPC   H2X 4411  -0.196   6.985   9.884 -0.5140  0.3933  1.2098
   33POPC   H2Y 4412  -0.238   6.816   9.899 -0.9458  1.4188  0.5082
   33POPC   C23 4413  -0.587   6.807  10.445 -0.1697  0.1563  0.0434
   33POPC   H3R 4414  -0.650   6.731  10.495 -1.6485  0.1563 -1.7553
   33POPC   H3S 4415  -0.598   6.787  10.337  1.6370 -0.2034 -0.1109
   33POPC   C24 4416  -0.647   6.941  10.474  0.3353  0.6349  0.6038
   33POPC   H4R 4417  -0.595   7.022  10.418  0.6866  0.8356  1.2103
   33POPC   H4S 4418  -0.629   6.967  10.580 -1.5368  2.1588  0.5993
   33POPC   C25 4419  -0.801   6.937  10.455 -0.2531 -0.1240  0.0619
   33POPC   H5R 4420  -0.847   7.035  10.482  1.4150  0.2531  1.7526
   33POPC   H5S 4421  -0.839   6.858  10.524  1.8146 -1.1862  0.0554
   33POPC   C26 4422  -0.832   6.912  10.298 -0.3542  0.2384  0.5281
   33POPC   H6R 4423  -0.807   6.814  10.252  1.3554  1.8723 -2.2878
   33POPC   H6S 4424  -0.772   6.988  10.244  0.4582 -0.1307  0.9025
   33POPC   C27 4425  -0.982   6.934  10.279 -0.1216  0.6072  0.3320
   33POPC   H7R 4426  -1.006   7.035  10.318 -1.1734  0.0238  1.2544
   33POPC   H7S 4427  -1.040   6.866  10.345  1.7932 -1.5547 -0.0674
   33POPC   C28 4428  -1.031   6.913  10.129 -0.3453  0.3670 -0.4994
   33POPC   H8R 4429  -0.955   6.961  10.063 -1.2401  1.8054 -0.5237
   33POPC   H8S 4430  -1.135   6.951  10.115 -1.3960 -1.9444  0.6220
   33POPC   C29 4431  -1.039   6.765  10.113 -0.7059  0.7656  0.9660
   33POPC   H91 4432  -1.072   6.696  10.192 -0.0463  0.0825  0.6714
   33POPC  C210 4433  -0.991   6.709  10.003  0.2948 -0.0501  0.2216
   33POPC  H101 4434  -0.999   6.599  10.003  3.1992 -0.3593 -1.0332
   33POPC  C211 4435  -0.927   6.780   9.879 -0.0492 -0.5981  0.1122
   33POPC  H11R 4436  -0.828   6.739   9.851  0.9072  1.8183 -0.2662
   33POPC  H11S 4437  -0.917   6.890   9.893  1.5169 -0.5042 -1.4884
   33POPC  C212 4438  -1.018   6.760   9.763  0.0977  0.3700  0.1288
   33POPC  H12R 4439  -1.051   6.654   9.759 -0.9593  0.7077 -0.5822
   33POPC  H12S 4440  -0.947   6.768   9.678  1.4909 -0.6848  1.1543
   33POPC  C213 4441  -1.137   6.856   9.752  0.0376  0.0202 -0.2239
   33POPC  H13R 4442  -1.190   6.872   9.848 -0.9917  1.4731 -0.9807
   33POPC  H13S 4443  -1.198   6.814   9.670  2.3184  0.2135 -2.1306
   33POPC  C214 4444  -1.082   6.991   9.702  0.4806 -0.3458  0.5539
   33POPC  H14R 4445  -0.987   6.971   9.647 -0.2742 -0.1171 -0.8718
   33POPC  H14S 4446  -1.060   7.062   9.784  3.4031  0.2395 -0.6024
   33POPC  C215 4447  -1.172   7.064   9.599 -0.1198 -0.2578  0.1030
   33POPC  H15R 4448  -1.120   7.161   9.579  0.8403 -0.0522  3.0689
   33POPC  H15S 4449  -1.275   7.086   9.635 -0.1512 -1.7192  0.9808
   33POPC  C216 4450  -1.181   6.991   9.462 -1.4620 -0.6874 -0.5765
   33POPC  H16R 4451  -1.239   6.897   9.477  0.0841 -1.4356  1.0655
   33POPC  H16S 4452  -1.082   6.964   9.420  0.3085 -1.0871  3.3849
   33POPC  C217 4453  -1.251   7.077   9.365  0.5717  0.3234 -0.0269
   33POPC  H17R 4454  -1.180   7.152   9.325 -0.1300  1.5253  0.9004
   33POPC  H17S 4455  -1.321   7.147   9.416  1.4013  0.6495  0.6897
   33POPC  C218 4456  -1.324   6.991   9.262 -0.3512 -0.3814 -0.6525
   33POPC  H18R 4457  -1.253   6.927   9.205  1.0612  0.3827  0.1962
   33POPC  H18S 4458  -1.386   7.051   9.193 -2.6556 -1.2619  0.5379
   33POPC  H18T 4459  -1.397   6.927   9.318  1.4900 -2.0154  0.0177
   33POPC   C33 4460  -0.065   6.863   9.782 -0.6808  0.2440 -0.0450
   33POPC   H3X 4461  -0.133   6.833   9.700  0.7160 -1.4489 -0.6603
   33POPC   H3Y 4462  -0.003   6.771   9.787 -2.4003 -1.0110 -0.9429
   33POPC   C34 4463   0.029   6.974   9.738 -0.5295 -0.2768  0.5991
   33POPC   H4X 4464   0.103   6.996   9.819  0.7877  0.7592 -0.8395
   33POPC   H4Y 4465  -0.021   7.066   9.702 -0.7114 -0.3520  0.6592
   33POPC   C35 4466   0.123   6.914   9.633 -0.4550  1.4194  0.1927
   33POPC   H5X 4467   0.181   6.830   9.677  0.8508  2.7790  1.1844
   33POPC   H5Y 4468   0.188   7.000   9.606  0.0813  1.3525  1.2133
   33POPC   C36 4469   0.063   6.870   9.492  0.0385  0.4340 -0.2237
   33POPC   H6X 4470  -0.000   6.948   9.445 -2.5202 -1.5925 -0.3510
   33POPC   H6Y 4471  -0.008   6.786   9.506  0.9254 -0.3129 -0.1018
   33POPC   C37 4472   0.174   6.850   9.395  0.0425 -0.4274  0.5048
   33POPC   H7X 4473   0.221   6.755   9.428 -1.7053 -1.3182  0.5360
   33POPC   H7Y 4474   0.250   6.931   9.395 -0.3981 -0.0052 -0.3135
   33POPC   C38 4475   0.128   6.808   9.254  0.8205 -0.0953  0.2456
   33POPC   H8X 4476   0.072   6.902   9.232  1.4973 -0.1343 -1.8879
   33POPC   H8Y 4477   0.071   6.714   9.267  1.0198 -0.2879 -0.2639
   33POPC   C39 4478   0.240   6.782   9.165 -1.1189  0.5357  0.3219
   33POPC   H9X 4479   0.339   6.821   9.198  0.3386 -3.2606  0.9521
   33POPC   H9Y 4480   0.233   6.822   9.061  2.7134  0.9585  0.0532
   33POPC  C310 4481   0.267   6.638   9.132 -0.1924  0.3400  0.4095
   33POPC  H10X 4482   0.188   6.590   9.069  1.0980 -0.2244 -0.8256
   33POPC  H10Y 4483   0.296   6.581   9.223  1.1274  1.1887  0.5381
   33POPC  C311 4484   0.405   6.619   9.058  0.2477  0.4464  0.7581
   33POPC  H11X 4485   0.401   6.688   8.971 -4.4115 -0.7030 -0.2160
   33POPC  H11Y 4486   0.404   6.515   9.020 -2.3144 -0.1073  2.0849
   33POPC  C312 4487   0.530   6.641   9.145  0.1781 -0.1140 -0.0783
   33POPC  H12X 4488   0.507   6.596   9.244  0.5454 -1.0411 -0.4023
   33POPC  H12Y 4489   0.556   6.747   9.164 -1.1893  0.0681  0.9619
   33POPC  C313 4490   0.653   6.555   9.108 -0.2054 -0.4508  0.8291
   33POPC  H13X 4491   0.622   6.450   9.089 -1.9134  0.2872 -0.7890
   33POPC  H13Y 4492   0.718   6.541   9.198  0.4072  1.6713  0.7565
   33POPC  C314 4493   0.734   6.616   8.992  0.1067  0.1171  0.4121
   33POPC  H14X 4494   0.791   6.708   9.015 -0.3810  0.1807  1.3773
   33POPC  H14Y 4495   0.664   6.631   8.907  0.5117 -2.2246 -0.4102
   33POPC  C315 4496   0.839   6.521   8.931  0.0663  0.3114  0.0778
   33POPC  H15X 4497   0.785   6.435   8.886 -0.1112  1.6112 -2.3651
   33POPC  H15Y 4498   0.907   6.480   9.009 -1.8645 -1.4587  0.9278
   33POPC  C316 4499   0.916   6.590   8.818 -0.0159 -0.1194 -0.1199
   33POPC  H16X 4500   0.862   6.570   8.723  0.1579 -3.0507  0.3053
   33POPC  H16Y 4501   1.012   6.536   8.800  0.2824  0.3269  0.1319
   33POPC  H16Z 4502   0.934   6.698   8.836  2.2300 -0.6036  0.9720
   34POPC     N 4503   1.799   5.461  10.825 -0.4274  0.5804 -0.4728
   34POPC   C12 4504   1.713   5.463  10.697  0.2008  0.2897 -0.1443
   34POPC  H12A 4505   1.775   5.479  10.611  0.0909 -0.5432 -0.3839
   34POPC  H12B 4506   1.643   5.546  10.698  0.8473  0.8977  2.3517
   34POPC   C13 4507   1.884   5.581  10.832 -0.3136 -0.3502 -0.2490
   34POPC  H13A 4508   1.969   5.580  10.766  0.4097  2.0056  0.5415
   34POPC  H13B 4509   1.836   5.678  10.832  1.1146  0.3987 -1.1657
   34POPC  H13C 4510   1.924   5.575  10.932 -0.2323 -0.6625 -0.2981
   34POPC   C14 4511   1.708   5.458  10.944  0.2701 -0.2956 -0.0581
   34POPC  H14A 4512   1.638   5.377  10.936 -2.2857  1.5984  1.4831
   34POPC  H14B 4513   1.759   5.456  11.040 -2.2567  1.7048  1.4751
   34POPC  H14C 4514   1.651   5.550  10.944  1.7385  0.6658  0.7525
   34POPC   C15 4515   1.882   5.340  10.829  0.3651  0.4823  0.1124
   34POPC  H15A 4516   1.943   5.338  10.918 -0.4277 -0.1994  0.6588
   34POPC  H15B 4517   1.950   5.337  10.745 -0.7466  1.6908 -0.8691
   34POPC  H15C 4518   1.824   5.248  10.830  0.5615  0.3452 -0.5634
   34POPC   C11 4519   1.626   5.341  10.664 -0.2519 -0.5346  0.1239
   34POPC  H11A 4520   1.693   5.252  10.667 -1.8791 -1.8127  0.2072
   34POPC  H11B 4521   1.598   5.344  10.557  0.4598  2.1720 -0.0634
   34POPC     P 4522   1.390   5.412  10.729  0.0841  0.0417 -0.2364
   34POPC   O13 4523   1.424   5.555  10.692 -0.7995  0.1489 -0.5521
   34POPC   O14 4524   1.298   5.396  10.848  0.5481  0.3813  0.6005
   34POPC   O12 4525   1.523   5.328  10.755  0.3184  0.2455  0.5383
   34POPC   O11 4526   1.332   5.329  10.604 -0.3314 -0.2188 -0.7660
   34POPC    C1 4527   1.339   5.193  10.582  0.1550 -0.0425  0.2153
   34POPC    HA 4528   1.296   5.140  10.670 -0.2646 -1.7013 -0.9395
   34POPC    HB 4529   1.443   5.160  10.560 -0.2052  0.5564 -2.9274
   34POPC    C2 4530   1.255   5.166  10.449  0.5409  0.0206 -0.2403
   34POPC    HS 4531   1.282   5.062  10.422  0.5604  0.4120 -1.8552
   34POPC   O21 4532   1.294   5.258  10.342  0.4506 -0.0653 -0.6471
   34POPC   C21 4533   1.414   5.238  10.297 -0.3754  0.2264  0.7898
   34POPC   O22 4534   1.483   5.138  10.313 -0.7242 -0.5662 -0.0701
   34POPC   C22 4535   1.443   5.354  10.200  0.2039 -0.1796 -0.3548
   34POPC   H2R 4536   1.424   5.445  10.261 -0.1737 -0.6138  0.1805
   34POPC   H2S 4537   1.375   5.341  10.113 -1.1504 -1.1695  0.8104
   34POPC    C3 4538   1.102   5.160  10.469  0.3261  0.2812  0.4247
   34POPC    HX 4539   1.068   5.255  10.514  0.2319 -0.5472  2.2181
   34POPC    HY 4540   1.075   5.086  10.548 -0.1113  0.4666  0.4480
   34POPC   O31 4541   1.027   5.135  10.343 -0.2149 -0.5300  0.6106
   34POPC   C31 4542   0.986   5.011  10.324 -0.2273  0.4183 -0.2216
   34POPC   O32 4543   1.011   4.915  10.396  0.0873 -0.4369 -0.4134
   34POPC   C32 4544   0.891   5.006  10.203 -0.1470 -0.7752 -0.0743
   34POPC   H2X 4545   0.788   5.019  10.242 -0.4491  0.4088 -1.1850
   34POPC   H2Y 4546   0.901   4.904  10.161 -2.5563 -0.6881 -1.0398
   34POPC   C23 4547   1.589   5.362  10.157  0.3415  0.2243 -0.0822
   34POPC   H3R 4548   1.638   5.263  10.147  0.5888  0.1102  1.9268
   34POPC   H3S 4549   1.647   5.422  10.230  0.5611 -0.7969  0.6068
   34POPC   C24 4550   1.610   5.440  10.026 -0.7565  0.1321 -0.3619
   34POPC   H4R 4551   1.720   5.434  10.011 -0.8132 -0.1409 -0.6821
   34POPC   H4S 4552   1.582   5.548  10.032  0.7204  0.6341 -1.5521
   34POPC   C25 4553   1.534   5.398   9.907 -0.1281 -0.3302  0.4431
   34POPC   H5R 4554   1.431   5.439   9.898  0.4426  1.5010  1.5977
   34POPC   H5S 4555   1.537   5.288   9.917  2.6280 -0.3972 -0.2992
   34POPC   C26 4556   1.595   5.453   9.772 -0.5665 -0.2085 -0.1443
   34POPC   H6R 4557   1.699   5.416   9.766  0.4355  2.2448  0.6523
   34POPC   H6S 4558   1.603   5.564   9.778 -0.5120 -0.1308 -1.3875
   34POPC   C27 4559   1.507   5.418   9.649  0.0222 -0.3161  0.7831
   34POPC   H7R 4560   1.397   5.426   9.661  0.0944 -0.2093  1.3967
   34POPC   H7S 4561   1.523   5.310   9.626  0.2677 -0.1930  0.3536
   34POPC   C28 4562   1.549   5.490   9.516 -0.0618  0.2555  0.1911
   34POPC   H8R 4563   1.507   5.434   9.430  1.9010  0.6117 -1.0531
   34POPC   H8S 4564   1.660   5.489   9.512 -0.0987  0.1091 -1.2407
   34POPC   C29 4565   1.500   5.628   9.513  0.3393 -1.0999 -0.3213
   34POPC   H91 4566   1.543   5.692   9.591 -1.3474 -1.6129  1.1049
   34POPC  C210 4567   1.414   5.681   9.420 -0.0122  0.2000 -0.2767
   34POPC  H101 4568   1.381   5.785   9.430  0.2605  0.3293 -0.6589
   34POPC  C211 4569   1.344   5.597   9.317 -0.9117 -0.2742 -0.2417
   34POPC  H11R 4570   1.244   5.643   9.302 -0.3114  0.8675 -0.8233
   34POPC  H11S 4571   1.324   5.494   9.355  1.0422 -0.3263  0.8188
   34POPC  C212 4572   1.408   5.590   9.178 -0.5335 -0.5447  0.2775
   34POPC  H12R 4573   1.385   5.497   9.123  2.2391 -0.6179 -0.8866
   34POPC  H12S 4574   1.518   5.605   9.187 -0.6537  0.7510 -0.2146
   34POPC  C213 4575   1.341   5.699   9.089  0.1612 -0.7243  1.0910
   34POPC  H13R 4576   1.368   5.792   9.142  2.0207  0.9194 -2.3902
   34POPC  H13S 4577   1.234   5.674   9.077 -0.1145  1.2680 -1.6820
   34POPC  C214 4578   1.408   5.723   8.950 -0.1567 -0.1354 -0.1911
   34POPC  H14R 4579   1.495   5.788   8.973 -1.3390  1.2268  0.6387
   34POPC  H14S 4580   1.338   5.785   8.889  1.7893  2.3375 -0.0406
   34POPC  C215 4581   1.450   5.594   8.873  0.0811  0.4248 -0.5838
   34POPC  H15R 4582   1.357   5.535   8.860  0.9447 -1.0152 -0.4018
   34POPC  H15S 4583   1.526   5.543   8.935 -0.1884  2.5509  1.6542
   34POPC  C216 4584   1.498   5.622   8.731 -0.9213  0.0973 -0.7717
   34POPC  H16R 4585   1.609   5.621   8.737 -1.0029  0.3423  1.5941
   34POPC  H16S 4586   1.473   5.725   8.698  2.0247  1.7379  1.5802
   34POPC  C217 4587   1.440   5.518   8.636  0.2814 -0.2898 -0.0234
   34POPC  H17R 4588   1.331   5.538   8.629 -0.4279 -3.6962 -0.5053
   34POPC  H17S 4589   1.463   5.417   8.676  4.0688  0.2298 -0.5372
   34POPC  C218 4590   1.479   5.560   8.493 -0.4192  0.1407 -0.2425
   34POPC  H18R 4591   1.492   5.670   8.498  0.7005  0.5684 -5.7327
   34POPC  H18S 4592   1.393   5.544   8.425 -3.6547  0.0161  3.5017
   34POPC  H18T 4593   1.575   5.512   8.465 -0.1633 -0.3140  1.3257
   34POPC   C33 4594   0.912   5.108  10.092  0.1864 -0.3907  0.3541
   34POPC   H3X 4595   0.880   5.207  10.132  1.3895  0.0583  0.2469
   34POPC   H3Y 4596   0.832   5.089  10.017  0.8541 -1.2242 -0.1660
   34POPC   C34 4597   1.049   5.111  10.025 -0.4977  1.1221  0.1120
   34POPC   H4X 4598   1.094   5.010  10.036 -3.3348 -0.4719 -1.6730
   34POPC   H4Y 4599   1.120   5.176  10.081  0.0738  0.0638  0.6443
   34POPC   C35 4600   1.054   5.142   9.879  0.1479 -0.4859  0.7109
   34POPC   H5X 4601   0.989   5.071   9.823  0.5607  0.3072 -0.8117
   34POPC   H5Y 4602   1.154   5.143   9.832 -1.3442  0.5532 -2.7746
   34POPC   C36 4603   0.996   5.288   9.853  0.0523  0.5757 -0.1557
   34POPC   H6X 4604   1.053   5.361   9.914  1.8890 -1.6406  0.9390
   34POPC   H6Y 4605   0.892   5.293   9.889  0.1766 -1.2681  0.5763
   34POPC   C37 4606   1.013   5.325   9.705 -0.3260 -0.7952  0.3623
   34POPC   H7X 4607   1.115   5.360   9.681 -0.7370 -0.1863 -0.5273
   34POPC   H7Y 4608   0.951   5.416   9.690 -1.0399 -1.4297 -0.6393
   34POPC   C38 4609   0.967   5.222   9.605 -0.3187 -0.2806  0.0728
   34POPC   H8X 4610   0.856   5.208   9.605 -0.3235 -0.2645  0.4355
   34POPC   H8Y 4611   1.020   5.128   9.632 -0.7300  0.0672  2.3421
   34POPC   C39 4612   1.017   5.260   9.463  0.5157 -0.0694 -0.1553
   34POPC   H9X 4613   0.982   5.178   9.397 -1.2297  0.7100 -0.2451
   34POPC   H9Y 4614   1.128   5.258   9.456  0.5082  1.9857 -1.7259
   34POPC  C310 4615   0.955   5.392   9.406  0.7136 -0.6952 -0.5737
   34POPC  H10X 4616   0.994   5.477   9.465  2.4275 -0.7994 -1.4822
   34POPC  H10Y 4617   0.845   5.388   9.419  0.5970 -0.1781 -1.3781
   34POPC  C311 4618   0.989   5.416   9.263 -0.3346  0.3909 -0.9202
   34POPC  H11X 4619   0.949   5.326   9.212 -4.3264  0.1471  2.2072
   34POPC  H11Y 4620   1.100   5.408   9.256 -0.1423 -0.0146  1.7595
   34POPC  C312 4621   0.942   5.538   9.186  0.0479 -0.0155  0.2495
   34POPC  H12X 4622   1.007   5.622   9.219  0.8286 -0.0704 -1.0525
   34POPC  H12Y 4623   0.835   5.559   9.205 -0.2777 -0.9130 -0.4930
   34POPC  C313 4624   0.986   5.528   9.034 -0.2088 -0.3019 -1.2404
   34POPC  H13X 4625   0.936   5.440   8.987 -0.4079 -0.7335 -0.2369
   34POPC  H13Y 4626   1.095   5.506   9.030 -0.4648 -1.8352 -0.4967
   34POPC  C314 4627   0.961   5.642   8.935 -0.7024  0.5323 -0.0242
   34POPC  H14X 4628   0.996   5.738   8.979  1.4996 -1.7292  3.6519
   34POPC  H14Y 4629   0.852   5.649   8.915 -0.7116 -0.5353 -0.3903
   34POPC  C315 4630   1.038   5.622   8.799  0.1551  0.0266 -0.8127
   34POPC  H15X 4631   1.141   5.659   8.820  0.0077  1.3803 -2.3167
   34POPC  H15Y 4632   0.997   5.693   8.724  0.9909  0.5042 -0.8341
   34POPC  C316 4633   1.049   5.479   8.743  0.7735 -0.9932 -0.2091
   34POPC  H16X 4634   1.126   5.417   8.794  1.1484 -0.6425 -0.3464
   34POPC  H16Y 4635   1.077   5.485   8.635 -0.3814 -0.1286 -0.4879
   34POPC  H16Z 4636   0.959   5.415   8.756  0.4575 -0.3687  0.7363
   35POPC     N 4637   0.571   1.557  11.087  0.8377 -0.3721 -0.0705
   35POPC   C12 4638   0.557   1.631  10.959 -0.2838 -0.0631  0.0359
   35POPC  H12A 4639   0.589   1.565  10.880 -0.9583 -0.7583  0.3360
   35POPC  H12B 4640   0.620   1.719  10.949  0.5257 -0.2194  2.8147
   35POPC   C13 4641   0.711   1.501  11.098  0.4494  0.4489 -0.1626
   35POPC  H13A 4642   0.775   1.586  11.080 -2.1885  2.5849 -0.1638
   35POPC  H13B 4643   0.731   1.450  11.191  1.7700 -1.1123 -1.2417
   35POPC  H13C 4644   0.729   1.425  11.023 -1.1001 -0.9841  0.8440
   35POPC   C14 4645   0.559   1.647  11.204 -0.1844 -0.0048 -0.5525
   35POPC  H14A 4646   0.640   1.714  11.229 -2.6258  2.0015  2.9991
   35POPC  H14B 4647   0.473   1.709  11.184  0.2386  0.3134 -1.3869
   35POPC  H14C 4648   0.546   1.592  11.296 -0.9526 -3.6985 -2.6628
   35POPC   C15 4649   0.471   1.446  11.093 -0.6677  0.6675 -0.1381
   35POPC  H15A 4650   0.484   1.384  11.005  2.3216  0.6260  0.2184
   35POPC  H15B 4651   0.370   1.485  11.098 -1.0476 -0.4199  1.4363
   35POPC  H15C 4652   0.485   1.390  11.184  1.4064  0.5709 -0.4629
   35POPC   C11 4653   0.418   1.695  10.924  0.3796 -0.0222  0.4976
   35POPC  H11A 4654   0.343   1.614  10.933  1.2990 -0.8380  1.1335
   35POPC  H11B 4655   0.409   1.734  10.820 -1.2369  0.4690  0.8096
   35POPC     P 4656   0.422   1.951  10.991  0.2813 -0.2894 -0.1801
   35POPC   O13 4657   0.515   1.963  10.876 -0.5476 -0.2264  0.8600
   35POPC   O14 4658   0.463   2.007  11.121 -0.2707 -0.2125 -0.0318
   35POPC   O12 4659   0.381   1.808  11.017  0.0165  0.3017  0.2382
   35POPC   O11 4660   0.285   2.032  10.952 -0.2001  0.2627 -0.1589
   35POPC    C1 4661   0.208   1.988  10.839 -0.5632  0.4782 -0.3295
   35POPC    HA 4662   0.107   2.032  10.844 -0.9626 -0.5470  2.7488
   35POPC    HB 4663   0.196   1.878  10.834  1.0410  0.2391  0.3511
   35POPC    C2 4664   0.271   2.038  10.705  0.0891 -0.0635 -0.1878
   35POPC    HS 4665   0.368   1.983  10.701 -0.4291 -0.9763 -0.6460
   35POPC   O21 4666   0.281   2.186  10.709  0.1277 -0.2173 -1.2226
   35POPC   C21 4667   0.396   2.220  10.648 -0.0106 -0.2593  0.5506
   35POPC   O22 4668   0.475   2.146  10.590 -0.1842  0.3044  0.5011
   35POPC   C22 4669   0.421   2.371  10.675  0.3999  0.1813  0.4275
   35POPC   H2R 4670   0.513   2.366  10.736  0.8694  3.5480  0.2229
   35POPC   H2S 4671   0.344   2.427  10.734 -0.0867  0.2108 -0.2175
   35POPC    C3 4672   0.178   1.996  10.588  0.2237 -0.2336 -0.2191
   35POPC    HX 4673   0.081   2.047  10.608  0.3437  0.5348 -1.5282
   35POPC    HY 4674   0.177   1.886  10.602  3.4300 -0.3359 -0.1340
   35POPC   O31 4675   0.224   2.048  10.466 -0.2075  0.3819  0.0638
   35POPC   C31 4676   0.316   1.976  10.405 -0.4393  0.4698  1.0531
   35POPC   O32 4677   0.357   1.869  10.445 -0.1905  0.2702 -0.1746
   35POPC   C32 4678   0.340   2.038  10.267  0.2282 -0.3881 -0.2852
   35POPC   H2X 4679   0.402   1.962  10.215  1.8062  0.6154  0.0777
   35POPC   H2Y 4680   0.393   2.134  10.278 -2.6373  1.1997  0.8559
   35POPC   C23 4681   0.456   2.456  10.550  0.7712 -0.1667 -0.2542
   35POPC   H3R 4682   0.554   2.432  10.504  0.4592 -2.2889  0.0873
   35POPC   H3S 4683   0.449   2.565  10.574  0.0426  0.0412 -1.3518
   35POPC   C24 4684   0.350   2.438  10.434 -0.3229  0.5047  0.8784
   35POPC   H4R 4685   0.248   2.461  10.472 -0.7535 -1.5556  1.0941
   35POPC   H4S 4686   0.338   2.329  10.412 -1.1031  0.5940  0.8357
   35POPC   C25 4687   0.387   2.528  10.318  0.7336 -0.1055  0.1943
   35POPC   H5R 4688   0.492   2.510  10.288  0.3992 -0.8005 -0.5585
   35POPC   H5S 4689   0.385   2.634  10.354  1.4886  0.1248 -0.4326
   35POPC   C26 4690   0.302   2.495  10.193 -0.1503 -0.1523  0.8845
   35POPC   H6R 4691   0.306   2.388  10.164  0.6306  0.2164 -0.4821
   35POPC   H6S 4692   0.356   2.545  10.109 -2.7488  0.1186 -0.7449
   35POPC   C27 4693   0.156   2.537  10.204 -0.2040 -0.3214  0.4771
   35POPC   H7R 4694   0.157   2.642  10.241  0.3578  0.1999 -0.9546
   35POPC   H7S 4695   0.104   2.466  10.271 -0.5953 -0.4146  0.0777
   35POPC   C28 4696   0.093   2.534  10.067 -0.6690 -0.0911  0.1365
   35POPC   H8R 4697   0.136   2.592   9.983 -0.9644  0.6207  0.4651
   35POPC   H8S 4698  -0.011   2.574  10.073 -0.3917  1.0044 -1.6029
   35POPC   C29 4699   0.093   2.389  10.015 -0.3905 -0.3450 -0.2134
   35POPC   H91 4700   0.116   2.314  10.092  1.5227  1.3741  1.0072
   35POPC  C210 4701   0.079   2.344   9.892 -0.2415  0.5685  0.3333
   35POPC  H101 4702   0.089   2.236   9.875  0.5669  0.5897  0.6549
   35POPC  C211 4703   0.053   2.428   9.773 -0.3910  0.7941 -0.1431
   35POPC  H11R 4704   0.043   2.537   9.792  0.0497  0.7079  0.6201
   35POPC  H11S 4705  -0.046   2.398   9.734  0.0892  0.7264 -1.3341
   35POPC  C212 4706   0.163   2.408   9.658  0.3140  0.4334  0.1438
   35POPC  H12R 4707   0.184   2.300   9.645  1.0863  0.5454  0.4618
   35POPC  H12S 4708   0.258   2.463   9.671  0.9586 -0.3301 -1.0947
   35POPC  C213 4709   0.104   2.453   9.523  0.4689 -0.3840 -0.9289
   35POPC  H13R 4710   0.130   2.560   9.505  1.7396 -0.1545  1.7454
   35POPC  H13S 4711  -0.007   2.439   9.520  0.5122 -0.8081 -0.5732
   35POPC  C214 4712   0.150   2.375   9.400  0.3184  0.4693  0.0331
   35POPC  H14R 4713   0.112   2.271   9.412 -4.4046  1.8287 -1.2708
   35POPC  H14S 4714   0.261   2.380   9.390  0.0944  0.7941 -3.7908
   35POPC  C215 4715   0.073   2.422   9.274 -0.2299 -0.0583  0.2542
   35POPC  H15R 4716   0.079   2.532   9.260  0.6238 -0.3357 -1.8890
   35POPC  H15S 4717  -0.033   2.397   9.292 -0.2582 -1.2968 -1.4107
   35POPC  C216 4718   0.118   2.370   9.134  0.1248 -0.6427  0.6730
   35POPC  H16R 4719   0.059   2.424   9.057 -1.4474  0.4851  2.5765
   35POPC  H16S 4720   0.104   2.260   9.132 -0.0244 -0.6204 -0.2796
   35POPC  C217 4721   0.271   2.388   9.112  0.4226 -0.1752  0.5324
   35POPC  H17R 4722   0.335   2.333   9.184  2.3213  2.1007  0.7282
   35POPC  H17S 4723   0.290   2.497   9.122  0.8746 -0.0616 -1.3386
   35POPC  C218 4724   0.327   2.345   8.982 -0.3394  0.3023 -0.4176
   35POPC  H18R 4725   0.437   2.361   8.986  0.0638 -2.3327  1.4542
   35POPC  H18S 4726   0.285   2.403   8.896  0.6453 -0.5091 -1.4774
   35POPC  H18T 4727   0.303   2.241   8.953  0.1356  0.3995 -1.1926
   35POPC   C33 4728   0.204   2.070  10.197 -0.2276  0.2471  1.0670
   35POPC   H3X 4729   0.234   2.115  10.100 -0.6112  0.9524  1.2665
   35POPC   H3Y 4730   0.151   2.145  10.260 -1.4619 -1.2459  1.8897
   35POPC   C34 4731   0.110   1.957  10.158 -0.5580 -0.8008 -0.4203
   35POPC   H4X 4732   0.083   1.893  10.245 -1.3673 -0.7134 -0.6019
   35POPC   H4Y 4733   0.156   1.906  10.071 -0.7864  0.9839 -1.6345
   35POPC   C35 4734  -0.019   2.022  10.108 -0.5177  0.6832 -0.2139
   35POPC   H5X 4735   0.013   2.125  10.084 -1.1476  1.7934  3.1797
   35POPC   H5Y 4736  -0.096   2.043  10.185 -1.8450 -1.4820 -0.8427
   35POPC   C36 4737  -0.068   1.970   9.970  0.0272  0.0535 -0.4048
   35POPC   H6X 4738  -0.115   1.871   9.988 -0.3142  0.7090  2.9666
   35POPC   H6Y 4739   0.025   1.939   9.917  1.3433  0.4099  1.5790
   35POPC   C37 4740  -0.167   2.053   9.890 -0.1963  0.4311  0.5230
   35POPC   H7X 4741  -0.127   2.157   9.890  2.5165 -0.4884  2.7266
   35POPC   H7Y 4742  -0.260   2.062   9.950  0.0708 -0.1917  1.0371
   35POPC   C38 4743  -0.209   1.994   9.755  0.2479 -0.4257  0.2228
   35POPC   H8X 4744  -0.319   2.011   9.751  0.5878  2.0122 -0.3838
   35POPC   H8Y 4745  -0.182   1.886   9.760  2.6146  0.0625 -0.5844
   35POPC   C39 4746  -0.148   2.074   9.642  0.5098 -0.4627 -0.7267
   35POPC   H9X 4747  -0.039   2.069   9.621  1.0789  1.9293  1.2565
   35POPC   H9Y 4748  -0.163   2.179   9.674 -1.0270 -1.1866  1.1164
   35POPC  C310 4749  -0.220   2.056   9.500  0.9670 -0.2397 -0.5272
   35POPC  H10X 4750  -0.328   2.081   9.510  0.7473 -0.4560 -2.1009
   35POPC  H10Y 4751  -0.216   1.948   9.471 -1.5087 -0.5342  0.0456
   35POPC  C311 4752  -0.152   2.136   9.397  0.0833 -0.3105 -0.2123
   35POPC  H11X 4753  -0.046   2.105   9.378  0.0353 -2.5539  2.5612
   35POPC  H11Y 4754  -0.141   2.241   9.431  1.8205 -0.7514  0.7247
   35POPC  C312 4755  -0.215   2.150   9.259  0.2275 -0.0655  1.0476
   35POPC  H12X 4756  -0.278   2.061   9.237  0.7355  0.5160 -4.2546
   35POPC  H12Y 4757  -0.145   2.149   9.172  1.8193  1.3691  2.2502
   35POPC  C313 4758  -0.319   2.263   9.249  0.4563 -0.3201  1.0137
   35POPC  H13X 4759  -0.263   2.346   9.297  0.1642 -0.0682  0.9257
   35POPC  H13Y 4760  -0.409   2.231   9.307 -1.8924 -0.8082 -2.5867
   35POPC  C314 4761  -0.336   2.308   9.105  0.5064  0.8368 -0.0940
   35POPC  H14X 4762  -0.239   2.328   9.054  1.2392 -0.8571  0.5442
   35POPC  H14Y 4763  -0.393   2.403   9.113  0.5600  0.7614  1.3905
   35POPC  C315 4764  -0.417   2.199   9.026 -0.2192  0.4409  0.2752
   35POPC  H15X 4765  -0.508   2.168   9.082  1.9613 -0.5721  3.5284
   35POPC  H15Y 4766  -0.347   2.114   9.009 -0.3619  0.7621 -2.2461
   35POPC  C316 4767  -0.456   2.258   8.895 -0.2702  0.1239  1.4075
   35POPC  H16X 4768  -0.491   2.363   8.906 -1.5247 -0.1691  0.4042
   35POPC  H16Y 4769  -0.539   2.205   8.845  2.5710 -3.5435  0.1313
   35POPC  H16Z 4770  -0.367   2.255   8.828  0.2744  1.1950  2.0529
   36POPC     N 4771   5.475   3.032  10.647  0.1979  0.1656  0.6102
   36POPC   C12 4772   5.585   3.022  10.742 -0.3267  0.1468  0.8099
   36POPC  H12A 4773   5.561   2.971  10.835  0.5793 -1.3981  0.2453
   36POPC  H12B 4774   5.622   3.119  10.768 -0.0314  0.8056 -1.8188
   36POPC   C13 4775   5.360   3.115  10.705 -0.2504  0.0518 -0.6725
   36POPC  H13A 4776   5.283   3.123  10.630 -1.3314  2.6623  0.5890
   36POPC  H13B 4777   5.316   3.060  10.786  0.6616  1.4165  0.8148
   36POPC  H13C 4778   5.382   3.218  10.731 -1.3223  0.2340 -0.4119
   36POPC   C14 4779   5.520   3.083  10.510 -0.3577 -0.3379 -0.0850
   36POPC  H14A 4780   5.555   3.185  10.520 -1.6574  0.1516 -0.2759
   36POPC  H14B 4781   5.600   3.021  10.473 -1.1190 -0.8159 -0.9777
   36POPC  H14C 4782   5.443   3.076  10.434 -0.4538 -0.3619  0.0155
   36POPC   C15 4783   5.423   2.894  10.620  0.5603 -0.7026 -0.5870
   36POPC  H15A 4784   5.399   2.852  10.716  2.2178  0.1955  0.2602
   36POPC  H15B 4785   5.497   2.826  10.580 -0.6726 -2.5995  0.1745
   36POPC  H15C 4786   5.337   2.892  10.554  0.0507  1.7243 -0.1026
   36POPC   C11 4787   5.715   2.952  10.677 -0.1034 -0.4096 -0.0464
   36POPC  H11A 4788   5.685   2.853  10.635 -2.0842 -0.6578  1.7737
   36POPC  H11B 4789   5.780   2.916  10.760 -1.5032  0.5144  1.5270
   36POPC     P 4790   5.907   3.115  10.620 -0.0222  0.2198  0.2143
   36POPC   O13 4791   6.028   3.042  10.598 -0.1040 -0.3664 -0.5002
   36POPC   O14 4792   5.880   3.181  10.750 -1.1506 -0.1476 -0.1911
   36POPC   O12 4793   5.782   3.032  10.582 -0.2035  0.0919 -0.2602
   36POPC   O11 4794   5.911   3.232  10.505  0.4618  0.6069 -0.2957
   36POPC    C1 4795   5.885   3.201  10.371  0.4549  0.3864  0.4686
   36POPC    HA 4796   5.872   3.296  10.315  2.4360 -0.6959 -2.0102
   36POPC    HB 4797   5.799   3.134  10.348  0.5639  0.0912  0.9000
   36POPC    C2 4798   6.014   3.138  10.305 -0.4421  0.4860 -0.1243
   36POPC    HS 4799   6.042   3.051  10.367  2.2658  1.7813  0.6455
   36POPC   O21 4800   6.111   3.246  10.305  0.2744  0.3346  0.5253
   36POPC   C21 4801   6.228   3.208  10.339 -0.0984  0.0155 -0.0536
   36POPC   O22 4802   6.268   3.094  10.352 -0.5055 -0.6515  0.1600
   36POPC   C22 4803   6.308   3.343  10.347  0.1459  0.6501  0.5151
   36POPC   H2R 4804   6.262   3.408  10.425  1.6710  1.9376  0.4029
   36POPC   H2S 4805   6.285   3.396  10.252 -1.0878 -0.0532  0.3857
   36POPC    C3 4806   5.996   3.085  10.157  0.6441 -0.1422  0.1084
   36POPC    HX 4807   5.961   3.171  10.096  0.8538 -0.0733  0.0858
   36POPC    HY 4808   5.913   3.011  10.154  2.5575 -2.3940 -0.5094
   36POPC   O31 4809   6.120   3.023  10.104  1.0541  0.2060  0.1426
   36POPC   C31 4810   6.146   2.905  10.155 -0.5591 -0.0199 -0.3472
   36POPC   O32 4811   6.074   2.849  10.235  0.5547 -0.1188  0.9914
   36POPC   C32 4812   6.279   2.857  10.095 -0.1664  0.2968  0.1671
   36POPC   H2X 4813   6.313   2.768  10.153  1.6177  0.4134 -0.6642
   36POPC   H2Y 4814   6.359   2.933  10.101 -0.0754  0.1820  0.4487
   36POPC   C23 4815   6.460   3.310  10.355  0.1039  0.9201  0.4313
   36POPC   H3R 4816   6.481   3.224  10.423 -2.4773 -0.3607 -0.2914
   36POPC   H3S 4817   6.502   3.392  10.418 -0.2364 -0.0486  1.9791
   36POPC   C24 4818   6.528   3.304  10.216  1.1257  0.0698 -0.2433
   36POPC   H4R 4819   6.635   3.329  10.234  0.5224  2.2202  0.6079
   36POPC   H4S 4820   6.474   3.374  10.149  1.2228  0.1746 -0.2119
   36POPC   C25 4821   6.524   3.167  10.153  0.3485 -0.6006  0.2581
   36POPC   H5R 4822   6.420   3.131  10.140 -0.0532  1.0628 -1.7540
   36POPC   H5S 4823   6.591   3.100  10.211  0.7489 -0.9349 -0.5722
   36POPC   C26 4824   6.601   3.163  10.020 -0.3438 -0.0563  0.5360
   36POPC   H6R 4825   6.704   3.196  10.044  0.4487 -1.7263 -0.4222
   36POPC   H6S 4826   6.554   3.235   9.949  0.1300 -1.4874 -1.2995
   36POPC   C27 4827   6.613   3.026   9.949  0.0853  0.2913 -1.1318
   36POPC   H7R 4828   6.638   3.042   9.842  0.1373 -1.1646 -1.3591
   36POPC   H7S 4829   6.518   2.969   9.962  0.0784  0.3988 -0.6955
   36POPC   C28 4830   6.732   2.944  10.002  0.1387  0.2906 -0.2396
   36POPC   H8R 4831   6.717   2.913  10.108 -3.8885 -0.4963 -0.9059
   36POPC   H8S 4832   6.819   3.012   9.986 -0.1987  0.8212  0.1738
   36POPC   C29 4833   6.747   2.819   9.923  0.1581 -0.4554 -0.4273
   36POPC   H91 4834   6.724   2.722   9.971 -4.9070  0.3344 -0.7064
   36POPC  C210 4835   6.801   2.807   9.802 -0.3325 -0.2936  0.6241
   36POPC  H101 4836   6.802   2.713   9.745 -0.4073  0.0563  0.0281
   36POPC  C211 4837   6.853   2.919   9.716  0.1688  0.0880  0.5780
   36POPC  H11R 4838   6.962   2.903   9.699  0.6601  1.5015  2.1771
   36POPC  H11S 4839   6.855   3.016   9.769 -1.9836  0.4952 -0.0147
   36POPC  C212 4840   6.783   2.946   9.578 -0.7345 -0.7018  0.6329
   36POPC  H12R 4841   6.683   2.990   9.597  0.0250  0.4930  2.0230
   36POPC  H12S 4842   6.757   2.853   9.523 -0.1592  0.0204 -0.9278
   36POPC  C213 4843   6.859   3.037   9.481  0.6718 -0.2721  0.3368
   36POPC  H13R 4844   6.960   2.997   9.460  0.5694  0.1421 -0.9993
   36POPC  H13S 4845   6.874   3.140   9.522  1.2631  1.6329 -4.0531
   36POPC  C214 4846   6.776   3.062   9.352  0.8125 -0.0895 -0.0942
   36POPC  H14R 4847   6.676   3.110   9.366  1.2713  1.8400 -2.5708
   36POPC  H14S 4848   6.739   2.968   9.307 -1.4475  1.6597 -2.2315
   36POPC  C215 4849   6.853   3.129   9.242 -1.0955 -0.2682  0.1761
   36POPC  H15R 4850   6.958   3.098   9.222 -0.6305  0.5268  1.2736
   36POPC  H15S 4851   6.871   3.235   9.270 -0.7626  0.5958 -2.9411
   36POPC  C216 4852   6.781   3.139   9.113  0.3588  0.0955  0.1415
   36POPC  H16R 4853   6.674   3.163   9.134  0.5163 -0.9837  2.4837
   36POPC  H16S 4854   6.776   3.034   9.078  0.2497  0.0447  0.3092
   36POPC  C217 4855   6.853   3.227   9.011  0.4160  0.4147  0.0022
   36POPC  H17R 4856   6.955   3.184   9.012  0.4281  0.4402  0.9806
   36POPC  H17S 4857   6.859   3.327   9.059 -2.9257 -0.3739  2.4110
   36POPC  C218 4858   6.808   3.219   8.867 -0.3622  0.2109  0.1909
   36POPC  H18R 4859   6.828   3.116   8.828 -2.0192 -0.4877  1.0940
   36POPC  H18S 4860   6.867   3.291   8.806  1.4231 -1.0355  0.3663
   36POPC  H18T 4861   6.702   3.251   8.871  0.1868  2.1266  0.3860
   36POPC   C33 4862   6.275   2.815   9.947 -0.4352  0.0083  0.2640
   36POPC   H3X 4863   6.220   2.720   9.933  0.1263 -0.6517  2.2102
   36POPC   H3Y 4864   6.383   2.795   9.932 -0.1654  1.1858  0.5370
   36POPC   C34 4865   6.234   2.928   9.852  0.0460 -0.1479  0.5085
   36POPC   H4X 4866   6.280   3.027   9.874 -1.6113  1.5096 -2.7634
   36POPC   H4Y 4867   6.126   2.941   9.873  0.1191 -0.2643  0.9790
   36POPC   C35 4868   6.266   2.889   9.706  0.5014 -0.7805  0.0638
   36POPC   H5X 4869   6.183   2.903   9.633  1.7441 -0.6918 -1.3818
   36POPC   H5Y 4870   6.293   2.782   9.689  0.7042 -0.2707 -3.4454
   36POPC   C36 4871   6.376   2.980   9.647 -0.3604 -0.3042 -0.5938
   36POPC   H6X 4872   6.448   2.913   9.595 -0.5060 -2.2275  1.5544
   36POPC   H6Y 4873   6.439   3.031   9.722  1.1818 -1.9951 -0.6810
   36POPC   C37 4874   6.335   3.088   9.550  0.8505  0.8285 -0.8690
   36POPC   H7X 4875   6.424   3.143   9.512  3.5539 -2.1658  0.6060
   36POPC   H7Y 4876   6.277   3.164   9.606  0.6768 -1.4477  2.3382
   36POPC   C38 4877   6.257   3.042   9.430  0.6099 -0.5976  0.8486
   36POPC   H8X 4878   6.155   3.020   9.468  1.1383 -0.8612  2.1603
   36POPC   H8Y 4879   6.307   2.953   9.386 -0.1514 -0.5001 -0.2851
   36POPC   C39 4880   6.247   3.147   9.325 -0.5396 -0.6855  0.1344
   36POPC   H9X 4881   6.344   3.174   9.277 -1.2870  0.5430 -0.7791
   36POPC   H9Y 4882   6.219   3.242   9.375 -0.2916  0.7732 -2.3035
   36POPC  C310 4883   6.148   3.102   9.222  0.7313 -0.8732  0.5617
   36POPC  H10X 4884   6.050   3.085   9.271  0.9259 -0.6012  1.0609
   36POPC  H10Y 4885   6.175   2.999   9.190 -0.6920 -2.3848  3.7569
   36POPC  C311 4886   6.142   3.196   9.096 -0.2115 -0.4515  0.0634
   36POPC  H11X 4887   6.072   3.145   9.026 -0.3084  0.3930 -0.4641
   36POPC  H11Y 4888   6.241   3.203   9.047 -0.8173  0.5075 -1.0626
   36POPC  C312 4889   6.095   3.339   9.117  0.7678  0.3815  0.2270
   36POPC  H12X 4890   6.172   3.390   9.178  3.0820 -0.2105 -2.0033
   36POPC  H12Y 4891   5.997   3.335   9.170  1.6491  2.8287  2.2587
   36POPC  C313 4892   6.085   3.423   8.985 -0.3117  0.1636  0.2049
   36POPC  H13X 4893   5.987   3.387   8.946 -0.9663 -0.2410  2.1112
   36POPC  H13Y 4894   6.169   3.388   8.921  2.3262  2.3087  2.2702
   36POPC  C314 4895   6.084   3.576   9.003  0.4175  0.1826  0.3370
   36POPC  H14X 4896   6.176   3.605   9.058 -0.0060 -0.7434  1.5713
   36POPC  H14Y 4897   6.005   3.602   9.076  1.0688  2.8611  0.1988
   36POPC  C315 4898   6.052   3.651   8.873 -0.0302 -0.3924 -0.1505
   36POPC  H15X 4899   6.128   3.609   8.804 -0.6343  1.3259 -1.9763
   36POPC  H15Y 4900   6.057   3.760   8.891 -0.6681 -0.4603  0.4695
   36POPC  C316 4901   5.914   3.626   8.798  0.2289 -0.0309 -0.5966
   36POPC  H16X 4902   5.835   3.671   8.861 -0.4191  0.7483 -1.9213
   36POPC  H16Y 4903   5.899   3.517   8.786  2.9952 -0.4634 -0.7570
   36POPC  H16Z 4904   5.910   3.668   8.695  0.1916 -1.0653 -1.0320
   37POPC     N 4905   0.632   2.923   6.196  0.3982  0.4363  0.6366
   37POPC   C12 4906   0.569   2.803   6.271  0.2814 -0.8986  0.3802
   37POPC  H12A 4907   0.655   2.746   6.304  0.7850 -0.1980  0.3039
   37POPC  H12B 4908   0.510   2.740   6.207 -0.3167 -0.4535  0.4845
   37POPC   C13 4909   0.719   2.867   6.082  0.6229 -0.1191  0.2706
   37POPC  H13A 4910   0.800   2.930   6.047 -0.6859  0.3605 -2.1052
   37POPC  H13B 4911   0.766   2.779   6.124  1.4825 -0.1887 -0.7922
   37POPC  H13C 4912   0.655   2.834   6.002  0.2091 -0.1811  0.6225
   37POPC   C14 4913   0.531   3.013   6.136  0.1661  0.0382  0.0869
   37POPC  H14A 4914   0.457   3.038   6.211 -1.0137 -1.8879 -0.3364
   37POPC  H14B 4915   0.584   3.098   6.097  0.0428  0.8917  1.6932
   37POPC  H14C 4916   0.481   2.952   6.061 -0.3237 -0.7391  1.0228
   37POPC   C15 4917   0.719   2.994   6.289 -0.9929  0.0134 -0.0273
   37POPC  H15A 4918   0.789   2.933   6.344 -1.0139 -0.9959 -1.0690
   37POPC  H15B 4919   0.654   3.045   6.357 -1.0670 -1.2889  0.9158
   37POPC  H15C 4920   0.780   3.061   6.230  1.6312 -1.1118  1.2473
   37POPC   C11 4921   0.483   2.829   6.389  0.7612  0.2510  0.3827
   37POPC  H11A 4922   0.449   2.733   6.433  0.0745  0.8430  1.1862
   37POPC  H11B 4923   0.388   2.883   6.364 -0.1141 -0.8057  1.3278
   37POPC     P 4924   0.639   2.827   6.578  0.4969 -0.2056 -0.5063
   37POPC   O13 4925   0.721   2.729   6.497  0.1783 -0.0197 -0.0969
   37POPC   O14 4926   0.555   2.773   6.689  0.2091  0.2069 -0.2122
   37POPC   O12 4927   0.543   2.912   6.485 -0.1022 -0.2800 -0.0855
   37POPC   O11 4928   0.735   2.938   6.640  0.6872  0.1067  0.4151
   37POPC    C1 4929   0.684   3.073   6.663  0.5475  0.0267 -0.8291
   37POPC    HA 4930   0.573   3.074   6.677  0.3299 -2.8181 -1.6321
   37POPC    HB 4931   0.716   3.138   6.580  2.5133 -0.2108 -0.3146
   37POPC    C2 4932   0.748   3.140   6.792  1.0976 -0.4529 -0.8400
   37POPC    HS 4933   0.673   3.214   6.826  1.8705  0.0887 -0.2942
   37POPC   O21 4934   0.872   3.198   6.753  0.2557  0.1356  0.0121
   37POPC   C21 4935   0.864   3.338   6.745  0.2714  0.5699  0.0768
   37POPC   O22 4936   0.766   3.402   6.782  0.2765 -0.2267 -0.7108
   37POPC   C22 4937   0.987   3.407   6.683 -0.4425  0.4640 -0.0415
   37POPC   H2R 4938   0.978   3.423   6.573  1.2982 -0.5546 -0.3886
   37POPC   H2S 4939   1.072   3.335   6.685  0.5758  1.6572  0.7956
   37POPC    C3 4940   0.763   3.039   6.912 -0.0146  0.0678  0.6956
   37POPC    HX 4941   0.828   2.956   6.877  0.6710  0.6476  0.5668
   37POPC    HY 4942   0.662   3.000   6.936 -1.2649  2.4821 -0.3002
   37POPC   O31 4943   0.816   3.116   7.023 -0.0066  0.1917  0.1042
   37POPC   C31 4944   0.808   3.041   7.139  0.0131 -0.4797  0.5213
   37POPC   O32 4945   0.780   2.925   7.145  0.5115 -0.4715 -0.1666
   37POPC   C32 4946   0.858   3.123   7.261 -0.6578 -0.4379  0.1297
   37POPC   H2X 4947   0.862   3.229   7.229  0.9244 -0.6667 -0.4886
   37POPC   H2Y 4948   0.962   3.088   7.275 -0.2803  1.1985  1.7774
   37POPC   C23 4949   1.027   3.532   6.753 -0.3078  0.1825  0.5503
   37POPC   H3R 4950   0.948   3.610   6.753 -0.2840  0.2718 -1.4566
   37POPC   H3S 4951   1.117   3.561   6.695 -0.2233  0.4109  0.7924
   37POPC   C24 4952   1.057   3.513   6.904  0.2791 -0.7941  0.7591
   37POPC   H4R 4953   1.129   3.428   6.901  0.0048 -1.0325 -1.6127
   37POPC   H4S 4954   0.962   3.480   6.951 -1.0520  0.5117 -0.8717
   37POPC   C25 4955   1.106   3.633   6.983  0.4174  0.2284  0.1941
   37POPC   H5R 4956   1.077   3.731   6.938  0.1556  0.0502 -0.0263
   37POPC   H5S 4957   1.216   3.631   6.962  0.0538 -1.5814 -1.8772
   37POPC   C26 4958   1.082   3.623   7.134  0.7349 -0.3733  0.0037
   37POPC   H6R 4959   0.974   3.597   7.139  0.9561 -1.1644  0.9301
   37POPC   H6S 4960   1.114   3.715   7.189 -0.2063 -0.0109 -0.0388
   37POPC   C27 4961   1.151   3.499   7.200 -0.0452 -0.4867 -0.0915
   37POPC   H7R 4962   1.253   3.490   7.158 -0.2991  1.3057 -1.2187
   37POPC   H7S 4963   1.107   3.400   7.176 -0.0956 -0.6858  0.8001
   37POPC   C28 4964   1.176   3.520   7.356  0.3121 -0.3729  0.0812
   37POPC   H8R 4965   1.213   3.622   7.379 -0.6502 -0.3903  1.9350
   37POPC   H8S 4966   1.255   3.452   7.396  1.6301  1.9277  1.6151
   37POPC   C29 4967   1.047   3.484   7.437 -0.6393 -0.2701  0.2490
   37POPC   H91 4968   1.017   3.380   7.414  1.9456 -0.5924 -2.1993
   37POPC  C210 4969   0.993   3.553   7.542 -0.0661  0.5155 -0.9729
   37POPC  H101 4970   0.899   3.516   7.586  0.1652  0.0404 -0.8688
   37POPC  C211 4971   1.042   3.680   7.604  0.2429 -1.1606 -0.1810
   37POPC  H11R 4972   0.959   3.754   7.603 -0.7268 -2.1380 -3.2367
   37POPC  H11S 4973   1.127   3.722   7.546 -0.1951  1.1189  0.7081
   37POPC  C212 4974   1.073   3.660   7.759 -0.2770 -0.4275  0.3264
   37POPC  H12R 4975   1.109   3.756   7.799 -0.4835  0.1608 -0.8558
   37POPC  H12S 4976   1.143   3.574   7.772  1.5123  0.8845 -0.3353
   37POPC  C213 4977   0.942   3.641   7.845  0.8312 -0.1143 -0.1674
   37POPC  H13R 4978   0.888   3.553   7.804  1.2038  0.2769 -1.5447
   37POPC  H13S 4979   0.868   3.720   7.817  1.0200  0.4012  0.7309
   37POPC  C214 4980   0.966   3.627   7.995  0.4135 -0.7516 -0.5847
   37POPC  H14R 4981   1.027   3.711   8.035  1.0534 -0.8213 -1.3768
   37POPC  H14S 4982   1.022   3.532   8.011  1.3760  0.1939  2.3902
   37POPC  C215 4983   0.838   3.610   8.082  0.3230 -0.3734 -0.6287
   37POPC  H15R 4984   0.779   3.535   8.025  0.2837 -0.7778 -0.0673
   37POPC  H15S 4985   0.783   3.706   8.089 -1.4756 -1.4936  2.8151
   37POPC  C216 4986   0.860   3.552   8.224  0.3118 -0.0981  0.4532
   37POPC  H16R 4987   0.913   3.624   8.290 -0.4005 -0.1739  1.1286
   37POPC  H16S 4988   0.922   3.461   8.207 -0.8742 -0.8266 -0.1016
   37POPC  C217 4989   0.729   3.511   8.293  0.4037  0.4941  0.1920
   37POPC  H17R 4990   0.664   3.450   8.226 -0.4490  1.4320  0.1342
   37POPC  H17S 4991   0.670   3.602   8.317 -0.2619  0.2577 -0.5041
   37POPC  C218 4992   0.752   3.426   8.418  0.2795  0.3422  0.3945
   37POPC  H18R 4993   0.667   3.425   8.489 -1.2013  1.6718 -1.2610
   37POPC  H18S 4994   0.820   3.473   8.492 -1.1839  1.0824  1.3124
   37POPC  H18T 4995   0.788   3.323   8.398 -0.4471  0.1380  0.0872
   37POPC   C33 4996   0.771   3.107   7.390  0.4000 -0.5853  0.3405
   37POPC   H3X 4997   0.774   3.004   7.432  2.5281 -0.3404  0.9059
   37POPC   H3Y 4998   0.663   3.127   7.374  0.6821  1.3789  0.6332
   37POPC   C34 4999   0.813   3.200   7.503  0.0049 -0.3135  0.2098
   37POPC   H4X 5000   0.790   3.305   7.475 -1.0700 -0.4172  0.6639
   37POPC   H4Y 5001   0.924   3.199   7.514 -0.0550  0.4506  0.9439
   37POPC   C35 5002   0.750   3.156   7.641 -0.4011 -0.3233 -0.1037
   37POPC   H5X 5003   0.781   3.053   7.667 -1.3463 -0.4035  0.7867
   37POPC   H5Y 5004   0.639   3.149   7.653 -0.3729  1.8744  2.5072
   37POPC   C36 5005   0.777   3.256   7.752  0.4841  0.7451  0.6188
   37POPC   H6X 5006   0.776   3.355   7.702 -1.8340 -0.0863 -1.1550
   37POPC   H6Y 5007   0.880   3.247   7.794  1.5898  1.1379 -1.8160
   37POPC   C37 5008   0.672   3.248   7.857 -0.4783 -0.6358  0.0033
   37POPC   H7X 5009   0.573   3.272   7.812 -0.1505 -1.1231 -1.0148
   37POPC   H7Y 5010   0.700   3.334   7.920  1.4620 -1.2353  0.0351
   37POPC   C38 5011   0.670   3.114   7.937  0.6986  0.3630 -0.9478
   37POPC   H8X 5012   0.771   3.081   7.970  0.3124 -1.2073 -1.2684
   37POPC   H8Y 5013   0.651   3.037   7.859 -1.2438  1.0490 -1.2230
   37POPC   C39 5014   0.562   3.109   8.045  1.2932  0.3452  0.2762
   37POPC   H9X 5015   0.461   3.144   8.017 -0.1226  0.1452  4.4236
   37POPC   H9Y 5016   0.595   3.187   8.118  1.6446  1.4289 -0.9917
   37POPC  C310 5017   0.549   2.964   8.107  0.1226 -0.4214  0.0506
   37POPC  H10X 5018   0.652   2.923   8.097  0.4184  0.1993  0.4777
   37POPC  H10Y 5019   0.491   2.892   8.045 -0.4985 -0.5477  0.7642
   37POPC  C311 5020   0.493   2.946   8.252 -0.1210 -0.0534 -0.4422
   37POPC  H11X 5021   0.502   2.838   8.274 -1.5237 -0.0438  0.3083
   37POPC  H11Y 5022   0.389   2.986   8.257  0.0447  0.2106  1.1484
   37POPC  C312 5023   0.591   3.028   8.349  0.2026 -0.0925  0.0995
   37POPC  H12X 5024   0.582   3.135   8.321  0.1896  0.0860  0.7597
   37POPC  H12Y 5025   0.695   2.987   8.348  0.4659  0.4329 -2.6684
   37POPC  C313 5026   0.542   3.035   8.498 -0.4763 -1.0278 -0.3672
   37POPC  H13X 5027   0.533   2.939   8.553  1.4837 -1.7101 -1.1588
   37POPC  H13Y 5028   0.439   3.077   8.494 -0.1832 -0.1501  0.7299
   37POPC  C314 5029   0.636   3.123   8.577 -0.5526  0.3904  0.0548
   37POPC  H14X 5030   0.624   3.228   8.543 -1.3354  0.3955  0.3297
   37POPC  H14Y 5031   0.739   3.089   8.556 -0.2359  0.7291  1.0058
   37POPC  C315 5032   0.627   3.109   8.733 -0.4262 -0.3073 -1.1958
   37POPC  H15X 5033   0.655   3.003   8.753  3.0688  0.4518 -1.4560
   37POPC  H15Y 5034   0.525   3.121   8.774 -0.2937 -0.2026 -0.8918
   37POPC  C316 5035   0.723   3.198   8.810  0.0404  0.2019  0.1977
   37POPC  H16X 5036   0.734   3.180   8.919  0.8969  1.2926  0.3106
   37POPC  H16Y 5037   0.702   3.303   8.779  0.5552  0.1912 -0.2001
   37POPC  H16Z 5038   0.822   3.177   8.764 -0.8144  0.1365 -1.7167
   38POPC     N 5039   6.767   6.306   6.240  0.9453 -0.5777  0.3425
   38POPC   C12 5040   6.677   6.287   6.359  0.1218 -0.5847  0.8536
   38POPC  H12A 5041   6.576   6.295   6.321  0.6368 -2.9313 -1.1970
   38POPC  H12B 5042   6.690   6.372   6.424 -0.8106 -0.2418  0.6068
   38POPC   C13 5043   6.757   6.446   6.180 -0.6424 -0.2221  0.3209
   38POPC  H13A 5044   6.834   6.470   6.108 -2.8089  0.6971 -1.8143
   38POPC  H13B 5045   6.664   6.459   6.128  0.6565 -0.5216 -2.2186
   38POPC  H13C 5046   6.769   6.518   6.260 -2.8305  0.2382  0.2773
   38POPC   C14 5047   6.902   6.305   6.292 -0.1050 -0.3287  0.2632
   38POPC  H14A 5048   6.983   6.347   6.234  2.1991 -3.0529  1.2794
   38POPC  H14B 5049   6.911   6.346   6.392  0.9864 -0.2756  0.1624
   38POPC  H14C 5050   6.926   6.202   6.311 -0.2932 -0.8544 -2.1065
   38POPC   C15 5051   6.745   6.203   6.132 -0.2818  1.1695  0.8328
   38POPC  H15A 5052   6.639   6.193   6.117 -0.9446  2.9413  3.5972
   38POPC  H15B 5053   6.787   6.109   6.166 -1.3617 -0.4530 -1.9623
   38POPC  H15C 5054   6.799   6.221   6.040  0.9313 -2.4079  0.6661
   38POPC   C11 5055   6.682   6.164   6.448 -0.4384 -0.8508  0.2347
   38POPC  H11A 5056   6.605   6.169   6.528 -1.5104 -2.1313 -0.6717
   38POPC  H11B 5057   6.773   6.156   6.512 -0.1959 -1.7124 -0.2039
   38POPC     P 5058   6.709   5.908   6.404  0.0143  0.1276 -0.2404
   38POPC   O13 5059   6.832   5.884   6.334  0.0926  0.5301  0.6537
   38POPC   O14 5060   6.606   5.810   6.376  0.3380 -0.2164 -0.5520
   38POPC   O12 5061   6.660   6.047   6.367  0.2586  0.5014 -0.1024
   38POPC   O11 5062   6.734   5.905   6.562  0.2728  0.5575  0.9135
   38POPC    C1 5063   6.864   5.874   6.617  0.6249  0.3144 -0.0770
   38POPC    HA 5064   6.944   5.933   6.569 -1.3373  2.8534 -0.4252
   38POPC    HB 5065   6.880   5.766   6.596 -2.4452 -0.7405  2.2214
   38POPC    C2 5066   6.869   5.894   6.775  0.0006  0.5621  0.8863
   38POPC    HS 5067   6.794   5.836   6.834  0.8477 -2.0565 -0.4174
   38POPC   O21 5068   6.865   6.034   6.801 -0.0592  0.2834 -0.2642
   38POPC   C21 5069   6.792   6.076   6.907 -0.2559  0.2337  0.2992
   38POPC   O22 5070   6.719   6.006   6.969  0.4332 -0.0598  0.2366
   38POPC   C22 5071   6.824   6.217   6.945 -0.0739  0.3205  0.1271
   38POPC   H2R 5072   6.839   6.270   6.848 -1.4799  2.2301  0.8909
   38POPC   H2S 5073   6.910   6.224   7.014  1.1468 -1.1940 -1.1633
   38POPC    C3 5074   6.998   5.827   6.831 -0.6010  0.2834  0.3018
   38POPC    HX 5075   7.083   5.870   6.773 -0.3497 -0.0129  0.4493
   38POPC    HY 5076   6.983   5.723   6.795 -1.3736  0.7602 -0.8209
   38POPC   O31 5077   7.007   5.832   6.976  0.5496 -0.0146 -0.2554
   38POPC   C31 5078   7.063   5.936   7.030 -0.3669 -0.4185 -0.9689
   38POPC   O32 5079   7.146   6.008   6.970  0.4423  0.0940 -0.3142
   38POPC   C32 5080   7.025   5.946   7.178 -0.3945  0.4886  0.1208
   38POPC   H2X 5081   7.058   5.855   7.233  1.7339  2.3698  2.2323
   38POPC   H2Y 5082   6.914   5.939   7.181 -0.4196 -0.6834 -1.9906
   38POPC   C23 5083   6.711   6.287   7.030 -0.0140  0.1046 -0.4426
   38POPC   H3R 5084   6.607   6.263   6.998  0.4198 -1.6408 -0.6541
   38POPC   H3S 5085   6.729   6.397   7.031  0.8116 -0.0250 -0.4484
   38POPC   C24 5086   6.707   6.240   7.173  0.5699 -0.1878  0.3048
   38POPC   H4R 5087   6.811   6.243   7.212  0.1172 -0.4671  1.5640
   38POPC   H4S 5088   6.673   6.135   7.176  0.6446 -0.1971  1.0065
   38POPC   C25 5089   6.610   6.317   7.261  0.9159  0.4034  0.1914
   38POPC   H5R 5090   6.513   6.265   7.248  0.8592  1.0829 -3.0297
   38POPC   H5S 5091   6.604   6.425   7.233  1.6815  0.9516  1.9897
   38POPC   C26 5092   6.648   6.319   7.413 -0.7546 -0.1617 -0.1126
   38POPC   H6R 5093   6.659   6.213   7.444  1.8172  0.1076  0.1621
   38POPC   H6S 5094   6.559   6.353   7.470  0.1044 -0.7733  1.6609
   38POPC   C27 5095   6.774   6.398   7.456 -0.0632 -0.0293 -0.8882
   38POPC   H7R 5096   6.769   6.509   7.452 -1.8224 -0.0083  0.6601
   38POPC   H7S 5097   6.852   6.369   7.382  0.3024  3.0307 -1.8404
   38POPC   C28 5098   6.833   6.349   7.593  0.2010 -0.4093 -0.1600
   38POPC   H8R 5099   6.925   6.407   7.616  0.9957 -1.9331  0.7424
   38POPC   H8S 5100   6.842   6.238   7.592  0.7807 -0.4132  1.4589
   38POPC   C29 5101   6.730   6.395   7.700  0.1746 -0.5220  0.0875
   38POPC   H91 5102   6.627   6.385   7.663 -0.1380  0.4808  0.6595
   38POPC  C210 5103   6.750   6.441   7.828 -0.3662 -0.1956  0.7019
   38POPC  H101 5104   6.660   6.489   7.871  0.6837  2.5442  0.0085
   38POPC  C211 5105   6.885   6.458   7.896  0.2656  0.1249  0.4124
   38POPC  H11R 5106   6.905   6.567   7.908  0.3399  0.2300 -0.5663
   38POPC  H11S 5107   6.967   6.416   7.834 -0.9828 -0.5558 -0.8332
   38POPC  C212 5108   6.885   6.389   8.030 -0.1168  0.3613 -0.9534
   38POPC  H12R 5109   6.858   6.282   8.019 -1.9890  0.8011 -1.0138
   38POPC  H12S 5110   6.809   6.440   8.093 -0.3759  2.7165 -3.0383
   38POPC  C213 5111   7.025   6.405   8.098 -0.0202 -0.2770 -0.1113
   38POPC  H13R 5112   7.031   6.510   8.135 -1.0442 -0.1918 -0.1447
   38POPC  H13S 5113   7.104   6.381   8.025 -0.4665 -1.2559 -0.2873
   38POPC  C214 5114   7.054   6.304   8.210 -0.1019 -0.2510  0.2612
   38POPC  H14R 5115   7.160   6.324   8.234  0.4224 -0.2013 -1.8701
   38POPC  H14S 5116   7.047   6.200   8.169 -0.4088  0.0799 -0.5600
   38POPC  C215 5117   6.983   6.332   8.340 -0.5620  0.2820 -0.3362
   38POPC  H15R 5118   6.990   6.439   8.371 -2.0907  0.1613  0.4901
   38POPC  H15S 5119   7.037   6.277   8.420 -1.6516  0.4059  0.5038
   38POPC  C216 5120   6.839   6.278   8.341  0.0385  0.2567 -0.4521
   38POPC  H16R 5121   6.846   6.172   8.309  2.8818  0.5291 -1.0294
   38POPC  H16S 5122   6.776   6.335   8.269 -0.1492  2.1330  1.1328
   38POPC  C217 5123   6.773   6.292   8.483  0.4889  0.5926 -0.4133
   38POPC  H17R 5124   6.824   6.377   8.533 -1.2544  0.7710  1.1762
   38POPC  H17S 5125   6.773   6.194   8.535 -1.4663  0.3400 -0.7778
   38POPC  C218 5126   6.619   6.340   8.476  0.2362 -0.0683 -0.5043
   38POPC  H18R 5127   6.549   6.276   8.419  0.8119  0.5411 -1.9380
   38POPC  H18S 5128   6.613   6.436   8.420 -0.4250  1.1967  1.6385
   38POPC  H18T 5129   6.583   6.359   8.579 -1.1103 -0.7848 -0.8254
   38POPC   C33 5130   7.086   6.073   7.240  0.3737  0.2322  0.1101
   38POPC   H3X 5131   7.040   6.164   7.195 -1.5289 -1.0630 -0.6911
   38POPC   H3Y 5132   7.194   6.078   7.215  0.2738 -0.6785 -0.5578
   38POPC   C34 5133   7.053   6.084   7.387 -0.6496  0.6201  0.2635
   38POPC   H4X 5134   6.945   6.062   7.400 -0.3337 -1.5876 -0.5508
   38POPC   H4Y 5135   7.076   6.191   7.410 -0.8494  0.7397 -0.0832
   38POPC   C35 5136   7.143   5.999   7.470 -0.2919 -0.0709  0.3079
   38POPC   H5X 5137   7.246   6.033   7.445  0.1033 -1.0667  0.5172
   38POPC   H5Y 5138   7.131   5.890   7.451  1.2567 -0.0267 -1.1494
   38POPC   C36 5139   7.128   6.035   7.615 -0.4799 -0.2086  0.4168
   38POPC   H6X 5140   7.031   5.994   7.650 -0.6960 -0.5638 -0.5788
   38POPC   H6Y 5141   7.129   6.145   7.632  0.3261 -0.0148 -0.7144
   38POPC   C37 5142   7.239   5.989   7.712  0.3573 -0.3957 -0.4328
   38POPC   H7X 5143   7.336   6.037   7.687  0.7971 -0.3567  1.2884
   38POPC   H7Y 5144   7.268   5.882   7.706 -0.5572 -0.6750 -0.0514
   38POPC   C38 5145   7.208   6.042   7.855 -0.1470  0.3382  0.2221
   38POPC   H8X 5146   7.114   6.003   7.899 -0.3882 -0.0129 -0.5987
   38POPC   H8Y 5147   7.212   6.152   7.868 -0.0891  0.1801  1.6891
   38POPC   C39 5148   7.318   5.987   7.953  0.2741  0.2475  0.6870
   38POPC   H9X 5149   7.410   6.027   7.907 -1.1386  1.2355 -1.4221
   38POPC   H9Y 5150   7.322   5.876   7.944 -0.8520  0.1635  1.0811
   38POPC  C310 5151   7.305   6.024   8.103  0.5455 -0.0936 -0.3187
   38POPC  H10X 5152   7.280   6.132   8.097 -0.8399 -0.4133 -0.6857
   38POPC  H10Y 5153   7.397   6.000   8.161 -0.0002  1.0425  1.0587
   38POPC  C311 5154   7.185   5.950   8.163 -0.5260  0.3815 -0.5524
   38POPC  H11X 5155   7.191   5.844   8.129  0.9373  0.7964 -1.6844
   38POPC  H11Y 5156   7.088   5.983   8.120 -1.1414  0.9434  1.1820
   38POPC  C312 5157   7.191   5.972   8.312 -0.1911 -0.7898  0.4773
   38POPC  H12X 5158   7.199   6.082   8.324 -1.6889 -0.7209  1.0391
   38POPC  H12Y 5159   7.286   5.933   8.353  1.0433  3.4189  2.2027
   38POPC  C313 5160   7.070   5.919   8.384  0.4003  0.6440  0.4104
   38POPC  H13X 5161   7.048   5.812   8.360  1.9089  0.4111 -0.0197
   38POPC  H13Y 5162   6.980   5.977   8.355 -0.8838 -0.3460  2.2102
   38POPC  C314 5163   7.081   5.936   8.541 -1.0155 -0.5632  0.0547
   38POPC  H14X 5164   7.096   6.045   8.549 -1.9315 -0.4089 -0.1346
   38POPC  H14Y 5165   7.175   5.890   8.579 -1.6425 -0.7548  1.4392
   38POPC  C315 5166   6.956   5.864   8.606 -0.5659 -0.5862 -0.0668
   38POPC  H15X 5167   6.873   5.881   8.534 -1.4521  1.2901  1.3179
   38POPC  H15Y 5168   6.923   5.905   8.703 -0.7607 -2.0833  0.5359
   38POPC  C316 5169   6.982   5.716   8.624  1.0120  0.2520 -0.4052
   38POPC  H16X 5170   7.080   5.695   8.673  1.1257  0.5983 -0.4772
   38POPC  H16Y 5171   6.984   5.663   8.526  2.0136 -3.5925  1.4881
   38POPC  H16Z 5172   6.903   5.665   8.683  1.0788  3.3302  2.6454
   39POPC     N 5173   0.146   3.568   5.867  0.2389 -0.1281  0.2864
   39POPC   C12 5174   0.069   3.636   5.968  0.3348  0.3487 -0.2162
   39POPC  H12A 5175  -0.032   3.641   5.930 -0.0656 -2.9521  0.0831
   39POPC  H12B 5176   0.095   3.741   5.972  0.7252  0.2559 -0.2461
   39POPC   C13 5177   0.077   3.603   5.733  0.0703  0.3615 -0.0367
   39POPC  H13A 5178  -0.017   3.552   5.722 -1.2110  2.7066 -0.4893
   39POPC  H13B 5179   0.055   3.709   5.737  0.4422  0.4131  3.0559
   39POPC  H13C 5180   0.144   3.582   5.650 -1.6278 -1.2770 -1.0585
   39POPC   C14 5181   0.283   3.635   5.850 -0.1552  0.4380 -0.0503
   39POPC  H14A 5182   0.286   3.743   5.840  0.0513  0.6389  1.7595
   39POPC  H14B 5183   0.357   3.593   5.916  0.1445  1.4874  0.3096
   39POPC  H14C 5184   0.315   3.596   5.755  0.0598 -1.6723  0.8349
   39POPC   C15 5185   0.145   3.431   5.890 -0.0640  0.0854  0.4464
   39POPC  H15A 5186   0.047   3.385   5.900  0.3384 -0.9767 -0.3583
   39POPC  H15B 5187   0.210   3.413   5.974  1.0207  0.8696 -0.1991
   39POPC  H15C 5188   0.205   3.377   5.818  0.6755  1.6831 -0.1877
   39POPC   C11 5189   0.080   3.580   6.115  0.3450 -0.0859  0.0864
   39POPC  H11A 5190   0.036   3.478   6.113  0.9369 -0.3468  0.1748
   39POPC  H11B 5191   0.019   3.637   6.188  0.6684 -0.4014  0.5991
   39POPC     P 5192   0.293   3.698   6.214  0.3186 -0.3222  0.2515
   39POPC   O13 5193   0.241   3.819   6.151 -0.2237  0.9078  0.1433
   39POPC   O14 5194   0.435   3.664   6.198 -0.5203 -0.3093  0.5826
   39POPC   O12 5195   0.213   3.577   6.160 -0.5253 -0.0783  1.1193
   39POPC   O11 5196   0.247   3.701   6.368 -0.4688  0.3518  0.3790
   39POPC    C1 5197   0.195   3.583   6.427 -0.5224  0.7388  0.2394
   39POPC    HA 5198   0.268   3.500   6.433 -0.5168  0.7187 -0.1189
   39POPC    HB 5199   0.111   3.541   6.368  0.3888  1.5431 -1.7060
   39POPC    C2 5200   0.128   3.608   6.566 -0.7186 -0.3525  0.4369
   39POPC    HS 5201   0.056   3.526   6.582 -2.2412  0.0065 -3.5811
   39POPC   O21 5202   0.057   3.733   6.556  0.2349 -0.0958 -0.3169
   39POPC   C21 5203  -0.041   3.744   6.474  0.6335  0.0145  0.2163
   39POPC   O22 5204  -0.092   3.664   6.400 -0.2581  0.3591 -0.3191
   39POPC   C22 5205  -0.081   3.893   6.480 -0.9243  0.2078  0.0138
   39POPC   H2R 5206  -0.105   3.907   6.372  3.5780  0.9362 -1.0765
   39POPC   H2S 5207   0.008   3.952   6.509 -1.7814  2.0328 -0.9132
   39POPC    C3 5208   0.239   3.614   6.680  0.2320  0.2412  0.7021
   39POPC    HX 5209   0.311   3.694   6.651  1.3137 -0.3435  1.7097
   39POPC    HY 5210   0.280   3.513   6.661  0.0728  0.7179 -2.7850
   39POPC   O31 5211   0.180   3.625   6.814  0.2361 -0.3770 -0.2852
   39POPC   C31 5212   0.164   3.759   6.846  0.1422 -0.0662  1.2441
   39POPC   O32 5213   0.217   3.850   6.779 -0.6953  0.2474 -0.0962
   39POPC   C32 5214   0.071   3.765   6.969 -0.1542  0.2878 -0.0731
   39POPC   H2X 5215  -0.020   3.705   6.950 -0.6021  1.0157 -0.2770
   39POPC   H2Y 5216   0.127   3.715   7.051  0.4893  3.2517  1.4303
   39POPC   C23 5217  -0.193   3.917   6.579  0.6932 -0.1044  0.4573
   39POPC   H3R 5218  -0.255   3.825   6.576  0.1502  0.2015  1.7216
   39POPC   H3S 5219  -0.258   3.996   6.536 -1.1117 -0.5761  2.1776
   39POPC   C24 5220  -0.147   3.935   6.723 -0.3786 -0.0370 -0.5135
   39POPC   H4R 5221  -0.080   4.024   6.721  0.2568 -0.5228 -1.1966
   39POPC   H4S 5222  -0.098   3.843   6.760 -2.2035 -0.5006  0.8715
   39POPC   C25 5223  -0.268   3.959   6.817  0.2905  1.0012  0.0631
   39POPC   H5R 5224  -0.334   4.032   6.767  2.5338  1.9504 -1.6766
   39POPC   H5S 5225  -0.224   4.015   6.903  0.1367  0.1545  0.7062
   39POPC   C26 5226  -0.336   3.831   6.858  0.5435 -0.1019 -0.6844
   39POPC   H6R 5227  -0.260   3.759   6.895 -0.6864 -0.3081  1.6219
   39POPC   H6S 5228  -0.377   3.789   6.764 -1.4188  0.3624 -0.0723
   39POPC   C27 5229  -0.443   3.851   6.966 -0.4190  0.2668  0.2548
   39POPC   H7R 5230  -0.519   3.926   6.933 -0.8826 -0.9547 -1.6036
   39POPC   H7S 5231  -0.393   3.898   7.053 -1.8991 -0.8194  1.7323
   39POPC   C28 5232  -0.522   3.726   7.018  0.3033  0.3822 -0.4232
   39POPC   H8R 5233  -0.564   3.675   6.930  2.4812 -0.7813 -0.8653
   39POPC   H8S 5234  -0.605   3.767   7.080 -0.3666  1.2240 -1.8258
   39POPC   C29 5235  -0.451   3.616   7.103  0.6227 -0.1932 -0.4881
   39POPC   H91 5236  -0.438   3.522   7.048  0.6707 -0.7761  0.4911
   39POPC  C210 5237  -0.419   3.619   7.237  0.8218  0.2794 -0.6368
   39POPC  H101 5238  -0.399   3.521   7.283 -4.2437 -0.6188  0.1948
   39POPC  C211 5239  -0.446   3.725   7.341  0.3952  0.8958 -0.2013
   39POPC  H11R 5240  -0.515   3.804   7.305  2.0604  2.4052 -0.2678
   39POPC  H11S 5241  -0.351   3.775   7.372  1.1652 -0.4834 -0.2488
   39POPC  C212 5242  -0.509   3.661   7.461  0.1014 -1.4056  0.3233
   39POPC  H12R 5243  -0.451   3.577   7.505 -1.0347 -2.9851 -1.0761
   39POPC  H12S 5244  -0.606   3.625   7.420 -0.6300 -0.7473  1.4539
   39POPC  C213 5245  -0.524   3.767   7.567 -0.0269  0.1006 -0.0312
   39POPC  H13R 5246  -0.612   3.733   7.626 -1.1853 -4.0517 -3.6495
   39POPC  H13S 5247  -0.557   3.864   7.524  0.5556  0.5366  0.4935
   39POPC  C214 5248  -0.408   3.771   7.662 -0.1112  0.0697  0.0550
   39POPC  H14R 5249  -0.318   3.805   7.607 -0.1449 -0.4631 -0.3358
   39POPC  H14S 5250  -0.383   3.665   7.680 -0.8045 -0.0871  0.1174
   39POPC  C215 5251  -0.431   3.864   7.782 -1.0909  0.0506  0.7203
   39POPC  H15R 5252  -0.484   3.958   7.759 -1.0860 -0.4593 -1.6493
   39POPC  H15S 5253  -0.328   3.897   7.808 -0.8015 -0.9035  0.8312
   39POPC  C216 5254  -0.488   3.800   7.903 -0.6223 -0.1514 -0.0927
   39POPC  H16R 5255  -0.425   3.714   7.936  0.2000  0.1936 -0.7416
   39POPC  H16S 5256  -0.588   3.757   7.883 -1.1185  0.6173  0.6859
   39POPC  C217 5257  -0.504   3.904   8.015 -0.5104  0.3981  0.4656
   39POPC  H17R 5258  -0.587   3.972   7.984 -0.4433 -1.0920 -3.6471
   39POPC  H17S 5259  -0.415   3.970   8.014 -0.2636  0.1983 -2.9249
   39POPC  C218 5260  -0.524   3.845   8.147  0.1009  0.1806 -0.7318
   39POPC  H18R 5261  -0.444   3.770   8.164  1.4829  2.0032  1.2727
   39POPC  H18S 5262  -0.624   3.805   8.174 -1.0096  3.3259  0.2759
   39POPC  H18T 5263  -0.514   3.916   8.232  0.2351 -0.6732 -0.0242
   39POPC   C33 5264   0.045   3.914   7.017 -0.4581  0.0290 -0.6537
   39POPC   H3X 5265  -0.002   3.965   6.930  2.9789  1.3616 -1.8971
   39POPC   H3Y 5266   0.144   3.959   7.037 -0.8159  0.4624  0.2224
   39POPC   C34 5267  -0.042   3.923   7.151  0.3369 -0.9007  0.3747
   39POPC   H4X 5268   0.025   3.871   7.223  1.1243 -0.1014  0.2370
   39POPC   H4Y 5269  -0.139   3.869   7.140  0.6246 -1.3383 -0.1041
   39POPC   C35 5270  -0.064   4.066   7.208  0.2715  0.2447 -0.3116
   39POPC   H5X 5271  -0.142   4.125   7.155  0.3651  0.1786 -0.5195
   39POPC   H5Y 5272   0.029   4.124   7.192  0.4173  0.4545  1.1057
   39POPC   C36 5273  -0.098   4.062   7.353 -0.2730 -0.2901  0.2903
   39POPC   H6X 5274  -0.177   3.988   7.375  0.1924 -0.9387 -0.1450
   39POPC   H6Y 5275  -0.131   4.166   7.375 -1.0172  0.3077 -3.0546
   39POPC   C37 5276   0.027   4.043   7.435 -0.1988  0.5649  0.2851
   39POPC   H7X 5277   0.101   4.124   7.421  1.7630 -1.1662  0.2784
   39POPC   H7Y 5278   0.083   3.952   7.405  0.4292  0.7785  0.7886
   39POPC   C38 5279   0.001   4.015   7.582  0.0018 -0.1489 -0.1507
   39POPC   H8X 5280   0.095   3.967   7.616  1.1063  1.4405 -0.8427
   39POPC   H8Y 5281  -0.083   3.945   7.601  0.5581 -1.1319 -1.1979
   39POPC   C39 5282  -0.015   4.143   7.663  0.0527  0.1567 -0.2564
   39POPC   H9X 5283  -0.095   4.214   7.631  0.2678  1.2202  1.4508
   39POPC   H9Y 5284   0.073   4.210   7.650 -1.4068  2.4384  0.8437
   39POPC  C310 5285  -0.027   4.124   7.816 -0.0986 -0.0034  0.3059
   39POPC  H10X 5286   0.052   4.062   7.861 -2.6052 -3.1834  0.6911
   39POPC  H10Y 5287  -0.126   4.074   7.827 -0.4796  0.9245  1.3732
   39POPC  C311 5288  -0.031   4.256   7.896  0.1965 -0.2035 -0.0910
   39POPC  H11X 5289  -0.117   4.305   7.846 -0.0357 -3.2371 -3.0760
   39POPC  H11Y 5290   0.061   4.313   7.872  0.3470 -0.4002  0.0186
   39POPC  C312 5291  -0.056   4.233   8.046  0.1115 -0.0158  0.5492
   39POPC  H12X 5292   0.039   4.187   8.081 -0.5404 -0.4728  1.7433
   39POPC  H12Y 5293  -0.147   4.171   8.059 -0.1159  0.3769  0.8476
   39POPC  C313 5294  -0.075   4.365   8.117  0.3627 -0.6436  0.1736
   39POPC  H13X 5295  -0.133   4.431   8.049  3.9243  1.7870 -0.8212
   39POPC  H13Y 5296   0.022   4.420   8.124  0.4853 -0.9036  0.5235
   39POPC  C314 5297  -0.140   4.361   8.256  0.6508 -0.3693 -0.1258
   39POPC  H14X 5298  -0.209   4.275   8.273 -0.8399  1.1837  2.1784
   39POPC  H14Y 5299  -0.201   4.454   8.258  1.1609  0.0033 -1.0971
   39POPC  C315 5300  -0.047   4.376   8.373 -0.2335  0.5370 -0.6951
   39POPC  H15X 5301  -0.011   4.280   8.416 -1.3195  1.6362  3.0328
   39POPC  H15Y 5302  -0.116   4.392   8.459  1.2507  1.4809  0.3607
   39POPC  C316 5303   0.067   4.473   8.376  0.1298 -0.1881 -0.0598
   39POPC  H16X 5304   0.112   4.470   8.478  1.3793 -0.5700 -0.6048
   39POPC  H16Y 5305   0.032   4.577   8.358  2.6268  1.3893  3.0596
   39POPC  H16Z 5306   0.152   4.457   8.306  1.4216  0.2209  1.3544
   40POPC     N 5307   4.853   1.001   6.389 -0.7199  0.4785 -0.1700
   40POPC   C12 5308   4.877   1.061   6.529  0.9971  0.2039 -1.1347
   40POPC  H12A 5309   4.966   1.123   6.534  2.1796 -1.4104 -1.4415
   40POPC  H12B 5310   4.894   0.979   6.597  2.8219  0.8701 -0.7358
   40POPC   C13 5311   4.926   0.866   6.376 -0.7459  0.0940  0.1299
   40POPC  H13A 5312   4.911   0.815   6.282 -1.0616  0.7359 -0.1758
   40POPC  H13B 5313   5.032   0.883   6.385 -0.6026 -1.6074  2.4495
   40POPC  H13C 5314   4.897   0.800   6.457 -0.4744 -0.7796 -0.4662
   40POPC   C14 5315   4.712   0.952   6.365 -0.0105 -0.3526 -0.5316
   40POPC  H14A 5316   4.706   0.907   6.267 -0.5937 -0.0360 -0.6458
   40POPC  H14B 5317   4.686   0.875   6.436  0.5225  0.2025  0.2882
   40POPC  H14C 5318   4.640   1.030   6.388  0.4898 -0.5034  1.8937
   40POPC   C15 5319   4.899   1.097   6.275  0.9461  0.0238  0.8174
   40POPC  H15A 5320   4.829   1.179   6.274 -0.0734 -0.8216  1.2911
   40POPC  H15B 5321   4.909   1.048   6.178  2.7805  0.4923  0.7319
   40POPC  H15C 5322   4.990   1.151   6.295  1.6543 -0.9368  0.3268
   40POPC   C11 5323   4.771   1.150   6.580 -0.2143  0.1843 -0.2443
   40POPC  H11A 5324   4.778   1.181   6.687  0.0723 -0.7496  0.0223
   40POPC  H11B 5325   4.678   1.088   6.582  0.2985 -0.5953  1.3433
   40POPC     P 5326   4.835   1.399   6.526 -0.4650  0.6676  0.3124
   40POPC   O13 5327   4.800   1.488   6.413  0.4700  0.1203 -0.6281
   40POPC   O14 5328   4.974   1.338   6.528  0.4021 -0.2387 -0.2788
   40POPC   O12 5329   4.747   1.268   6.506 -0.2488 -0.2261 -0.0150
   40POPC   O11 5330   4.790   1.453   6.665  0.5928  0.2399 -0.4045
   40POPC    C1 5331   4.653   1.472   6.694  0.1507  0.2310 -0.1197
   40POPC    HA 5332   4.632   1.440   6.798  0.5491 -0.3655 -0.2164
   40POPC    HB 5333   4.590   1.408   6.628 -0.8542  0.1163  0.9232
   40POPC    C2 5334   4.603   1.617   6.672 -0.3584  0.3998  0.3628
   40POPC    HS 5335   4.641   1.655   6.575  1.9271 -0.0320  1.0255
   40POPC   O21 5336   4.648   1.695   6.787  0.4359 -0.1437 -0.1067
   40POPC   C21 5337   4.634   1.827   6.771  0.7927 -0.0537 -0.2177
   40POPC   O22 5338   4.601   1.885   6.667  0.0716  0.3667  0.1642
   40POPC   C22 5339   4.657   1.910   6.904 -0.8716 -0.6916  0.4054
   40POPC   H2R 5340   4.726   1.869   6.980  0.1844  0.6309  0.2092
   40POPC   H2S 5341   4.562   1.900   6.960 -0.0389  0.4419  2.0983
   40POPC    C3 5342   4.451   1.618   6.666 -0.4685  0.1938  0.3564
   40POPC    HX 5343   4.413   1.562   6.578  0.1294  1.7774 -0.9777
   40POPC    HY 5344   4.416   1.718   6.631 -1.0729 -0.3991 -0.7767
   40POPC   O31 5345   4.385   1.585   6.793  0.3147  0.1126  0.5086
   40POPC   C31 5346   4.252   1.564   6.783  0.7257  0.5797  0.0799
   40POPC   O32 5347   4.189   1.562   6.681 -0.4294  0.7207  0.0302
   40POPC   C32 5348   4.201   1.546   6.926  0.6649  0.0440 -0.2260
   40POPC   H2X 5349   4.283   1.559   7.001  0.7934  1.1002 -0.5228
   40POPC   H2Y 5350   4.165   1.443   6.946  0.4326  0.0381 -0.6816
   40POPC   C23 5351   4.701   2.058   6.874 -0.0241  0.0147  0.1617
   40POPC   H3R 5352   4.704   2.113   6.970  0.5820 -0.3984  0.3866
   40POPC   H3S 5353   4.627   2.099   6.802  2.0806 -0.3513 -2.3225
   40POPC   C24 5354   4.843   2.071   6.812 -0.1769  0.5174 -0.2841
   40POPC   H4R 5355   4.831   2.023   6.713  0.2400 -0.1930  0.0019
   40POPC   H4S 5356   4.919   2.003   6.856 -0.6573  0.9573  1.2627
   40POPC   C25 5357   4.912   2.216   6.792  0.1087 -0.2543  0.2516
   40POPC   H5R 5358   4.818   2.276   6.781 -0.1042 -0.6061  0.1582
   40POPC   H5S 5359   4.958   2.230   6.692 -1.7101 -1.7130 -0.8512
   40POPC   C26 5360   4.974   2.268   6.921 -0.1916  0.2162  0.0999
   40POPC   H6R 5361   5.043   2.188   6.955 -2.1797 -2.4925 -1.8218
   40POPC   H6S 5362   4.894   2.263   6.998  0.0322  2.1625  0.5125
   40POPC   C27 5363   5.039   2.407   6.898 -0.4616 -0.3885 -0.1188
   40POPC   H7R 5364   4.960   2.469   6.851 -2.1129 -4.2682 -2.9932
   40POPC   H7S 5365   5.116   2.403   6.818 -1.6329 -0.0490 -1.2906
   40POPC   C28 5366   5.097   2.472   7.023  0.2505  0.2246 -0.7337
   40POPC   H8R 5367   5.150   2.562   6.985 -1.1853  1.7664  0.6919
   40POPC   H8S 5368   5.171   2.397   7.059  0.0848  0.5621  0.3384
   40POPC   C29 5369   4.999   2.507   7.129  0.7881  0.7088 -0.5475
   40POPC   H91 5370   4.903   2.544   7.091 -0.5280 -3.1070 -1.3548
   40POPC  C210 5371   5.010   2.488   7.263 -0.3210 -0.2122  0.9568
   40POPC  H101 5372   4.930   2.520   7.331  1.1722 -1.6691  3.5598
   40POPC  C211 5373   5.132   2.434   7.332  0.2068  0.3812 -0.2210
   40POPC  H11R 5374   5.196   2.519   7.362  0.8085 -0.3561  0.6320
   40POPC  H11S 5375   5.200   2.379   7.263 -0.1301 -0.4951  0.1255
   40POPC  C212 5376   5.094   2.334   7.450 -0.2289  0.3101  0.3416
   40POPC  H12R 5377   5.186   2.274   7.462 -0.0540  0.7109  1.0129
   40POPC  H12S 5378   5.003   2.270   7.441  1.5330 -2.0475 -2.5429
   40POPC  C213 5379   5.073   2.414   7.583 -0.7027  0.0072 -0.3691
   40POPC  H13R 5380   4.973   2.463   7.592 -0.7517  0.5360 -3.0831
   40POPC  H13S 5381   5.145   2.499   7.576  0.0307 -0.3293  2.0509
   40POPC  C214 5382   5.097   2.324   7.708  0.2083  1.0811 -0.5049
   40POPC  H14R 5383   5.198   2.279   7.697 -0.3156 -0.9357  1.8666
   40POPC  H14S 5384   5.014   2.250   7.701 -0.6327  2.1585 -2.6783
   40POPC  C215 5385   5.103   2.395   7.848 -0.2212  0.0870  0.1833
   40POPC  H15R 5386   5.023   2.472   7.847  0.5847  0.9505 -0.0549
   40POPC  H15S 5387   5.203   2.444   7.855  0.0570 -0.3758 -0.5048
   40POPC  C216 5388   5.092   2.301   7.968 -0.4130 -0.6863 -0.4537
   40POPC  H16R 5389   5.154   2.209   7.961  1.5878  0.3453  1.9278
   40POPC  H16S 5390   4.989   2.263   7.952 -1.1312  1.4924 -1.4081
   40POPC  C217 5391   5.116   2.338   8.116 -0.9190 -0.4619  0.2689
   40POPC  H17R 5392   5.080   2.442   8.132 -0.7132 -0.1395 -1.1979
   40POPC  H17S 5393   5.222   2.363   8.138 -1.0615 -1.1815  2.0102
   40POPC  C218 5394   5.060   2.238   8.216 -0.2977  0.2046  0.0511
   40POPC  H18R 5395   4.967   2.190   8.179 -0.1917  2.5324 -3.7808
   40POPC  H18S 5396   5.052   2.269   8.322 -2.0890  1.3312 -0.3668
   40POPC  H18T 5397   5.134   2.156   8.211 -0.0719  0.4506 -1.1496
   40POPC   C33 5398   4.091   1.646   6.970 -0.2025  0.0573  0.0706
   40POPC   H3X 5399   3.993   1.619   6.925 -1.0142  1.3418  0.9732
   40POPC   H3Y 5400   4.106   1.751   6.937 -1.8972  0.0792 -0.7571
   40POPC   C34 5401   4.069   1.657   7.122 -0.2380  0.8073 -0.3299
   40POPC   H4X 5402   3.987   1.726   7.151  1.4137  2.8654 -0.3763
   40POPC   H4Y 5403   4.161   1.690   7.174  1.7337 -3.6637 -0.5386
   40POPC   C35 5404   4.030   1.515   7.178 -0.6195 -0.5993 -0.9465
   40POPC   H5X 5405   4.129   1.463   7.175 -0.4140 -0.2308 -0.7115
   40POPC   H5Y 5406   3.965   1.453   7.113 -0.8397 -1.7704  0.3478
   40POPC   C36 5407   3.987   1.518   7.329  0.4129  0.6146  0.6032
   40POPC   H6X 5408   3.887   1.563   7.343 -1.0139 -2.6520  1.9152
   40POPC   H6Y 5409   4.062   1.585   7.378  0.4128  1.1577 -0.1309
   40POPC   C37 5410   3.983   1.381   7.388  0.1140  0.0080 -0.4672
   40POPC   H7X 5411   4.089   1.353   7.400 -0.2445 -2.4273 -2.3138
   40POPC   H7Y 5412   3.935   1.298   7.332  0.7692 -0.6178 -0.1073
   40POPC   C38 5413   3.915   1.371   7.529 -1.0556 -0.6033 -0.2972
   40POPC   H8X 5414   3.929   1.268   7.569  0.8271 -0.3561 -0.2200
   40POPC   H8Y 5415   3.806   1.384   7.515 -0.9157  1.8874  0.3479
   40POPC   C39 5416   3.961   1.475   7.631 -0.3070 -0.6237  0.2146
   40POPC   H9X 5417   3.940   1.573   7.585  1.8337 -0.0103  0.4318
   40POPC   H9Y 5418   4.072   1.474   7.641  0.1079  0.1807 -3.2641
   40POPC  C310 5419   3.893   1.453   7.767 -0.1677  0.0763 -0.1107
   40POPC  H10X 5420   3.811   1.382   7.744 -0.3009  1.5022 -5.3486
   40POPC  H10Y 5421   3.847   1.547   7.804  1.3343  0.3586  1.1809
   40POPC  C311 5422   3.988   1.394   7.865 -0.6406  0.1203 -0.2323
   40POPC  H11X 5423   4.079   1.458   7.876 -0.3240 -0.0414 -1.6598
   40POPC  H11Y 5424   4.037   1.305   7.819  0.9999  0.6822  0.3585
   40POPC  C312 5425   3.919   1.342   7.990  0.0150 -0.3416 -0.6825
   40POPC  H12X 5426   3.989   1.272   8.040 -2.0277 -1.0172  1.4000
   40POPC  H12Y 5427   3.826   1.293   7.955 -1.7891  1.1589  1.6929
   40POPC  C313 5428   3.869   1.461   8.077 -0.5806 -0.2912 -0.2298
   40POPC  H13X 5429   3.774   1.499   8.036 -0.0082  0.8507 -0.5372
   40POPC  H13Y 5430   3.941   1.544   8.060 -0.0568 -0.6724  0.0646
   40POPC  C314 5431   3.866   1.432   8.223 -0.3069  0.2063 -0.2195
   40POPC  H14X 5432   3.863   1.528   8.280  1.0982 -0.8416  1.7490
   40POPC  H14Y 5433   3.961   1.376   8.236 -1.2255 -1.5775 -0.8560
   40POPC  C315 5434   3.756   1.331   8.264  0.3870  0.2772 -0.2424
   40POPC  H15X 5435   3.768   1.241   8.200 -2.5144 -0.1559 -0.3229
   40POPC  H15Y 5436   3.665   1.380   8.224  0.6088  0.8752 -0.0230
   40POPC  C316 5437   3.751   1.308   8.418 -0.9187 -0.0674 -0.7136
   40POPC  H16X 5438   3.741   1.403   8.475  2.3795 -0.0386 -0.0065
   40POPC  H16Y 5439   3.856   1.285   8.445 -1.4790 -0.3697  1.3458
   40POPC  H16Z 5440   3.683   1.229   8.455  1.7214 -2.5590 -0.8596
   41CHL1    C3 5441   5.067   4.496  10.104 -1.1763 -0.1887 -0.0260
   41CHL1    H3 5442   5.140   4.578  10.087 -2.4850  0.5871 -2.4059
   41CHL1    O3 5443   5.068   4.486  10.241  0.8961 -0.3621 -0.0833
   41CHL1   H3' 5444   4.994   4.436  10.276  1.2737 -1.5342 -0.9287
   41CHL1    C4 5445   4.929   4.543  10.048 -0.8579 -0.4644 -0.1043
   41CHL1   H4A 5446   4.853   4.470  10.082 -1.3472  0.4876  0.9534
   41CHL1   H4B 5447   4.902   4.637  10.101  2.7045 -1.2056  3.4896
   41CHL1    C5 5448   4.944   4.564   9.897  0.4228  0.7736  0.8820
   41CHL1    C6 5449   4.923   4.682   9.836 -0.5665  0.3781 -0.5809
   41CHL1    H6 5450   4.914   4.771   9.900  1.1723 -0.2155  0.5678
   41CHL1    C7 5451   4.937   4.722   9.691 -0.1005  0.0528 -0.8955
   41CHL1   H7A 5452   4.845   4.771   9.655 -0.5499  1.3382  1.7740
   41CHL1   H7B 5453   5.031   4.779   9.676 -0.0391  0.1220 -0.2495
   41CHL1    C8 5454   4.942   4.596   9.604 -0.6388  0.0575 -0.4543
   41CHL1    H8 5455   4.838   4.559   9.591 -0.6969  0.8802 -2.8375
   41CHL1   C14 5456   4.995   4.636   9.462 -0.4002  0.3819 -0.0848
   41CHL1   H14 5457   5.099   4.663   9.491 -0.8172  0.0557  1.8531
   41CHL1   C15 5458   4.931   4.751   9.380  0.3361  0.3087 -0.3553
   41CHL1  H15A 5459   4.824   4.742   9.405  0.3365 -2.9785 -1.0475
   41CHL1  H15B 5460   4.982   4.840   9.423  1.0972 -0.9583  1.5143
   41CHL1   C16 5461   4.966   4.717   9.237  0.2251  0.1941  0.2113
   41CHL1  H16A 5462   4.868   4.711   9.186 -1.8963 -0.3747  3.9793
   41CHL1  H16B 5463   5.028   4.800   9.196  1.1541 -0.3239  0.5312
   41CHL1   C17 5464   5.059   4.592   9.239  0.2727 -0.4285  0.2537
   41CHL1   H17 5465   5.155   4.642   9.262  1.1830 -1.7536 -0.5451
   41CHL1   C13 5466   5.012   4.517   9.363 -0.8441  0.2554 -0.9348
   41CHL1   C18 5467   4.883   4.442   9.349  0.4732  0.0094 -0.2349
   41CHL1  H18A 5468   4.824   4.499   9.275  0.9164  0.8722  0.0625
   41CHL1  H18B 5469   4.892   4.341   9.304  1.0828  0.8526 -2.0914
   41CHL1  H18C 5470   4.827   4.436   9.445  0.6511  1.6812 -0.0020
   41CHL1   C12 5471   5.110   4.415   9.437  0.6309 -0.4093 -0.0337
   41CHL1  H12A 5472   5.117   4.322   9.376  3.0913 -2.4378  3.0298
   41CHL1  H12B 5473   5.207   4.468   9.454  0.8026 -0.8560  0.3990
   41CHL1   C11 5474   5.059   4.375   9.570  0.0870  0.4717 -0.3128
   41CHL1  H11A 5475   4.969   4.316   9.544 -0.3138  1.6440 -1.6891
   41CHL1  H11B 5476   5.127   4.304   9.623 -1.4282 -0.0160  1.0880
   41CHL1    C9 5477   5.039   4.489   9.670  0.2203 -0.1740  0.2344
   41CHL1    H9 5478   5.141   4.533   9.676  0.0762  0.1149  0.6446
   41CHL1   C10 5479   5.000   4.448   9.821  0.5856 -0.2071  0.2474
   41CHL1   C19 5480   4.895   4.342   9.813  0.3521  1.3421  0.3576
   41CHL1  H19A 5481   4.814   4.372   9.744 -0.4248  0.9167  1.0679
   41CHL1  H19B 5482   4.934   4.248   9.767  1.2067  1.1732  1.3858
   41CHL1  H19C 5483   4.846   4.303   9.904  2.1895 -2.8962 -0.2005
   41CHL1    C1 5484   5.130   4.396   9.891  0.0564 -0.1698  0.3305
   41CHL1   H1A 5485   5.153   4.300   9.839 -1.3891 -1.1512  1.4148
   41CHL1   H1B 5486   5.225   4.454   9.882 -0.7168  0.9679 -0.7686
   41CHL1    C2 5487   5.115   4.362  10.042 -0.5840  0.0370  0.7314
   41CHL1   H2A 5488   5.216   4.342  10.084 -0.2429 -0.8655 -0.4579
   41CHL1   H2B 5489   5.048   4.279  10.073 -1.5914 -0.1412 -1.7421
   41CHL1   C20 5490   5.070   4.526   9.100 -0.0205  0.3197 -0.3371
   41CHL1   H20 5491   4.966   4.491   9.082  0.1470 -0.7841  0.6970
   41CHL1   C21 5492   5.171   4.411   9.107  0.0729  0.7971  0.0852
   41CHL1  H21A 5493   5.190   4.386   9.001  0.3442 -1.8984  0.7005
   41CHL1  H21B 5494   5.129   4.323   9.161  0.7602  0.7136  0.4907
   41CHL1  H21C 5495   5.263   4.450   9.156  0.5288  1.8131 -1.5037
   41CHL1   C22 5496   5.121   4.618   8.982 -0.7531  0.1327 -0.6818
   41CHL1  H22A 5497   5.108   4.726   9.005  3.8408  0.8524 -0.6648
   41CHL1  H22B 5498   5.231   4.610   8.974 -1.0034 -2.9991 -2.8183
   41CHL1   C23 5499   5.068   4.578   8.846  0.2247 -0.1690  0.5673
   41CHL1  H23A 5500   5.136   4.619   8.768  0.9004  0.8656  1.6646
   41CHL1  H23B 5501   5.077   4.469   8.833  0.7817  0.1162 -1.9243
   41CHL1   C24 5502   4.920   4.629   8.823 -0.5744  0.6479  0.3457
   41CHL1  H24A 5503   4.850   4.577   8.891 -1.6234 -0.2718 -1.3491
   41CHL1  H24B 5504   4.908   4.737   8.848 -1.8086  0.0907  2.3675
   41CHL1   C25 5505   4.857   4.618   8.678  0.3371 -0.5457 -0.2357
   41CHL1   H25 5506   4.901   4.700   8.617 -0.8984  1.5619  1.5479
   41CHL1   C26 5507   4.885   4.494   8.596  0.4865  0.0427 -0.2067
   41CHL1  H26A 5508   4.843   4.403   8.645  1.3268  0.0407  0.5315
   41CHL1  H26B 5509   4.845   4.500   8.492  1.6755  0.0585 -0.6775
   41CHL1  H26C 5510   4.995   4.481   8.584  0.3851 -2.3821  0.9334
   41CHL1   C27 5511   4.708   4.637   8.687 -0.2123 -0.6771 -0.2701
   41CHL1  H27A 5512   4.683   4.727   8.746  1.9742  0.2322 -0.6456
   41CHL1  H27B 5513   4.653   4.657   8.592  0.4431 -0.8523 -0.6999
   41CHL1  H27C 5514   4.668   4.546   8.737  1.5934 -0.5189  1.5653
   42CHL1    C3 5515   1.181   5.754   9.930  0.6151 -0.0535  0.1303
   42CHL1    H3 5516   1.285   5.791   9.925  0.6197 -0.1238 -0.2999
   42CHL1    O3 5517   1.165   5.687  10.049  0.5064  0.4867  0.0659
   42CHL1   H3' 5518   1.252   5.689  10.091  0.4692 -0.4410  0.2132
   42CHL1    C4 5519   1.077   5.876   9.919  0.0757  0.0691  0.2360
   42CHL1   H4A 5520   0.977   5.828   9.911  0.5722 -0.7316 -2.3963
   42CHL1   H4B 5521   1.085   5.936  10.012  2.1694  1.4132 -0.7240
   42CHL1    C5 5522   1.087   5.953   9.784 -0.5318  0.2092  0.1798
   42CHL1    C6 5523   1.123   6.081   9.774  0.5084 -0.6237  0.0584
   42CHL1    H6 5524   1.134   6.136   9.869 -1.9834 -0.1121  0.1135
   42CHL1    C7 5525   1.134   6.147   9.642 -0.0763  0.7073  0.5319
   42CHL1   H7A 5526   1.094   6.251   9.637 -0.5060  0.7167  2.8166
   42CHL1   H7B 5527   1.234   6.170   9.601 -1.5350  1.1578 -3.1453
   42CHL1    C8 5528   1.068   6.070   9.520 -0.6394  0.2521 -0.3411
   42CHL1    H8 5529   0.959   6.074   9.538 -0.5186 -0.4494  0.6165
   42CHL1   C14 5530   1.121   6.124   9.379  0.9046  0.2373 -0.8518
   42CHL1   H14 5531   1.231   6.113   9.389  0.6680 -2.5366 -0.4809
   42CHL1   C15 5532   1.099   6.279   9.339  0.5903 -0.5796 -0.4518
   42CHL1  H15A 5533   0.995   6.317   9.335  0.7174 -0.3110 -1.4400
   42CHL1  H15B 5534   1.155   6.354   9.399 -2.4421  0.4051  1.3610
   42CHL1   C16 5535   1.132   6.286   9.192  0.1549  0.6956  0.9415
   42CHL1  H16A 5536   1.036   6.322   9.150 -1.1709  0.8791  3.8593
   42CHL1  H16B 5537   1.215   6.355   9.165  1.2714 -0.5056  1.1616
   42CHL1   C17 5538   1.163   6.140   9.151 -0.2546  0.0084  1.4555
   42CHL1   H17 5539   1.272   6.132   9.170  0.7152 -0.3911 -3.0625
   42CHL1   C13 5540   1.089   6.050   9.251  0.1319  0.3494  0.1214
   42CHL1   C18 5541   0.940   6.050   9.217  0.1894  0.6556  0.0451
   42CHL1  H18A 5542   0.919   5.972   9.141  0.6547  0.8773 -0.3151
   42CHL1  H18B 5543   0.882   6.011   9.303 -0.5249  1.2178 -0.1699
   42CHL1  H18C 5544   0.903   6.146   9.175 -2.7730 -0.1820  0.5118
   42CHL1   C12 5545   1.140   5.906   9.276  0.1273  0.0612  0.4326
   42CHL1  H12A 5546   1.127   5.835   9.192 -1.0017 -0.6063  1.1451
   42CHL1  H12B 5547   1.248   5.920   9.299  0.0936  4.5352 -1.2206
   42CHL1   C11 5548   1.071   5.849   9.403 -0.1577  0.5712  0.2856
   42CHL1  H11A 5549   0.962   5.842   9.383 -0.2042  0.5622  0.5436
   42CHL1  H11B 5550   1.100   5.741   9.404  0.1695  0.6605  0.8552
   42CHL1    C9 5551   1.115   5.927   9.526 -0.1579 -0.0049 -0.4559
   42CHL1    H9 5552   1.225   5.938   9.532 -0.1827 -0.2434  0.7976
   42CHL1   C10 5553   1.071   5.860   9.655 -0.8245  0.3428 -0.1637
   42CHL1   C19 5554   0.918   5.814   9.648  0.1407  0.1003 -0.3473
   42CHL1  H19A 5555   0.852   5.893   9.605 -1.2822  1.4719  3.8168
   42CHL1  H19B 5556   0.917   5.725   9.582  3.0206 -1.6203  1.6827
   42CHL1  H19C 5557   0.872   5.781   9.743 -0.9850 -1.8095 -1.5095
   42CHL1    C1 5558   1.168   5.740   9.684  0.3762  0.5522  0.1387
   42CHL1   H1A 5559   1.152   5.663   9.605  2.6652 -0.8944  0.9672
   42CHL1   H1B 5560   1.273   5.774   9.674  0.5351  0.1426  0.3818
   42CHL1    C2 5561   1.146   5.660   9.818 -0.7346 -0.1100  0.2744
   42CHL1   H2A 5562   1.226   5.584   9.820 -1.1452 -0.5443  0.3347
   42CHL1   H2B 5563   1.045   5.615   9.832 -1.0801  0.3042 -0.7752
   42CHL1   C20 5564   1.130   6.130   9.001 -0.1243  0.2392 -0.5753
   42CHL1   H20 5565   1.021   6.144   8.983 -0.1540  1.3326  0.3497
   42CHL1   C21 5566   1.168   5.988   8.959  0.4188 -0.5192  0.2769
   42CHL1  H21A 5567   1.276   5.969   8.980 -0.3824 -3.9277  2.1490
   42CHL1  H21B 5568   1.153   5.972   8.850  1.3876  1.6468 -0.2148
   42CHL1  H21C 5569   1.108   5.904   9.002 -2.4570 -1.0834 -4.2145
   42CHL1   C22 5570   1.201   6.237   8.908  0.0965 -0.7172  0.0107
   42CHL1  H22A 5571   1.177   6.337   8.948 -1.3579 -1.1531  0.2891
   42CHL1  H22B 5572   1.310   6.217   8.906  0.8090  2.6104  0.3100
   42CHL1   C23 5573   1.154   6.252   8.757  0.2258 -0.1843  0.6902
   42CHL1  H23A 5574   1.174   6.152   8.712  0.3316 -1.6139  3.6135
   42CHL1  H23B 5575   1.045   6.274   8.753  0.4992  1.1308  0.0829
   42CHL1   C24 5576   1.226   6.368   8.686  0.0085  0.0096  0.0408
   42CHL1  H24A 5577   1.200   6.463   8.737  1.1984  0.8737 -0.8890
   42CHL1  H24B 5578   1.336   6.353   8.682 -0.1710 -1.2807 -2.3439
   42CHL1   C25 5579   1.176   6.389   8.538 -0.4296 -0.6047 -0.8811
   42CHL1   H25 5580   1.071   6.424   8.541 -0.7093 -1.4984  1.2746
   42CHL1   C26 5581   1.257   6.503   8.475  0.2376 -0.3086  0.3028
   42CHL1  H26A 5582   1.221   6.524   8.372 -2.0573  0.9090  1.2917
   42CHL1  H26B 5583   1.243   6.605   8.516  1.3433  1.3631 -3.0680
   42CHL1  H26C 5584   1.368   6.490   8.479  0.4825  1.2880 -0.4030
   42CHL1   C27 5585   1.191   6.269   8.447 -0.0025 -0.2615  0.3156
   42CHL1  H27A 5586   1.177   6.299   8.341  1.5148  0.9398  0.4276
   42CHL1  H27B 5587   1.294   6.227   8.461  0.3974  0.0334 -1.5534
   42CHL1  H27C 5588   1.116   6.190   8.470  0.2206 -0.1096  1.6517
   43CHL1    C3 5589   6.628   4.835  10.087  0.3487  0.0662 -0.3271
   43CHL1    H3 5590   6.648   4.728  10.061  0.0175 -0.0629 -0.0614
   43CHL1    O3 5591   6.635   4.830  10.225  0.2059  0.4834 -0.1218
   43CHL1   H3' 5592   6.727   4.805  10.239 -0.0197 -0.1869  0.2029
   43CHL1    C4 5593   6.733   4.921  10.018  0.3426 -0.7300 -0.0201
   43CHL1   H4A 5594   6.728   5.023  10.063  3.1236 -0.5652  0.0541
   43CHL1   H4B 5595   6.832   4.887  10.054 -0.2365 -1.7591  0.6470
   43CHL1    C5 5596   6.724   4.929   9.865 -0.8806 -0.0134 -1.0016
   43CHL1    C6 5597   6.835   4.899   9.797  0.1108  0.0779  0.7546
   43CHL1    H6 5598   6.932   4.882   9.846  0.2887  0.9111  0.7042
   43CHL1    C7 5599   6.834   4.912   9.647  0.4534  0.2988  0.1658
   43CHL1   H7A 5600   6.923   4.972   9.617  0.3340 -0.1173 -1.0487
   43CHL1   H7B 5601   6.860   4.813   9.604 -1.5261  0.7814 -2.3320
   43CHL1    C8 5602   6.707   4.977   9.587 -0.2599  0.2082 -0.8900
   43CHL1    H8 5603   6.705   5.087   9.607  1.4076  0.0809  0.2573
   43CHL1   C14 5604   6.701   4.951   9.440  0.9805 -0.1088 -0.7153
   43CHL1   H14 5605   6.698   4.840   9.435 -2.3112 -0.1583 -0.2897
   43CHL1   C15 5606   6.825   4.993   9.362  0.5943 -0.4159  0.4956
   43CHL1  H15A 5607   6.853   5.093   9.401 -0.0871 -0.3786  0.9105
   43CHL1  H15B 5608   6.914   4.930   9.381 -0.2549 -1.8559 -0.1530
   43CHL1   C16 5609   6.773   4.995   9.220 -0.4672 -0.1258  0.3014
   43CHL1  H16A 5610   6.802   5.094   9.177  1.7461 -0.9753 -0.2836
   43CHL1  H16B 5611   6.820   4.910   9.166  0.9116 -1.9215  4.0034
   43CHL1   C17 5612   6.612   4.969   9.221 -0.2846  0.0551 -0.2655
   43CHL1   H17 5613   6.592   4.860   9.223 -0.9696  0.1144  3.3445
   43CHL1   C13 5614   6.575   5.004   9.368  0.0500  0.6042 -0.1468
   43CHL1   C18 5615   6.573   5.157   9.392  0.0562  0.1033  0.4181
   43CHL1  H18A 5616   6.552   5.172   9.500  0.9631 -3.8087  1.2941
   43CHL1  H18B 5617   6.669   5.200   9.355  0.4344 -1.2779 -0.2975
   43CHL1  H18C 5618   6.493   5.212   9.337 -1.0296 -0.3648  1.4871
   43CHL1   C12 5619   6.454   4.932   9.431  0.0412 -0.3195  0.4710
   43CHL1  H12A 5620   6.360   4.968   9.384  0.5175  0.9181  0.4465
   43CHL1  H12B 5621   6.463   4.824   9.407 -0.5455 -0.0938 -0.8250
   43CHL1   C11 5622   6.445   4.941   9.584  0.5244  0.3290  0.0314
   43CHL1  H11A 5623   6.406   5.042   9.608  0.9155  0.6900 -0.7991
   43CHL1  H11B 5624   6.369   4.869   9.620 -0.2860  0.9213 -0.4647
   43CHL1    C9 5625   6.579   4.918   9.660 -0.3206 -0.4158  0.8246
   43CHL1    H9 5626   6.579   4.807   9.656 -3.0587 -0.4686 -0.0065
   43CHL1   C10 5627   6.581   4.950   9.811 -0.3383  0.9938 -0.6958
   43CHL1   C19 5628   6.552   5.108   9.830 -0.6093  0.1713 -0.4824
   43CHL1  H19A 5629   6.569   5.139   9.936 -0.8794  2.0025 -0.9430
   43CHL1  H19B 5630   6.611   5.175   9.765 -2.7653  3.0304  0.2872
   43CHL1  H19C 5631   6.446   5.133   9.810 -0.2683  2.5080  0.3484
   43CHL1    C1 5632   6.474   4.865   9.886 -0.3201  0.4347  0.4059
   43CHL1   H1A 5633   6.368   4.888   9.864 -0.4730  1.1841  1.7689
   43CHL1   H1B 5634   6.498   4.763   9.849  1.3610  1.2196 -0.8264
   43CHL1    C2 5635   6.484   4.873  10.043  0.8796 -0.0428  0.2449
   43CHL1   H2A 5636   6.416   4.795  10.083  0.0938  1.0183  1.0257
   43CHL1   H2B 5637   6.467   4.974  10.086 -2.1428 -0.9274  1.3761
   43CHL1   C20 5638   6.535   5.029   9.103 -0.1869  0.0455  0.1646
   43CHL1   H20 5639   6.557   5.137   9.118  1.9871  0.0507 -2.2321
   43CHL1   C21 5640   6.381   4.998   9.111 -0.4883  0.2374  0.2771
   43CHL1  H21A 5641   6.379   4.887   9.118 -1.9700  0.2261  0.0348
   43CHL1  H21B 5642   6.339   5.033   9.014 -0.3523  2.1131  0.8597
   43CHL1  H21C 5643   6.330   5.037   9.201 -0.7974  0.4571  0.0068
   43CHL1   C22 5644   6.590   4.991   8.963  0.2840 -0.1116  0.2974
   43CHL1  H22A 5645   6.519   5.050   8.901  0.7238  1.0607  0.8794
   43CHL1  H22B 5646   6.693   5.031   8.947 -0.3895  1.9738  0.8026
   43CHL1   C23 5647   6.589   4.841   8.922 -0.0841 -0.4534 -0.8104
   43CHL1  H23A 5648   6.627   4.776   9.004 -3.4059 -1.3615  0.1902
   43CHL1  H23B 5649   6.482   4.816   8.902  0.0476 -0.2115 -1.8930
   43CHL1   C24 5650   6.668   4.812   8.794 -0.7298 -1.0750 -0.0564
   43CHL1  H24A 5651   6.633   4.886   8.719 -1.1899 -0.1507  1.0342
   43CHL1  H24B 5652   6.776   4.830   8.812 -1.6675  2.8126  3.1177
   43CHL1   C25 5653   6.633   4.675   8.739 -0.0878 -0.1520 -0.1346
   43CHL1   H25 5654   6.527   4.657   8.768 -0.9029  1.0468 -2.1652
   43CHL1   C26 5655   6.631   4.671   8.585  0.7828  0.4877  0.3131
   43CHL1  H26A 5656   6.734   4.703   8.556  0.7546 -1.8056 -2.9351
   43CHL1  H26B 5657   6.621   4.570   8.541  1.8180  0.6159 -0.2520
   43CHL1  H26C 5658   6.556   4.737   8.536 -1.0733 -1.3611  0.5168
   43CHL1   C27 5659   6.720   4.564   8.811  0.1922 -0.1080  0.1167
   43CHL1  H27A 5660   6.672   4.464   8.799  1.5268 -0.8628  0.8394
   43CHL1  H27B 5661   6.813   4.565   8.750 -0.8068 -1.1192 -1.5169
   43CHL1  H27C 5662   6.741   4.583   8.918  0.3558  2.5439 -0.3089
   44CHL1    C3 5663   4.356   4.108   9.988 -0.6806  0.4012  0.2321
   44CHL1    H3 5664   4.405   4.035   9.920  1.5821 -0.4573  2.6246
   44CHL1    O3 5665   4.365   4.057  10.118  0.2646  0.0736  0.2574
   44CHL1   H3' 5666   4.310   4.102  10.183 -0.3330 -2.5730  1.7266
   44CHL1    C4 5667   4.417   4.256   9.987  0.2119  0.0088 -0.3782
   44CHL1   H4A 5668   4.348   4.321  10.046 -0.8525  0.4760 -2.0639
   44CHL1   H4B 5669   4.519   4.267  10.028  1.0192  1.2972 -2.5873
   44CHL1    C5 5670   4.418   4.302   9.843 -0.4128  0.2932 -0.4800
   44CHL1    C6 5671   4.529   4.341   9.774  0.5361 -0.8659  0.0916
   44CHL1    H6 5672   4.625   4.331   9.826  0.9665  1.5177 -0.1276
   44CHL1    C7 5673   4.537   4.389   9.627  0.0938  0.3445  0.1051
   44CHL1   H7A 5674   4.598   4.481   9.618  0.0113  0.4601  0.6691
   44CHL1   H7B 5675   4.588   4.315   9.563  0.3525 -0.3689  1.1128
   44CHL1    C8 5676   4.399   4.423   9.576 -0.3837 -0.0541  0.2137
   44CHL1    H8 5677   4.362   4.510   9.634 -0.4260  0.0727 -0.0038
   44CHL1   C14 5678   4.403   4.438   9.428  0.0969 -0.1751 -0.5900
   44CHL1   H14 5679   4.446   4.346   9.383  1.3264 -0.5334  1.2015
   44CHL1   C15 5680   4.500   4.543   9.368  0.3141  0.3298  0.4136
   44CHL1  H15A 5681   4.487   4.637   9.425 -0.5395 -0.9776  2.5195
   44CHL1  H15B 5682   4.607   4.515   9.364 -0.0660 -1.1810 -3.1588
   44CHL1   C16 5683   4.445   4.564   9.223  0.1880 -0.3143  0.0228
   44CHL1  H16A 5684   4.434   4.672   9.201  1.5723 -0.6514 -2.7374
   44CHL1  H16B 5685   4.511   4.520   9.146  1.6213  0.8618  0.5352
   44CHL1   C17 5686   4.314   4.485   9.214  0.8177 -0.8269  0.3225
   44CHL1   H17 5687   4.340   4.385   9.171  0.2004 -0.6581 -0.4640
   44CHL1   C13 5688   4.266   4.462   9.363 -0.3604  0.1031  0.4065
   44CHL1   C18 5689   4.214   4.597   9.409  1.0118  0.1378  0.0830
   44CHL1  H18A 5690   4.107   4.595   9.378  1.2415 -1.0617 -0.7290
   44CHL1  H18B 5691   4.218   4.617   9.518 -0.8390 -0.0866  0.2358
   44CHL1  H18C 5692   4.267   4.680   9.358 -1.5331  1.8254 -0.0168
   44CHL1   C12 5693   4.182   4.335   9.397 -1.0390 -0.2111 -0.0710
   44CHL1  H12A 5694   4.080   4.347   9.355 -1.5684 -1.1955  0.9065
   44CHL1  H12B 5695   4.243   4.246   9.371 -0.9037 -0.5617  1.3768
   44CHL1   C11 5696   4.159   4.336   9.550 -0.0713  0.6128 -0.3002
   44CHL1  H11A 5697   4.116   4.436   9.572 -0.8543  0.3489 -0.5981
   44CHL1  H11B 5698   4.096   4.253   9.586  0.3388  0.4714  0.1093
   44CHL1    C9 5699   4.295   4.318   9.617  0.4412  0.4487  0.3019
   44CHL1    H9 5700   4.336   4.225   9.573  0.8658  1.4751 -1.5504
   44CHL1   C10 5701   4.282   4.307   9.775  0.2001 -0.1498 -0.7432
   44CHL1   C19 5702   4.193   4.415   9.842  0.3761  0.2218 -0.0480
   44CHL1  H19A 5703   4.090   4.396   9.805  1.1454 -0.5791 -1.9066
   44CHL1  H19B 5704   4.184   4.405   9.953 -0.5422 -3.0621 -0.2963
   44CHL1  H19C 5705   4.227   4.518   9.820  1.6554 -0.1752 -0.0434
   44CHL1    C1 5706   4.205   4.167   9.797 -0.0725 -0.0918  0.3699
   44CHL1   H1A 5707   4.097   4.170   9.771 -0.0255  0.3916  0.2149
   44CHL1   H1B 5708   4.257   4.094   9.732  1.8149  0.7691  0.8309
   44CHL1    C2 5709   4.213   4.117   9.945 -0.4015 -0.3969 -1.0062
   44CHL1   H2A 5710   4.166   4.017   9.947 -1.0986 -0.0809  1.1898
   44CHL1   H2B 5711   4.152   4.186  10.008 -1.0912 -2.2312  0.4048
   44CHL1   C20 5712   4.222   4.559   9.111  0.2828 -0.4623  0.5453
   44CHL1   H20 5713   4.212   4.665   9.141  1.1900 -0.8421  2.2757
   44CHL1   C21 5714   4.082   4.500   9.095 -0.4287  0.7748  0.4997
   44CHL1  H21A 5715   4.030   4.509   9.194 -2.0891  2.5268 -0.4480
   44CHL1  H21B 5716   4.083   4.393   9.065  1.5301  1.1160 -0.7820
   44CHL1  H21C 5717   4.016   4.557   9.026 -0.7716 -1.8453 -1.4538
   44CHL1   C22 5718   4.291   4.554   8.976  0.0400  0.1899 -0.0802
   44CHL1  H22A 5719   4.402   4.561   8.978  0.0466  0.1991 -0.4658
   44CHL1  H22B 5720   4.259   4.460   8.926 -3.0647 -0.7878  3.2808
   44CHL1   C23 5721   4.240   4.674   8.890  0.2561  0.1732  0.2004
   44CHL1  H23A 5722   4.131   4.664   8.869  0.2101 -1.2692  0.9949
   44CHL1  H23B 5723   4.239   4.764   8.955 -1.4289 -0.4470  1.1074
   44CHL1   C24 5724   4.325   4.699   8.766  0.8281 -0.5285  0.4229
   44CHL1  H24A 5725   4.417   4.752   8.799  1.5336 -0.7477 -1.1413
   44CHL1  H24B 5726   4.366   4.602   8.731  2.9340 -0.0094  1.2965
   44CHL1   C25 5727   4.268   4.784   8.654 -0.6074 -0.4272  0.0138
   44CHL1   H25 5728   4.170   4.824   8.687  0.3217  1.7167  0.3507
   44CHL1   C26 5729   4.360   4.905   8.625  0.5510  1.0509 -0.4148
   44CHL1  H26A 5730   4.342   4.949   8.525 -0.3067  1.6570 -0.0056
   44CHL1  H26B 5731   4.339   4.975   8.708  0.2420 -1.9143  2.1917
   44CHL1  H26C 5732   4.466   4.871   8.633 -0.0029 -0.5709  0.5638
   44CHL1   C27 5733   4.229   4.700   8.532  0.4304 -0.6178  0.8071
   44CHL1  H27A 5734   4.187   4.605   8.571 -0.8403  0.3879  1.9695
   44CHL1  H27B 5735   4.146   4.751   8.479  0.9142 -0.6756 -0.0269
   44CHL1  H27C 5736   4.311   4.690   8.457 -0.3254  2.8882 -0.6950
   45CHL1    C3 5737   6.749   3.961  10.210 -0.9024 -0.4062 -0.0929
   45CHL1    H3 5738   6.736   3.851  10.213  0.6061 -0.6552 -1.3063
   45CHL1    O3 5739   6.722   4.007  10.340 -0.4373 -0.3868 -0.4082
   45CHL1   H3' 5740   6.645   4.065  10.332 -1.1775 -1.2918  0.0017
   45CHL1    C4 5741   6.894   4.000  10.172 -0.2500  0.0778 -0.1568
   45CHL1   H4A 5742   6.903   4.111  10.176 -0.6966  0.0773  1.8668
   45CHL1   H4B 5743   6.971   3.959  10.241  0.9969  0.8931 -1.0234
   45CHL1    C5 5744   6.924   3.944  10.032 -0.7968  0.2138  0.5061
   45CHL1    C6 5745   7.030   3.868  10.009 -0.1776  0.2313  0.2980
   45CHL1    H6 5746   7.094   3.849  10.096 -0.0623 -1.7670 -0.1708
   45CHL1    C7 5747   7.076   3.813   9.876 -0.4690  0.3775  0.9146
   45CHL1   H7A 5748   7.183   3.835   9.854 -0.6608  1.1486  0.6935
   45CHL1   H7B 5749   7.059   3.704   9.886  1.2721 -0.1068 -0.7861
   45CHL1    C8 5750   6.987   3.850   9.756  0.0822 -0.3194  0.2432
   45CHL1    H8 5751   6.983   3.766   9.684  3.6293  0.6319 -1.3304
   45CHL1   C14 5752   7.061   3.939   9.658 -0.2459 -0.3376  1.0733
   45CHL1   H14 5753   7.100   4.030   9.709  2.6591 -0.2870 -0.9990
   45CHL1   C15 5754   7.189   3.865   9.592  0.1925 -0.2327  0.0266
   45CHL1  H15A 5755   7.269   3.941   9.579  0.5858 -0.5791  0.3857
   45CHL1  H15B 5756   7.215   3.771   9.644 -1.5336 -0.7608  0.0126
   45CHL1   C16 5757   7.145   3.841   9.444 -0.4975  0.1516 -0.5917
   45CHL1  H16A 5758   7.211   3.898   9.376 -1.5594  1.4897 -0.5331
   45CHL1  H16B 5759   7.171   3.743   9.397 -0.2143 -0.2825  0.4269
   45CHL1   C17 5760   6.993   3.876   9.438 -0.3719  0.2150  0.1303
   45CHL1   H17 5761   6.940   3.786   9.478 -1.6512  0.8531 -0.0924
   45CHL1   C13 5762   6.969   3.983   9.539  0.3697 -0.3518 -0.6128
   45CHL1   C18 5763   7.033   4.112   9.480 -0.1056  0.0247  0.0757
   45CHL1  H18A 5764   7.022   4.184   9.564 -0.6538 -1.2530  1.1257
   45CHL1  H18B 5765   7.141   4.101   9.456 -0.1211 -1.9574  0.7475
   45CHL1  H18C 5766   6.975   4.157   9.396  0.5591 -1.1560 -1.0518
   45CHL1   C12 5767   6.822   4.008   9.572 -0.0547 -0.0556  0.7049
   45CHL1  H12A 5768   6.814   4.113   9.607 -0.0241  0.8023 -1.6836
   45CHL1  H12B 5769   6.754   4.020   9.485 -0.6204  0.3050  1.1881
   45CHL1   C11 5770   6.755   3.919   9.677  0.4484 -0.1401  0.1956
   45CHL1  H11A 5771   6.661   3.956   9.722  0.5396  0.2818  0.0441
   45CHL1  H11B 5772   6.720   3.827   9.626  0.0563  1.3824 -2.4307
   45CHL1    C9 5773   6.837   3.886   9.802  0.4342  0.3842  0.6567
   45CHL1    H9 5774   6.795   3.790   9.837  1.3662 -0.1466  0.3519
   45CHL1   C10 5775   6.827   3.980   9.925 -0.0538  0.9804 -0.2597
   45CHL1   C19 5776   6.838   4.131   9.898  0.1774 -0.4505  0.0764
   45CHL1  H19A 5777   6.939   4.149   9.855  0.1434  2.2373  0.9569
   45CHL1  H19B 5778   6.772   4.158   9.813 -0.5015 -0.4937  0.5864
   45CHL1  H19C 5779   6.824   4.199   9.984 -0.5665 -0.5724  0.0512
   45CHL1    C1 5780   6.680   3.956   9.973  0.9120 -0.5022 -0.2090
   45CHL1   H1A 5781   6.612   3.998   9.896 -1.0677 -0.9989  1.1968
   45CHL1   H1B 5782   6.649   3.849   9.979  2.5569 -0.9587  0.8794
   45CHL1    C2 5783   6.650   4.018  10.108  1.0674  0.3082 -0.8192
   45CHL1   H2A 5784   6.546   4.002  10.145  0.6522  1.8367 -1.2657
   45CHL1   H2B 5785   6.664   4.128  10.109  2.3493  0.1653 -1.1538
   45CHL1   C20 5786   6.939   3.886   9.298 -0.1246 -0.7389  0.2412
   45CHL1   H20 5787   6.856   3.959   9.286 -0.1594 -0.8490 -0.1975
   45CHL1   C21 5788   6.879   3.745   9.262 -0.0482 -0.2367  0.3951
   45CHL1  H21A 5789   6.807   3.717   9.341  1.0473 -0.8272  1.2190
   45CHL1  H21B 5790   6.966   3.677   9.248  1.0174  1.2181 -0.5242
   45CHL1  H21C 5791   6.823   3.745   9.166  0.2088 -0.7185  0.2422
   45CHL1   C22 5792   7.044   3.935   9.189 -0.2551  0.1997  0.0388
   45CHL1  H22A 5793   7.079   4.032   9.229  1.1968  0.0746 -0.8336
   45CHL1  H22B 5794   7.133   3.868   9.179  0.1248  0.6604  0.3001
   45CHL1   C23 5795   6.988   3.961   9.050  0.3538  0.1677 -0.0638
   45CHL1  H23A 5796   6.921   3.877   9.024 -1.8829  0.9523  2.6446
   45CHL1  H23B 5797   6.928   4.054   9.055 -0.3245 -0.2795  0.2597
   45CHL1   C24 5798   7.097   3.987   8.935  0.4503  0.2120  0.0434
   45CHL1  H24A 5799   7.156   4.077   8.960  1.3200  0.5307 -2.8382
   45CHL1  H24B 5800   7.163   3.897   8.928 -1.5166 -1.2992  0.0565
   45CHL1   C25 5801   7.031   4.021   8.801 -0.3836 -0.2855 -0.1585
   45CHL1   H25 5802   6.963   3.935   8.783 -0.5257  0.0882 -1.4544
   45CHL1   C26 5803   6.959   4.156   8.813  0.3982  0.3786 -0.7688
   45CHL1  H26A 5804   7.036   4.232   8.838 -0.2586  1.1171 -0.9427
   45CHL1  H26B 5805   6.916   4.193   8.718 -2.5555 -0.0588  0.2848
   45CHL1  H26C 5806   6.875   4.150   8.886  0.1874  1.7213 -0.8818
   45CHL1   C27 5807   7.123   4.016   8.679  0.6646  0.0222  0.2164
   45CHL1  H27A 5808   7.173   3.917   8.677 -0.8147 -0.7399 -1.3636
   45CHL1  H27B 5809   7.049   4.036   8.599 -0.4753  0.3820  1.3168
   45CHL1  H27C 5810   7.199   4.097   8.680 -0.2642  0.9398 -0.8934
   46CHL1    C3 5811   2.378   4.114  10.085 -0.3740 -0.5603 -0.6688
   46CHL1    H3 5812   2.272   4.146  10.097 -0.1651 -0.0363 -0.1624
   46CHL1    O3 5813   2.435   4.105  10.216  0.5794  0.0483  0.4448
   46CHL1   H3' 5814   2.516   4.057  10.200 -0.9408 -2.2892 -0.6899
   46CHL1    C4 5815   2.375   3.974  10.013 -0.7764  0.5021  0.0055
   46CHL1   H4A 5816   2.480   3.939  10.027 -1.1168 -0.1629  1.0004
   46CHL1   H4B 5817   2.311   3.915  10.081 -1.2329  1.8612  0.8114
   46CHL1    C5 5818   2.331   3.979   9.869  1.2433 -0.3778  0.8533
   46CHL1    C6 5819   2.221   3.909   9.826 -0.5335  0.1240  0.1144
   46CHL1    H6 5820   2.171   3.832   9.887  0.5041 -1.2953 -0.7710
   46CHL1    C7 5821   2.160   3.927   9.691 -0.4843 -0.4689 -0.0792
   46CHL1   H7A 5822   2.120   3.830   9.655 -2.7125  0.2038  0.4760
   46CHL1   H7B 5823   2.084   4.007   9.694  0.2762  0.3866 -1.8666
   46CHL1    C8 5824   2.256   3.984   9.584  0.0462 -0.2415 -0.5960
   46CHL1    H8 5825   2.330   3.903   9.563 -1.5899 -1.9628 -0.0079
   46CHL1   C14 5826   2.190   4.018   9.455  0.3358  0.6021  0.3889
   46CHL1   H14 5827   2.125   4.106   9.472 -0.8758 -0.4940  1.6654
   46CHL1   C15 5828   2.096   3.912   9.384  1.0093 -0.2888  0.4545
   46CHL1  H15A 5829   2.144   3.812   9.395 -0.9046 -1.0877  2.1695
   46CHL1  H15B 5830   1.994   3.896   9.426  1.2832 -1.0076  0.8757
   46CHL1   C16 5831   2.095   3.961   9.238  0.6261 -0.0141 -0.5174
   46CHL1  H16A 5832   2.146   3.881   9.179  1.4219 -1.0807  1.5290
   46CHL1  H16B 5833   1.994   3.974   9.194 -0.5859 -0.0904  2.0849
   46CHL1   C17 5834   2.180   4.091   9.233  0.2540  0.2113  0.0520
   46CHL1   H17 5835   2.112   4.176   9.255 -0.5543 -0.1746 -0.8786
   46CHL1   C13 5836   2.282   4.078   9.348 -0.1802  0.4628  0.6234
   46CHL1   C18 5837   2.389   3.979   9.310  0.3559  0.7891  0.4343
   46CHL1  H18A 5838   2.471   4.016   9.245  0.3841  0.4076  0.2541
   46CHL1  H18B 5839   2.445   3.932   9.394  3.5679 -0.4844 -2.2340
   46CHL1  H18C 5840   2.350   3.891   9.255  0.0754  1.5482 -0.6122
   46CHL1   C12 5841   2.344   4.208   9.403  0.1335  1.0138 -0.0563
   46CHL1  H12A 5842   2.419   4.243   9.329 -1.0069 -1.8382 -2.7455
   46CHL1  H12B 5843   2.265   4.283   9.426 -1.8468 -1.6898  2.8597
   46CHL1   C11 5844   2.411   4.175   9.535 -0.7661 -0.4145  0.7343
   46CHL1  H11A 5845   2.491   4.104   9.504  0.1513  1.3992 -1.3087
   46CHL1  H11B 5846   2.459   4.271   9.560 -1.8179  0.9113 -1.9171
   46CHL1    C9 5847   2.325   4.114   9.641  0.9859  0.2668 -0.3604
   46CHL1    H9 5848   2.246   4.189   9.662  1.3127  0.0108  1.9632
   46CHL1   C10 5849   2.402   4.089   9.778  0.2679 -0.2632  0.7232
   46CHL1   C19 5850   2.542   4.031   9.735  0.1393 -0.7195 -0.3217
   46CHL1  H19A 5851   2.531   3.944   9.667  0.8728 -2.1307  1.2777
   46CHL1  H19B 5852   2.602   4.119   9.704  0.6267 -1.1562 -0.6346
   46CHL1  H19C 5853   2.581   3.983   9.828 -0.0845 -0.4842 -0.1041
   46CHL1    C1 5854   2.403   4.216   9.863  0.0367 -0.5149 -0.4436
   46CHL1   H1A 5855   2.471   4.287   9.811  2.7346 -1.7194  1.2544
   46CHL1   H1B 5856   2.303   4.263   9.880  0.7394  0.4531  1.2988
   46CHL1    C2 5857   2.462   4.204  10.001 -0.3649 -0.1706  0.5182
   46CHL1   H2A 5858   2.480   4.300  10.054  0.3671  0.4332 -0.7600
   46CHL1   H2B 5859   2.567   4.172   9.981  0.3717  0.5403  2.8726
   46CHL1   C20 5860   2.239   4.131   9.089 -0.6275 -0.3670 -0.0201
   46CHL1   H20 5861   2.340   4.085   9.073 -0.0558  0.6723  0.4970
   46CHL1   C21 5862   2.250   4.289   9.081 -0.1531  0.2238  0.2005
   46CHL1  H21A 5863   2.305   4.324   9.170 -0.9463  0.1140  0.7450
   46CHL1  H21B 5864   2.147   4.332   9.080 -0.5249 -0.6202  0.7387
   46CHL1  H21C 5865   2.304   4.320   8.989 -1.3927 -0.3252 -0.7546
   46CHL1   C22 5866   2.146   4.077   8.975 -0.5067  0.2460 -0.6497
   46CHL1  H22A 5867   2.126   3.969   8.993 -1.9668  0.6981  0.7012
   46CHL1  H22B 5868   2.045   4.121   8.988 -0.2662  0.4705  0.5855
   46CHL1   C23 5869   2.185   4.107   8.832 -0.1137 -0.2911  0.1066
   46CHL1  H23A 5870   2.177   4.210   8.792 -0.7807  0.1013  1.1954
   46CHL1  H23B 5871   2.293   4.082   8.826  0.2397  0.3723  2.4825
   46CHL1   C24 5872   2.103   4.021   8.740 -0.6714  0.4908 -0.0444
   46CHL1  H24A 5873   2.097   3.922   8.788 -0.0970  0.7722  0.6244
   46CHL1  H24B 5874   1.994   4.039   8.749 -0.7219 -0.1956  0.8641
   46CHL1   C25 5875   2.160   4.006   8.594  0.7633  0.7281  0.1194
   46CHL1   H25 5876   2.267   3.978   8.607  1.7010  2.7033 -2.5143
   46CHL1   C26 5877   2.096   3.893   8.514  0.4040 -1.0934  0.7933
   46CHL1  H26A 5878   2.131   3.884   8.409 -0.6941 -1.9837  0.4795
   46CHL1  H26B 5879   2.101   3.794   8.565 -1.6585 -1.5181  0.2396
   46CHL1  H26C 5880   1.990   3.921   8.499  0.7830  0.3281  0.6256
   46CHL1   C27 5881   2.146   4.133   8.507 -0.5996 -0.0839 -0.3710
   46CHL1  H27A 5882   2.205   4.215   8.553 -0.2579 -0.4987 -0.0624
   46CHL1  H27B 5883   2.191   4.124   8.406 -0.7149  3.4060 -0.8498
   46CHL1  H27C 5884   2.043   4.175   8.502 -0.0665  1.1372 -1.4641
   47CHL1    C3 5885   4.432   3.255   9.906 -0.0047 -0.4424  0.1104
   47CHL1    H3 5886   4.532   3.208   9.903  0.4355  0.5103 -0.9315
   47CHL1    O3 5887   4.393   3.270  10.034  0.2671 -0.2710  0.1131
   47CHL1   H3' 5888   4.308   3.225  10.043  0.0513  0.5123  3.6762
   47CHL1    C4 5889   4.442   3.401   9.849  0.6594 -0.4918  0.2951
   47CHL1   H4A 5890   4.349   3.455   9.877 -0.2002 -2.6504  1.8712
   47CHL1   H4B 5891   4.531   3.448   9.897  0.4172  1.0821 -0.7261
   47CHL1    C5 5892   4.456   3.406   9.697  0.0678  0.3564  0.3051
   47CHL1    C6 5893   4.554   3.481   9.636 -0.4443 -0.1595 -0.4887
   47CHL1    H6 5894   4.628   3.546   9.685 -0.5754 -1.3396  1.3697
   47CHL1    C7 5895   4.559   3.489   9.487 -0.5919 -0.3990 -0.9368
   47CHL1   H7A 5896   4.582   3.595   9.463  0.2448  0.5145  3.1494
   47CHL1   H7B 5897   4.647   3.434   9.448  1.8648  3.7320 -1.7404
   47CHL1    C8 5898   4.432   3.435   9.408  0.4855 -0.6396 -0.0661
   47CHL1    H8 5899   4.352   3.512   9.413 -0.8959 -2.0337  0.4289
   47CHL1   C14 5900   4.469   3.421   9.262  0.5692 -0.6086  0.4112
   47CHL1   H14 5901   4.545   3.342   9.250  0.9244  0.1048 -3.0157
   47CHL1   C15 5902   4.528   3.539   9.187  0.4108 -1.2246 -0.6756
   47CHL1  H15A 5903   4.482   3.633   9.224 -1.0801 -2.0000 -0.4543
   47CHL1  H15B 5904   4.638   3.534   9.201  0.4714 -0.2634 -0.7530
   47CHL1   C16 5905   4.493   3.513   9.038  0.0199 -0.3857 -0.8516
   47CHL1  H16A 5906   4.433   3.592   8.989 -1.4543  0.4783  2.0562
   47CHL1  H16B 5907   4.589   3.496   8.985  1.5939 -0.9618  1.9627
   47CHL1   C17 5908   4.411   3.375   9.038 -0.1359 -0.4925 -0.3768
   47CHL1   H17 5909   4.491   3.298   9.050  1.8458  1.7985  2.3330
   47CHL1   C13 5910   4.350   3.375   9.177  0.0909  0.0149 -0.3983
   47CHL1   C18 5911   4.236   3.483   9.180 -0.1841  0.4393 -0.4824
   47CHL1  H18A 5912   4.202   3.490   9.286 -1.4741  2.1978 -0.9743
   47CHL1  H18B 5913   4.274   3.582   9.149  0.6524  0.2345 -0.1388
   47CHL1  H18C 5914   4.144   3.457   9.123 -0.7554 -0.4650  0.7815
   47CHL1   C12 5915   4.303   3.241   9.238 -0.7086  0.0922  0.6499
   47CHL1  H12A 5916   4.223   3.196   9.176  0.1700 -0.7598  0.0904
   47CHL1  H12B 5917   4.383   3.165   9.223 -1.7043 -1.1690  1.4966
   47CHL1   C11 5918   4.268   3.249   9.387 -0.5088  0.1533  0.1263
   47CHL1  H11A 5919   4.169   3.301   9.390 -0.9267 -0.5409 -0.9261
   47CHL1  H11B 5920   4.240   3.143   9.406  2.5279 -0.6341  0.6695
   47CHL1    C9 5921   4.387   3.305   9.468  0.0609 -0.0258 -0.2857
   47CHL1    H9 5922   4.471   3.235   9.451 -0.9626 -0.9734 -1.7069
   47CHL1   C10 5923   4.353   3.324   9.624 -0.2687  0.1593  0.1149
   47CHL1   C19 5924   4.212   3.385   9.642 -0.0462 -0.0783  0.2888
   47CHL1  H19A 5925   4.210   3.481   9.586  1.5047 -0.0324  0.2743
   47CHL1  H19B 5926   4.136   3.311   9.607  1.2269 -3.0464  3.2301
   47CHL1  H19C 5927   4.190   3.401   9.750  2.5004 -0.8674  0.9940
   47CHL1    C1 5928   4.356   3.180   9.688  0.2822 -0.4766 -0.1421
   47CHL1   H1A 5929   4.279   3.123   9.631  0.3295 -1.1478  0.4565
   47CHL1   H1B 5930   4.452   3.131   9.663 -1.4930 -4.8852  0.8227
   47CHL1    C2 5931   4.327   3.173   9.837 -0.4669  0.1721 -0.3950
   47CHL1   H2A 5932   4.325   3.068   9.871 -0.4977 -0.1069 -1.2307
   47CHL1   H2B 5933   4.226   3.207   9.868  0.1068  1.5266  0.0576
   47CHL1   C20 5934   4.338   3.351   8.909  0.0664  0.5630 -0.3013
   47CHL1   H20 5935   4.275   3.442   8.902 -2.3719 -0.9986 -0.0479
   47CHL1   C21 5936   4.239   3.229   8.919 -0.1129 -0.4145 -0.0859
   47CHL1  H21A 5937   4.307   3.146   8.949  1.2625  1.3236  1.9601
   47CHL1  H21B 5938   4.207   3.203   8.816  0.2014 -1.9450  0.1717
   47CHL1  H21C 5939   4.151   3.249   8.984 -0.9004  0.2101 -1.3055
   47CHL1   C22 5940   4.441   3.337   8.791 -0.0878 -0.3230  0.2161
   47CHL1  H22A 5941   4.520   3.414   8.810  0.0056 -0.5004  0.5636
   47CHL1  H22B 5942   4.483   3.235   8.794  0.5204 -0.0729  2.1777
   47CHL1   C23 5943   4.375   3.388   8.666  0.3078 -0.8695 -0.0835
   47CHL1  H23A 5944   4.307   3.311   8.624 -0.5852 -0.0618 -0.1375
   47CHL1  H23B 5945   4.322   3.481   8.696  0.7714 -0.3326 -0.8945
   47CHL1   C24 5946   4.477   3.416   8.556  1.0173  0.1473 -0.4006
   47CHL1  H24A 5947   4.567   3.467   8.598  2.3087 -0.5833 -2.1395
   47CHL1  H24B 5948   4.516   3.313   8.541  2.5571  0.9235 -2.1009
   47CHL1   C25 5949   4.423   3.471   8.430 -0.2700 -0.2747  0.5280
   47CHL1   H25 5950   4.329   3.413   8.418 -0.9293  0.8236  0.2416
   47CHL1   C26 5951   4.378   3.617   8.442  0.4161  0.6066 -0.1308
   47CHL1  H26A 5952   4.301   3.633   8.521 -1.2373 -3.1889 -0.7361
   47CHL1  H26B 5953   4.350   3.660   8.344  3.7423  0.8304 -1.1172
   47CHL1  H26C 5954   4.470   3.677   8.462  0.9915 -0.1632 -0.3911
   47CHL1   C27 5955   4.528   3.453   8.322  0.2022 -0.0010 -0.1157
   47CHL1  H27A 5956   4.562   3.347   8.314 -1.0143 -0.3080 -1.4721
   47CHL1  H27B 5957   4.497   3.491   8.223 -0.6737  0.4018  0.3053
   47CHL1  H27C 5958   4.622   3.507   8.347  0.0709 -0.0773  0.5734
   48CHL1    C3 5959   3.232   0.988  10.063 -0.2331 -0.4932  0.1241
   48CHL1    H3 5960   3.123   0.969  10.054 -0.6175  0.5421  2.0037
   48CHL1    O3 5961   3.273   0.973  10.190 -0.7712 -0.0908 -0.1426
   48CHL1   H3' 5962   3.327   0.893  10.198 -0.8408 -0.0810  0.4521
   48CHL1    C4 5963   3.307   0.878   9.980  0.1940 -0.3463 -0.7329
   48CHL1   H4A 5964   3.416   0.899   9.984  0.1568 -0.0809 -1.0594
   48CHL1   H4B 5965   3.280   0.779  10.025  1.1975 -0.7071 -0.8842
   48CHL1    C5 5966   3.273   0.879   9.834  0.4917  0.5458  0.3052
   48CHL1    C6 5967   3.225   0.764   9.767  0.7310 -0.1064 -0.1819
   48CHL1    H6 5968   3.197   0.674   9.824 -2.1977 -0.8266 -2.4792
   48CHL1    C7 5969   3.191   0.764   9.622 -0.1969 -0.0748  0.4848
   48CHL1   H7A 5970   3.240   0.682   9.565  1.1146  1.4292 -0.6783
   48CHL1   H7B 5971   3.082   0.751   9.607 -0.4765  0.8191  1.6464
   48CHL1    C8 5972   3.247   0.882   9.544  0.1307  0.3864 -0.1542
   48CHL1    H8 5973   3.356   0.873   9.524  0.0241  0.3096 -0.6899
   48CHL1   C14 5974   3.171   0.890   9.413 -0.0389 -0.1063  0.2201
   48CHL1   H14 5975   3.067   0.913   9.445 -1.0030 -1.2245 -1.9152
   48CHL1   C15 5976   3.177   0.768   9.328  0.4919 -0.2775  0.9834
   48CHL1  H15A 5977   3.279   0.725   9.327  1.1593  1.2381  0.1400
   48CHL1  H15B 5978   3.113   0.680   9.352  0.6367 -1.7967 -3.2975
   48CHL1   C16 5979   3.135   0.810   9.191  1.0798 -0.6592  0.4335
   48CHL1  H16A 5980   3.201   0.766   9.113 -0.5954 -3.0998  0.3127
   48CHL1  H16B 5981   3.030   0.778   9.176  0.9184  0.6140 -1.6155
   48CHL1   C17 5982   3.127   0.965   9.195  0.5197  0.4556  0.4835
   48CHL1   H17 5983   3.020   0.989   9.217 -0.1719 -1.4692 -0.5336
   48CHL1   C13 5984   3.207   1.004   9.317  1.0021 -0.3259 -0.1395
   48CHL1   C18 5985   3.356   0.996   9.283  0.0497  0.0407 -0.4758
   48CHL1  H18A 5986   3.420   0.986   9.373 -1.9035  2.4589  1.3037
   48CHL1  H18B 5987   3.376   0.903   9.225 -0.1190 -0.1836 -0.1775
   48CHL1  H18C 5988   3.389   1.087   9.228 -1.5630 -0.2484 -2.0086
   48CHL1   C12 5989   3.175   1.132   9.401  0.1191  0.2838 -0.1163
   48CHL1  H12A 5990   3.223   1.213   9.343 -0.2510 -0.1223 -1.0026
   48CHL1  H12B 5991   3.067   1.155   9.417  0.7889  2.0674  2.7151
   48CHL1   C11 5992   3.237   1.137   9.542 -0.3178  0.0731 -0.4834
   48CHL1  H11A 5993   3.347   1.142   9.529  0.3135  0.7949  3.6694
   48CHL1  H11B 5994   3.210   1.236   9.584  1.2050  0.1924  0.3161
   48CHL1    C9 5995   3.221   1.011   9.631 -0.1377 -0.1902  0.1038
   48CHL1    H9 5996   3.115   0.999   9.659 -0.3166 -0.4973 -0.6754
   48CHL1   C10 5997   3.290   1.014   9.767  0.4157  0.2523 -0.0016
   48CHL1   C19 5998   3.442   1.039   9.745  0.2651  0.5333 -0.2231
   48CHL1  H19A 5999   3.461   1.145   9.719  1.9745  0.6310  1.2447
   48CHL1  H19B 6000   3.503   1.005   9.831  0.1007  0.0048 -0.3157
   48CHL1  H19C 6001   3.473   0.980   9.656  0.7700 -0.7443  0.7678
   48CHL1    C1 6002   3.230   1.121   9.863  0.0754 -0.5792 -0.4125
   48CHL1   H1A 6003   3.262   1.219   9.822 -0.4302 -0.3468 -0.2604
   48CHL1   H1B 6004   3.119   1.119   9.856  0.0188  0.3975  0.1351
   48CHL1    C2 6005   3.267   1.124  10.010  0.2177  0.0399  0.0820
   48CHL1   H2A 6006   3.205   1.200  10.062 -0.9399 -0.4487 -0.5278
   48CHL1   H2B 6007   3.377   1.124  10.020  0.0722 -2.2205  4.1372
   48CHL1   C20 6008   3.158   1.030   9.065  0.2726 -0.8417 -0.8832
   48CHL1   H20 6009   3.259   1.000   9.031  1.2120  1.8748 -0.7232
   48CHL1   C21 6010   3.161   1.187   9.074  0.3431 -0.2540  0.3453
   48CHL1  H21A 6011   3.259   1.233   9.098 -0.1059 -0.9223  3.9352
   48CHL1  H21B 6012   3.097   1.227   9.155  0.5001 -0.5699  0.6292
   48CHL1  H21C 6013   3.121   1.233   8.981  2.7339  0.8985 -0.2000
   48CHL1   C22 6014   3.062   0.973   8.958 -0.0027 -0.4433 -0.5389
   48CHL1  H22A 6015   3.059   0.862   8.954 -0.7266 -0.4132 -1.0885
   48CHL1  H22B 6016   2.960   1.014   8.980 -0.3467 -0.2715 -2.3343
   48CHL1   C23 6017   3.086   1.033   8.820 -0.0327  0.0972  0.1259
   48CHL1  H23A 6018   3.003   0.999   8.755  1.5672 -1.5390 -1.1912
   48CHL1  H23B 6019   3.073   1.143   8.817 -2.0897 -0.0235  1.9775
   48CHL1   C24 6020   3.202   0.959   8.741  0.2217  0.1265  0.0570
   48CHL1  H24A 6021   3.293   0.949   8.805 -0.4169 -2.2404  0.6768
   48CHL1  H24B 6022   3.170   0.854   8.728  2.1452 -0.2089 -3.1961
   48CHL1   C25 6023   3.244   1.004   8.597  0.0975  0.1285 -0.1892
   48CHL1   H25 6024   3.334   0.947   8.566  1.0626  1.2597  0.4483
   48CHL1   C26 6025   3.127   0.979   8.500 -0.1919 -0.3434  0.4475
   48CHL1  H26A 6026   3.104   0.871   8.508  2.3833 -1.0566 -0.7240
   48CHL1  H26B 6027   3.036   1.037   8.528 -0.9243  0.1292 -2.5963
   48CHL1  H26C 6028   3.143   1.003   8.393 -1.6976 -0.7424  0.1205
   48CHL1   C27 6029   3.303   1.143   8.602 -0.2093 -0.1466 -0.2489
   48CHL1  H27A 6030   3.367   1.136   8.693 -0.3524 -0.6549 -0.1849
   48CHL1  H27B 6031   3.372   1.162   8.516 -1.8654 -1.0265 -1.8139
   48CHL1  H27C 6032   3.230   1.221   8.631 -1.5709 -2.2862  2.4685
   49CHL1    C3 6033   3.163   2.501   9.855 -0.1620  0.5410 -0.6448
   49CHL1    H3 6034   3.163   2.390   9.847 -1.8780  0.4774 -0.1310
   49CHL1    O3 6035   3.157   2.534   9.994  0.4488 -0.3289 -0.0744
   49CHL1   H3' 6036   3.183   2.625  10.005 -0.3436 -0.1434  0.3736
   49CHL1    C4 6037   3.293   2.556   9.795  0.1099 -0.0211  0.6678
   49CHL1   H4A 6038   3.318   2.663   9.810  1.3712 -0.1753 -0.1981
   49CHL1   H4B 6039   3.377   2.505   9.847  0.9360 -0.3971 -0.9820
   49CHL1    C5 6040   3.300   2.529   9.646  0.3535  0.2540 -0.5535
   49CHL1    C6 6041   3.398   2.464   9.583  0.3323  0.3218  0.4958
   49CHL1    H6 6042   3.472   2.427   9.655 -0.5182  1.1101  1.8131
   49CHL1    C7 6043   3.406   2.431   9.435 -0.0582  0.0282 -0.0072
   49CHL1   H7A 6044   3.505   2.459   9.392 -1.4167  0.9956 -2.7145
   49CHL1   H7B 6045   3.378   2.324   9.425 -0.1450 -0.1551  1.8784
   49CHL1    C8 6046   3.308   2.510   9.351  0.2476 -0.6118  0.0751
   49CHL1    H8 6047   3.357   2.610   9.344  2.3608 -1.5903 -0.1369
   49CHL1   C14 6048   3.303   2.459   9.208 -0.2577 -0.0040  0.5327
   49CHL1   H14 6049   3.278   2.351   9.209  1.0613 -0.3134  1.1053
   49CHL1   C15 6050   3.432   2.453   9.126 -0.0416  0.7102  0.1148
   49CHL1  H15A 6051   3.495   2.544   9.138 -1.6540  1.7545  1.0741
   49CHL1  H15B 6052   3.490   2.362   9.150 -0.5181  0.8001  1.7130
   49CHL1   C16 6053   3.382   2.451   8.985  1.1479  0.9465  0.7555
   49CHL1  H16A 6054   3.417   2.542   8.932 -0.3249  1.3212  0.3819
   49CHL1  H16B 6055   3.398   2.368   8.913  0.7538  2.7688 -1.5262
   49CHL1   C17 6056   3.225   2.473   8.984 -0.1573  0.5295  0.0392
   49CHL1   H17 6057   3.177   2.373   8.990 -1.9148  1.3826  1.1400
   49CHL1   C13 6058   3.193   2.532   9.122 -1.0102 -0.2226 -0.2323
   49CHL1   C18 6059   3.233   2.687   9.106 -0.0257 -0.2092  0.3128
   49CHL1  H18A 6060   3.317   2.710   9.037 -0.2341  2.2357  0.7900
   49CHL1  H18B 6061   3.148   2.749   9.072  0.5794  1.7292  2.1455
   49CHL1  H18C 6062   3.255   2.730   9.206  0.8295 -0.9473  0.4607
   49CHL1   C12 6063   3.057   2.522   9.187 -0.4302 -0.4832 -0.2269
   49CHL1  H12A 6064   2.975   2.561   9.124 -0.2095 -1.5157 -1.1886
   49CHL1  H12B 6065   3.047   2.411   9.194 -4.2161 -0.5074 -2.7575
   49CHL1   C11 6066   3.063   2.584   9.326  0.3139  0.0708 -0.2046
   49CHL1  H11A 6067   3.079   2.693   9.322  2.8720 -0.2029  0.7889
   49CHL1  H11B 6068   2.967   2.567   9.379  0.2521 -1.1498 -0.6613
   49CHL1    C9 6069   3.172   2.522   9.416 -0.4954  0.5292  0.5193
   49CHL1    H9 6070   3.144   2.416   9.432 -0.5099  0.7279  2.0292
   49CHL1   C10 6071   3.178   2.578   9.560 -0.6765  0.1850  0.1731
   49CHL1   C19 6072   3.201   2.729   9.545  0.1178  0.5507  0.2662
   49CHL1  H19A 6073   3.103   2.776   9.519 -0.8832 -2.3385 -1.5528
   49CHL1  H19B 6074   3.230   2.768   9.645 -1.5596 -2.2331  1.9687
   49CHL1  H19C 6075   3.288   2.762   9.485  0.1779  0.2109  0.1696
   49CHL1    C1 6076   3.049   2.542   9.636  0.8501  0.2430  0.0032
   49CHL1   H1A 6077   2.956   2.583   9.590  0.3888  0.3787  1.0335
   49CHL1   H1B 6078   3.026   2.433   9.624  0.5937  0.2507  0.4023
   49CHL1    C2 6079   3.047   2.560   9.794  0.3097  0.3063  0.8185
   49CHL1   H2A 6080   2.950   2.533   9.841  0.8081 -0.2033  1.5759
   49CHL1   H2B 6081   3.051   2.671   9.803  1.1564  0.6074 -2.1362
   49CHL1   C20 6082   3.165   2.527   8.850  0.0554  0.2061  0.3877
   49CHL1   H20 6083   3.201   2.629   8.827 -1.5463  0.5445 -0.7905
   49CHL1   C21 6084   3.013   2.538   8.853 -0.0121 -0.2411  0.1251
   49CHL1  H21A 6085   2.950   2.448   8.874 -0.4867  0.3002  1.0953
   49CHL1  H21B 6086   2.972   2.580   8.759  1.7161  2.7557  0.5723
   49CHL1  H21C 6087   2.986   2.617   8.926 -0.1401 -0.5865  0.4531
   49CHL1   C22 6088   3.196   2.443   8.726  0.1337  0.4597 -0.8566
   49CHL1  H22A 6089   3.298   2.401   8.732 -1.0580 -2.6568 -0.8489
   49CHL1  H22B 6090   3.131   2.354   8.732  2.2515 -1.0552  1.7764
   49CHL1   C23 6091   3.192   2.512   8.592  0.4784 -0.2047 -0.7484
   49CHL1  H23A 6092   3.190   2.425   8.523 -0.9721 -1.1146  0.3604
   49CHL1  H23B 6093   3.101   2.575   8.588  1.7125  1.6965 -0.0780
   49CHL1   C24 6094   3.317   2.597   8.562 -0.3147  0.4029  0.3149
   49CHL1  H24A 6095   3.325   2.662   8.652  1.7507  1.1625 -0.3580
   49CHL1  H24B 6096   3.404   2.529   8.553  0.5602  1.5768 -0.1894
   49CHL1   C25 6097   3.317   2.693   8.440  0.6734  0.3236  0.1024
   49CHL1   H25 6098   3.319   2.624   8.352 -0.7632  0.2586  0.0954
   49CHL1   C26 6099   3.188   2.772   8.425 -0.3433  0.6162 -0.0496
   49CHL1  H26A 6100   3.194   2.840   8.337 -1.6381  2.0943  0.9562
   49CHL1  H26B 6101   3.108   2.696   8.408 -1.9600  1.8334  1.6878
   49CHL1  H26C 6102   3.164   2.832   8.515 -3.3871  0.6217 -0.7531
   49CHL1   C27 6103   3.435   2.791   8.457  0.3523  0.3517  0.3422
   49CHL1  H27A 6104   3.437   2.869   8.378  1.9989  0.4400  0.4379
   49CHL1  H27B 6105   3.428   2.845   8.554  0.1629  1.9522 -0.5135
   49CHL1  H27C 6106   3.523   2.724   8.457  0.1157 -0.0121 -1.6411
   50CHL1    C3 6107   6.157   1.848  10.240 -0.5387 -0.3108  0.8592
   50CHL1    H3 6108   6.086   1.763  10.227 -0.9713  0.2760 -0.8919
   50CHL1    O3 6109   6.203   1.844  10.376 -0.3243  0.4767  0.5609
   50CHL1   H3' 6110   6.277   1.785  10.389 -1.4911 -0.9895  0.8413
   50CHL1    C4 6111   6.284   1.839  10.162  0.7110 -0.3487 -0.1963
   50CHL1   H4A 6112   6.361   1.908  10.204 -2.1971  1.5759  2.4660
   50CHL1   H4B 6113   6.325   1.738  10.183 -2.0390 -1.4128  0.4099
   50CHL1    C5 6114   6.271   1.868  10.010  0.2209 -0.2871  0.3258
   50CHL1    C6 6115   6.310   1.781   9.916 -0.5960 -0.5352 -0.1741
   50CHL1    H6 6116   6.365   1.690   9.945  0.1928 -0.2117 -0.6434
   50CHL1    C7 6117   6.284   1.780   9.772 -0.0803  0.3043 -0.6178
   50CHL1   H7A 6118   6.378   1.761   9.715  0.9536  0.0812  1.1080
   50CHL1   H7B 6119   6.214   1.701   9.738 -0.5220  0.2853  0.3268
   50CHL1    C8 6120   6.234   1.921   9.730  0.1308 -0.0097  0.0029
   50CHL1    H8 6121   6.324   1.986   9.740 -0.7010  1.3253 -0.9080
   50CHL1   C14 6122   6.189   1.917   9.585  0.3619 -0.1564 -0.4340
   50CHL1   H14 6123   6.106   1.843   9.587 -0.2233  0.4852  0.4713
   50CHL1   C15 6124   6.281   1.850   9.484  0.5025 -1.3101  0.7093
   50CHL1  H15A 6125   6.380   1.900   9.490 -0.4214  0.6510  0.3518
   50CHL1  H15B 6126   6.299   1.740   9.485  1.7461 -1.1160  1.0454
   50CHL1   C16 6127   6.223   1.901   9.355 -0.1458 -0.1787  0.2345
   50CHL1  H16A 6128   6.292   1.969   9.301  0.1220 -1.1923 -0.7455
   50CHL1  H16B 6129   6.199   1.823   9.280 -2.0437 -0.2544  0.8667
   50CHL1   C17 6130   6.094   1.983   9.392 -0.2179 -0.1325 -0.3951
   50CHL1   H17 6131   6.023   1.901   9.414  0.2699 -0.8991 -1.5563
   50CHL1   C13 6132   6.120   2.044   9.531 -0.3799  0.2608 -0.6894
   50CHL1   C18 6133   6.219   2.160   9.507  0.2135 -0.4331  0.5066
   50CHL1  H18A 6134   6.171   2.236   9.442 -0.4808 -0.9302  0.4205
   50CHL1  H18B 6135   6.261   2.203   9.600 -2.6877  0.0261  1.7176
   50CHL1  H18C 6136   6.298   2.125   9.438  0.8530  0.3565  0.8202
   50CHL1   C12 6137   6.006   2.090   9.625  0.2681 -0.3447 -0.3809
   50CHL1  H12A 6138   5.979   2.190   9.583  2.5338 -0.7158 -2.9767
   50CHL1  H12B 6139   5.917   2.024   9.625 -2.4050  2.9235  0.7456
   50CHL1   C11 6140   6.060   2.102   9.768  0.2621 -0.1287 -1.3493
   50CHL1  H11A 6141   6.132   2.186   9.776 -3.5003  3.3331 -0.5322
   50CHL1  H11B 6142   5.978   2.130   9.838  1.0756 -1.4622  0.2028
   50CHL1    C9 6143   6.124   1.972   9.828  0.7066  0.1037  0.7862
   50CHL1    H9 6144   6.043   1.896   9.825 -0.6685  1.5397 -0.5352
   50CHL1   C10 6145   6.177   1.990   9.973 -0.2095  0.3049  0.0753
   50CHL1   C19 6146   6.261   2.131   9.984 -1.4275  0.3074 -0.3886
   50CHL1  H19A 6147   6.188   2.215   9.985  0.6991  2.2765  1.3416
   50CHL1  H19B 6148   6.314   2.135  10.082  0.3426 -3.4220 -1.0001
   50CHL1  H19C 6149   6.346   2.134   9.913  0.2721 -1.7521  1.4173
   50CHL1    C1 6150   6.059   1.995  10.068 -0.2103  0.4871  0.5180
   50CHL1   H1A 6151   6.006   2.092  10.057 -1.1322  0.1100  1.4878
   50CHL1   H1B 6152   5.991   1.910  10.048 -0.2438  0.6697 -0.1742
   50CHL1    C2 6153   6.091   1.981  10.215 -0.3392  0.4201 -0.7025
   50CHL1   H2A 6154   5.996   1.988  10.272 -0.1779 -1.1723 -0.1799
   50CHL1   H2B 6155   6.152   2.068  10.250  0.6460 -0.4202 -0.2726
   50CHL1   C20 6156   6.038   2.070   9.280  0.4931 -0.1509  0.6715
   50CHL1   H20 6157   6.103   2.157   9.259  1.2092 -0.8072  0.0803
   50CHL1   C21 6158   5.891   2.094   9.314  0.2016  0.2265  0.3435
   50CHL1  H21A 6159   5.879   2.149   9.410  0.3958 -1.0801  1.1442
   50CHL1  H21B 6160   5.841   1.995   9.324  2.3392 -1.0391 -0.8141
   50CHL1  H21C 6161   5.839   2.147   9.231  1.7765  0.7543 -0.3367
   50CHL1   C22 6162   6.033   1.990   9.143 -0.1824 -0.4329 -0.2079
   50CHL1  H22A 6163   6.133   1.951   9.116  0.0678  0.4259 -0.5617
   50CHL1  H22B 6164   5.961   1.905   9.143 -1.9063  0.9512 -1.1211
   50CHL1   C23 6165   5.980   2.077   9.023 -0.5338  0.0182 -0.1047
   50CHL1  H23A 6166   5.871   2.100   9.029 -0.5136 -0.1292  1.0091
   50CHL1  H23B 6167   6.027   2.177   9.032 -0.2650 -0.0580 -0.6266
   50CHL1   C24 6168   6.017   2.029   8.879 -0.2280 -0.3690 -0.1885
   50CHL1  H24A 6169   6.123   1.995   8.867  0.1451  1.0264 -1.0571
   50CHL1  H24B 6170   5.963   1.933   8.867 -0.7072 -0.0640 -0.5240
   50CHL1   C25 6171   5.975   2.123   8.758 -0.3217  0.2296 -0.8668
   50CHL1   H25 6172   6.011   2.222   8.792  0.3753 -0.3874  0.2439
   50CHL1   C26 6173   6.051   2.078   8.634  0.0546 -0.1411 -0.0767
   50CHL1  H26A 6174   6.162   2.072   8.634  0.1703  1.4865 -1.2232
   50CHL1  H26B 6175   6.001   1.987   8.595  1.1110 -0.5701 -0.4584
   50CHL1  H26C 6176   6.040   2.166   8.567 -0.1052 -0.0332  0.0885
   50CHL1   C27 6177   5.822   2.137   8.740 -0.1559 -0.8329  0.3899
   50CHL1  H27A 6178   5.797   2.207   8.658  0.9641  1.8615  2.1901
   50CHL1  H27B 6179   5.774   2.039   8.718 -1.8130  0.2414 -0.9779
   50CHL1  H27C 6180   5.785   2.172   8.839  0.7761 -0.0480  0.4823
   51CHL1    C3 6181   2.029   3.999  10.271 -0.4329  0.9765 -0.3204
   51CHL1    H3 6182   2.118   3.995  10.204 -1.2536 -1.7165 -1.3802
   51CHL1    O3 6183   2.069   3.978  10.408  0.5798  0.2906  0.1429
   51CHL1   H3' 6184   1.987   3.987  10.457  2.0839 -0.6799  3.0747
   51CHL1    C4 6185   1.956   4.134  10.266 -0.1542  0.3955 -0.3999
   51CHL1   H4A 6186   1.857   4.131  10.316  0.8156  0.7812  1.6688
   51CHL1   H4B 6187   2.011   4.221  10.309  1.5601 -1.0694  0.5559
   51CHL1    C5 6188   1.938   4.150  10.119  0.0220 -0.1862  0.7610
   51CHL1    C6 6189   2.007   4.250  10.056  0.3600 -0.0502 -0.1819
   51CHL1    H6 6190   2.063   4.322  10.117 -0.8865 -0.0005  0.9567
   51CHL1    C7 6191   1.999   4.282   9.911 -0.2731  0.2921 -0.3697
   51CHL1   H7A 6192   1.996   4.392   9.897  0.9137  0.2875 -0.7215
   51CHL1   H7B 6193   2.086   4.237   9.858  0.6415  2.3239 -0.6932
   51CHL1    C8 6194   1.879   4.224   9.846  0.1418 -0.1407  0.4961
   51CHL1    H8 6195   1.794   4.288   9.879  0.8903  0.9284  0.4125
   51CHL1   C14 6196   1.892   4.237   9.699  0.6067 -0.2051 -0.0318
   51CHL1   H14 6197   1.984   4.178   9.677 -0.4781 -1.9954  0.0024
   51CHL1   C15 6198   1.928   4.371   9.627 -0.4879 -0.8130 -0.4216
   51CHL1  H15A 6199   1.884   4.459   9.681 -1.1758 -2.1836  1.3661
   51CHL1  H15B 6200   2.037   4.386   9.614 -0.0353  0.4115  3.4036
   51CHL1   C16 6201   1.868   4.357   9.487 -0.0418 -0.1701 -0.1340
   51CHL1  H16A 6202   1.780   4.418   9.458 -0.1981  0.5508  1.7437
   51CHL1  H16B 6203   1.938   4.370   9.402 -1.4019  0.2074 -1.2499
   51CHL1   C17 6204   1.817   4.210   9.469  0.2793  0.3635  0.3286
   51CHL1   H17 6205   1.905   4.148   9.444 -0.5922 -1.5558  1.7466
   51CHL1   C13 6206   1.784   4.167   9.619  0.6428 -0.1911  0.5608
   51CHL1   C18 6207   1.642   4.225   9.658 -0.1343  0.6898  0.5923
   51CHL1  H18A 6208   1.632   4.324   9.608 -0.4181 -0.0387 -0.8529
   51CHL1  H18B 6209   1.566   4.158   9.614  1.2551 -0.3558 -0.3290
   51CHL1  H18C 6210   1.627   4.229   9.768  0.7787  1.5272  0.7041
   51CHL1   C12 6211   1.790   4.011   9.650  0.3609  0.6753  0.0254
   51CHL1  H12A 6212   1.704   3.960   9.602  1.8711 -3.5949  1.3122
   51CHL1  H12B 6213   1.885   3.957   9.628 -0.9851 -2.0717  0.5171
   51CHL1   C11 6214   1.763   3.996   9.797  0.0053  0.2399 -0.3560
   51CHL1  H11A 6215   1.654   4.010   9.813  0.1193  1.7892 -0.7651
   51CHL1  H11B 6216   1.792   3.892   9.822  3.7557  0.7531 -1.8740
   51CHL1    C9 6217   1.861   4.077   9.888  0.7928 -0.3615  0.3823
   51CHL1    H9 6218   1.958   4.031   9.861  2.0086  1.0535  2.1172
   51CHL1   C10 6219   1.845   4.050  10.039 -0.5247 -0.0409  0.3282
   51CHL1   C19 6220   1.699   4.045  10.082  0.6051 -0.0362 -0.5370
   51CHL1  H19A 6221   1.651   4.143  10.064 -0.2406 -0.5826 -1.3720
   51CHL1  H19B 6222   1.646   3.961  10.032  3.6177 -0.9090 -2.5489
   51CHL1  H19C 6223   1.691   4.026  10.191  1.7404 -0.7169 -0.5573
   51CHL1    C1 6224   1.903   3.909  10.064 -0.4390  0.7746 -0.2273
   51CHL1   H1A 6225   1.830   3.832  10.031 -0.4070  0.9402 -0.6873
   51CHL1   H1B 6226   1.997   3.886  10.010 -1.2929 -0.1384 -1.3644
   51CHL1    C2 6227   1.938   3.884  10.211 -0.0196  0.1810 -0.1081
   51CHL1   H2A 6228   1.983   3.782  10.221 -2.1361 -0.8193 -0.3330
   51CHL1   H2B 6229   1.847   3.894  10.272 -1.2888 -2.5481 -1.3782
   51CHL1   C20 6230   1.713   4.191   9.358  0.1487 -0.3606  0.1681
   51CHL1   H20 6231   1.624   4.254   9.381 -0.9096 -1.9042  0.3883
   51CHL1   C21 6232   1.680   4.044   9.348 -0.2777  0.4113 -0.1114
   51CHL1  H21A 6233   1.778   3.992   9.338 -0.3726  0.4814 -1.6750
   51CHL1  H21B 6234   1.627   4.016   9.254  1.5062 -1.1586 -0.7175
   51CHL1  H21C 6235   1.617   4.013   9.433  2.5231 -2.1130  1.2642
   51CHL1   C22 6236   1.771   4.231   9.219  0.2142 -0.0194  0.4989
   51CHL1  H22A 6237   1.814   4.334   9.219  2.3376 -0.7773 -2.1346
   51CHL1  H22B 6238   1.862   4.169   9.206 -0.7374 -1.0103 -1.9660
   51CHL1   C23 6239   1.672   4.229   9.097  0.2505 -0.5421 -0.1615
   51CHL1  H23A 6240   1.617   4.132   9.091 -0.0336 -0.4718  1.0775
   51CHL1  H23B 6241   1.597   4.305   9.125  0.9302 -0.2603  0.9603
   51CHL1   C24 6242   1.744   4.283   8.966  0.0094 -0.2196 -0.2170
   51CHL1  H24A 6243   1.792   4.381   8.990  0.2403  0.5111 -3.2121
   51CHL1  H24B 6244   1.823   4.208   8.943  0.6496  0.5909 -0.7359
   51CHL1   C25 6245   1.663   4.272   8.837  0.9482 -0.0947 -0.0123
   51CHL1   H25 6246   1.629   4.168   8.818  0.2482 -0.6060  3.4115
   51CHL1   C26 6247   1.527   4.356   8.842 -0.4385 -0.2036  0.1241
   51CHL1  H26A 6248   1.487   4.392   8.745 -1.5613  2.4027  1.4605
   51CHL1  H26B 6249   1.448   4.288   8.880 -0.1129 -2.6175 -3.0728
   51CHL1  H26C 6250   1.534   4.444   8.910 -2.7612  1.4950 -1.6856
   51CHL1   C27 6251   1.754   4.321   8.731 -0.4599  0.6509 -0.1077
   51CHL1  H27A 6252   1.784   4.428   8.732 -0.2864  0.8005 -3.9998
   51CHL1  H27B 6253   1.847   4.261   8.742 -1.8151 -1.6522 -0.5335
   51CHL1  H27C 6254   1.713   4.315   8.628  0.2963 -0.6887 -0.3672
   52CHL1    C3 6255   5.949   4.663   9.953 -0.3053  0.4536  0.0973
   52CHL1    H3 6256   5.918   4.764   9.919 -2.4944 -0.1572  0.1084
   52CHL1    O3 6257   5.913   4.662  10.088  0.7216 -0.0414 -0.0725
   52CHL1   H3' 6258   5.935   4.578  10.128 -1.5236  0.8343  3.4651
   52CHL1    C4 6259   5.877   4.556   9.873 -0.0297  0.0994 -0.3441
   52CHL1   H4A 6260   5.930   4.472   9.923  0.3659  0.7425  0.3343
   52CHL1   H4B 6261   5.769   4.551   9.899 -0.2622 -1.2780 -1.4842
   52CHL1    C5 6262   5.909   4.558   9.729  0.2156 -0.3185 -0.3384
   52CHL1    C6 6263   5.805   4.570   9.648 -0.1163 -0.1811  0.1148
   52CHL1    H6 6264   5.697   4.563   9.670 -0.7632 -1.6900 -3.0285
   52CHL1    C7 6265   5.820   4.575   9.498 -0.1663 -0.0375  0.1784
   52CHL1   H7A 6266   5.753   4.505   9.445 -0.7825  2.0741 -2.0114
   52CHL1   H7B 6267   5.800   4.680   9.466 -0.0443 -0.2286 -0.5471
   52CHL1    C8 6268   5.961   4.541   9.457  0.1629 -0.1301  0.2532
   52CHL1    H8 6269   5.967   4.430   9.458 -1.9335 -0.2858  1.1633
   52CHL1   C14 6270   5.988   4.578   9.309 -0.0797 -0.1471 -0.5077
   52CHL1   H14 6271   5.994   4.688   9.292 -1.2484 -0.1319 -0.9444
   52CHL1   C15 6272   5.879   4.525   9.212 -0.1564 -0.3679  0.5161
   52CHL1  H15A 6273   5.848   4.424   9.248  0.0767  0.2030  2.4189
   52CHL1  H15B 6274   5.794   4.596   9.220  0.0828 -0.0584  0.3350
   52CHL1   C16 6275   5.952   4.511   9.083 -0.4493 -0.7298  0.2141
   52CHL1  H16A 6276   5.949   4.406   9.048  0.9321 -0.4541 -0.8055
   52CHL1  H16B 6277   5.899   4.571   9.006  0.1761  2.1776  1.9005
   52CHL1   C17 6278   6.099   4.552   9.107 -0.4782  0.2150 -0.0279
   52CHL1   H17 6279   6.109   4.660   9.080 -1.0362  0.8525  2.1503
   52CHL1   C13 6280   6.125   4.526   9.254  0.0173 -0.5460  0.1777
   52CHL1   C18 6281   6.143   4.377   9.281  0.9138  0.2376 -0.9721
   52CHL1  H18A 6282   6.227   4.327   9.229  1.4312 -1.6492  1.4762
   52CHL1  H18B 6283   6.172   4.364   9.388  1.6990 -0.4326 -1.2554
   52CHL1  H18C 6284   6.053   4.315   9.259  0.4928  0.6432 -0.4381
   52CHL1   C12 6285   6.238   4.608   9.335  0.0023 -0.4707 -0.1820
   52CHL1  H12A 6286   6.342   4.588   9.304 -0.4497 -0.9790 -1.4637
   52CHL1  H12B 6287   6.223   4.715   9.309 -0.5973 -0.4756  0.1317
   52CHL1   C11 6288   6.221   4.586   9.489 -0.6206  0.1724  0.3649
   52CHL1  H11A 6289   6.264   4.488   9.520  1.4891  0.8911 -0.1290
   52CHL1  H11B 6290   6.289   4.661   9.534 -0.1955  1.1368 -1.7666
   52CHL1    C9 6291   6.077   4.602   9.543  0.3585 -0.7180 -0.6502
   52CHL1    H9 6292   6.059   4.711   9.547 -0.8692 -0.9290  0.0398
   52CHL1   C10 6293   6.059   4.559   9.689  0.1415  0.5083  0.3353
   52CHL1   C19 6294   6.115   4.417   9.713  0.8969 -0.0630  0.4193
   52CHL1  H19A 6295   6.067   4.358   9.632 -0.7517  1.1547  0.4697
   52CHL1  H19B 6296   6.226   4.414   9.705  0.9304  1.8449 -0.2932
   52CHL1  H19C 6297   6.077   4.389   9.814  0.0198  4.8150  1.7037
   52CHL1    C1 6298   6.125   4.668   9.786 -0.2023 -0.3383  0.1493
   52CHL1   H1A 6299   6.235   4.667   9.768 -0.2298  1.9728 -0.4538
   52CHL1   H1B 6300   6.089   4.769   9.756  3.1426  1.1172  0.5733
   52CHL1    C2 6301   6.102   4.663   9.935  0.5216  0.2618  0.7349
   52CHL1   H2A 6302   6.158   4.749   9.977 -0.3495  2.9408 -2.9865
   52CHL1   H2B 6303   6.131   4.564   9.975 -0.1443 -0.7332 -1.1053
   52CHL1   C20 6304   6.192   4.478   9.005  0.1742 -0.2412  0.0813
   52CHL1   H20 6305   6.177   4.368   9.013 -1.4733 -0.0179  0.4403
   52CHL1   C21 6306   6.337   4.514   9.026  0.6381  0.5226  0.2528
   52CHL1  H21A 6307   6.403   4.506   8.937  0.0862 -0.6039 -0.0662
   52CHL1  H21B 6308   6.375   4.450   9.108  1.3635 -0.7724 -1.0561
   52CHL1  H21C 6309   6.354   4.622   9.050  1.8273  0.4926 -0.3981
   52CHL1   C22 6310   6.146   4.508   8.857  0.3398  0.1878  0.3826
   52CHL1  H22A 6311   6.036   4.503   8.842  0.0230  1.3647  2.0154
   52CHL1  H22B 6312   6.173   4.615   8.846 -1.8498  0.8312  0.8359
   52CHL1   C23 6313   6.204   4.415   8.746 -0.3515 -0.2233 -0.4447
   52CHL1  H23A 6314   6.307   4.453   8.729  0.5228  0.6562  5.0677
   52CHL1  H23B 6315   6.219   4.321   8.802 -0.2461 -1.4902 -2.4931
   52CHL1   C24 6316   6.121   4.391   8.616 -0.6344 -0.0212 -0.3896
   52CHL1  H24A 6317   6.022   4.357   8.653 -1.1070  1.7695  0.1293
   52CHL1  H24B 6318   6.109   4.493   8.572  0.0514  0.4084  0.3764
   52CHL1   C25 6319   6.198   4.306   8.505 -0.3049  0.2150  0.0145
   52CHL1   H25 6320   6.256   4.382   8.450 -0.9294 -0.4377 -1.6291
   52CHL1   C26 6321   6.300   4.214   8.575  0.0656  0.2317 -0.0159
   52CHL1  H26A 6322   6.253   4.153   8.654 -3.2080  1.1186 -1.1418
   52CHL1  H26B 6323   6.334   4.135   8.504 -1.6910 -1.0083  0.4573
   52CHL1  H26C 6324   6.386   4.271   8.616  1.5896 -1.2980 -0.9317
   52CHL1   C27 6325   6.116   4.216   8.416  0.2513  0.3339 -0.4428
   52CHL1  H27A 6326   6.021   4.269   8.391  0.1878 -0.0234 -0.9736
   52CHL1  H27B 6327   6.160   4.194   8.317  0.3297 -1.5397 -0.0294
   52CHL1  H27C 6328   6.093   4.112   8.448  0.5441  0.3413 -0.2039
   53CHL1    C3 6329   4.702   3.863   9.987 -0.2048 -0.1205  0.4532
   53CHL1    H3 6330   4.651   3.955  10.022 -0.2139  0.3929 -0.8646
   53CHL1    O3 6331   4.733   3.794  10.109 -0.3166 -0.2644 -0.1090
   53CHL1   H3' 6332   4.662   3.731  10.125 -1.5629  1.0375 -0.3426
   53CHL1    C4 6333   4.617   3.779   9.901  0.3954 -0.0500 -0.7636
   53CHL1   H4A 6334   4.674   3.686   9.882  0.2714 -0.4830  0.8469
   53CHL1   H4B 6335   4.533   3.739   9.962 -0.0315  2.0293  0.1329
   53CHL1    C5 6336   4.589   3.836   9.766  0.3387 -0.1537 -0.2336
   53CHL1    C6 6337   4.466   3.842   9.714  0.1602 -0.0040 -0.9666
   53CHL1    H6 6338   4.386   3.808   9.781  0.6788 -0.6447 -0.6592
   53CHL1    C7 6339   4.430   3.881   9.572  0.0580  0.1301 -0.6929
   53CHL1   H7A 6340   4.371   3.797   9.530 -1.7370 -0.3101  2.4193
   53CHL1   H7B 6341   4.386   3.983   9.569  3.1288  1.5773 -1.0613
   53CHL1    C8 6342   4.561   3.906   9.485 -0.7458 -0.5194 -0.2677
   53CHL1    H8 6343   4.602   3.812   9.441 -1.6573 -1.2477  0.4125
   53CHL1   C14 6344   4.530   3.998   9.371 -0.6270 -0.0128  0.4458
   53CHL1   H14 6345   4.508   4.091   9.428  1.7515  0.6703  0.3571
   53CHL1   C15 6346   4.406   3.968   9.283  0.5914 -0.5395  0.3917
   53CHL1  H15A 6347   4.398   3.859   9.262  0.2104 -0.4450  0.0271
   53CHL1  H15B 6348   4.318   3.996   9.345 -0.1448 -1.1259 -0.3644
   53CHL1   C16 6349   4.419   4.051   9.151  0.1772  0.5465 -0.5317
   53CHL1  H16A 6350   4.433   3.989   9.060  3.3029  2.4365 -1.5020
   53CHL1  H16B 6351   4.329   4.115   9.136 -1.0095 -0.2358  2.4893
   53CHL1   C17 6352   4.553   4.124   9.167 -0.6633  0.1269 -0.2847
   53CHL1   H17 6353   4.524   4.212   9.228 -2.8008 -1.1461  0.6215
   53CHL1   C13 6354   4.637   4.034   9.266  0.0062  0.2843 -0.2094
   53CHL1   C18 6355   4.695   3.910   9.189 -0.1172 -0.2012 -0.1519
   53CHL1  H18A 6356   4.767   3.937   9.108 -3.6763  0.5810 -3.3181
   53CHL1  H18B 6357   4.744   3.850   9.269  0.0363 -2.4169 -1.8313
   53CHL1  H18C 6358   4.623   3.839   9.143 -0.9447  0.9517 -0.7048
   53CHL1   C12 6359   4.743   4.105   9.348 -0.3991 -1.2996 -0.2904
   53CHL1  H12A 6360   4.824   4.118   9.273 -0.7732  0.8572 -0.3797
   53CHL1  H12B 6361   4.704   4.204   9.378 -2.0181 -1.1142 -2.6499
   53CHL1   C11 6362   4.790   4.030   9.473  0.4025 -0.2790 -0.3156
   53CHL1  H11A 6363   4.847   3.939   9.445  0.3868 -0.8634  1.4101
   53CHL1  H11B 6364   4.861   4.096   9.526 -0.1892 -0.1806  0.3722
   53CHL1    C9 6365   4.674   3.979   9.561  0.6356 -0.2464 -0.0347
   53CHL1    H9 6366   4.630   4.069   9.608  1.5742  0.3625 -0.3003
   53CHL1   C10 6367   4.704   3.888   9.690 -0.7345 -0.8365 -0.1378
   53CHL1   C19 6368   4.785   3.772   9.632 -0.1634 -0.3450  0.0965
   53CHL1  H19A 6369   4.812   3.707   9.719 -3.2907  1.1366  2.3712
   53CHL1  H19B 6370   4.748   3.713   9.546  0.5528  1.0454 -1.2098
   53CHL1  H19C 6371   4.888   3.801   9.601 -0.9456  1.5949 -0.7846
   53CHL1    C1 6372   4.792   3.975   9.786  0.6020 -0.1805  0.1651
   53CHL1   H1A 6373   4.884   3.998   9.728 -0.3041  1.8171 -0.5610
   53CHL1   H1B 6374   4.743   4.073   9.803  0.5729 -0.2357  0.3997
   53CHL1    C2 6375   4.831   3.910   9.921  0.4093  0.1703  0.0151
   53CHL1   H2A 6376   4.883   3.983   9.986 -1.0502  0.4913  0.8608
   53CHL1   H2B 6377   4.897   3.822   9.904  2.7173  2.2686 -2.9349
   53CHL1   C20 6378   4.609   4.158   9.035  0.3726 -0.3298  0.0714
   53CHL1   H20 6379   4.654   4.073   8.981 -4.0262 -1.3760 -2.4714
   53CHL1   C21 6380   4.722   4.258   9.053 -0.3496  0.0585 -0.9293
   53CHL1  H21A 6381   4.688   4.351   9.104 -2.3004 -0.7663 -0.6652
   53CHL1  H21B 6382   4.760   4.295   8.956 -0.7076  0.9413 -0.7517
   53CHL1  H21C 6383   4.809   4.214   9.107 -0.7815  1.2117  0.8178
   53CHL1   C22 6384   4.507   4.236   8.948 -0.2531 -0.4724  0.0965
   53CHL1  H22A 6385   4.401   4.201   8.948 -1.1608  2.0432 -0.4742
   53CHL1  H22B 6386   4.502   4.344   8.971 -1.7309 -0.0527 -1.8798
   53CHL1   C23 6387   4.541   4.229   8.800 -0.4234 -0.6587  0.1287
   53CHL1  H23A 6388   4.640   4.277   8.781  0.5257 -1.7202  2.1122
   53CHL1  H23B 6389   4.556   4.121   8.778 -0.4012 -0.7103  0.3941
   53CHL1   C24 6390   4.440   4.285   8.696  0.2146  0.2177 -0.5593
   53CHL1  H24A 6391   4.337   4.244   8.695  0.2342  0.1649 -1.4748
   53CHL1  H24B 6392   4.425   4.387   8.737  0.5087 -0.2589  0.8023
   53CHL1   C25 6393   4.501   4.279   8.557  0.7600  0.6028 -0.3632
   53CHL1   H25 6394   4.608   4.307   8.554  1.0275  0.3242  2.8629
   53CHL1   C26 6395   4.483   4.140   8.494  0.5052  0.7476  0.7171
   53CHL1  H26A 6396   4.539   4.134   8.398 -1.0699  1.5833 -0.3112
   53CHL1  H26B 6397   4.517   4.057   8.559 -0.0081 -1.0972 -1.2417
   53CHL1  H26C 6398   4.377   4.126   8.460  0.8762 -0.6419  0.0755
   53CHL1   C27 6399   4.433   4.387   8.475 -0.1809  0.3293 -0.0902
   53CHL1  H27A 6400   4.468   4.382   8.370 -1.5336  0.8331 -0.5859
   53CHL1  H27B 6401   4.324   4.367   8.475 -0.6520  2.4958  1.5397
   53CHL1  H27C 6402   4.457   4.485   8.522 -0.9878 -0.1421  1.3915
   54CHL1    C3 6403   3.949   0.408  10.188  0.2346  0.1070 -0.0533
   54CHL1    H3 6404   3.840   0.393  10.169  0.3733 -1.8705  0.4478
   54CHL1    O3 6405   3.974   0.361  10.315 -0.4549 -0.1129 -0.2590
   54CHL1   H3' 6406   3.932   0.275  10.318 -1.8092  0.5373  0.9059
   54CHL1    C4 6407   4.018   0.305  10.091 -0.2887  0.0121  0.2380
   54CHL1   H4A 6408   4.120   0.273  10.120 -0.1565 -0.4365 -0.6778
   54CHL1   H4B 6409   3.951   0.216  10.096  0.4589 -0.4959  1.3984
   54CHL1    C5 6410   4.029   0.355   9.947 -0.2215 -0.1806  0.4007
   54CHL1    C6 6411   3.988   0.278   9.844  0.0801  0.3409  0.2183
   54CHL1    H6 6412   3.949   0.178   9.869 -0.6482  0.8055  0.9713
   54CHL1    C7 6413   4.000   0.314   9.698  0.1441 -0.0937 -0.3371
   54CHL1   H7A 6414   4.038   0.227   9.640 -0.7834 -0.7448  0.0124
   54CHL1   H7B 6415   3.901   0.337   9.655  0.6268  1.1484 -0.8473
   54CHL1    C8 6416   4.096   0.436   9.678  0.0717 -0.5087  0.1084
   54CHL1    H8 6417   4.197   0.394   9.699 -0.0494  0.0657  2.0528
   54CHL1   C14 6418   4.090   0.490   9.538  0.3408  0.5303 -0.1339
   54CHL1   H14 6419   3.984   0.518   9.520  0.6878  1.8764 -0.1790
   54CHL1   C15 6420   4.117   0.390   9.421  0.0806 -0.0195  0.0037
   54CHL1  H15A 6421   4.215   0.342   9.439 -0.4828 -0.9247  0.6824
   54CHL1  H15B 6422   4.032   0.319   9.413 -2.2418  2.7968 -4.1108
   54CHL1   C16 6423   4.129   0.488   9.303 -0.3418 -0.2118  0.6645
   54CHL1  H16A 6424   4.223   0.479   9.243 -0.8284  0.7744 -0.2902
   54CHL1  H16B 6425   4.047   0.485   9.228  0.3530 -1.0159 -0.0869
   54CHL1   C17 6426   4.130   0.633   9.369  0.0022 -0.6865  0.5915
   54CHL1   H17 6427   4.022   0.659   9.364 -0.3343 -1.8524  1.4908
   54CHL1   C13 6428   4.174   0.617   9.515  0.5219  0.3119 -0.8329
   54CHL1   C18 6429   4.322   0.592   9.516 -0.2301 -0.2718 -0.0619
   54CHL1  H18A 6430   4.353   0.519   9.438 -1.3941 -0.5930 -0.2473
   54CHL1  H18B 6431   4.395   0.673   9.498  0.5293 -1.0844 -0.7594
   54CHL1  H18C 6432   4.345   0.546   9.614 -2.2374 -0.0114  0.5814
   54CHL1   C12 6433   4.126   0.728   9.619  0.3338 -0.1173 -0.2030
   54CHL1  H12A 6434   4.177   0.824   9.594 -0.0620  0.9316  2.6552
   54CHL1  H12B 6435   4.020   0.748   9.594  0.3365  0.9743  0.5975
   54CHL1   C11 6436   4.151   0.680   9.760 -0.3924  0.7944 -1.0109
   54CHL1  H11A 6437   4.261   0.667   9.770 -0.8748 -2.3434  2.5824
   54CHL1  H11B 6438   4.118   0.761   9.829 -0.7573 -0.7031  0.6375
   54CHL1    C9 6439   4.076   0.551   9.788  0.6259 -0.6237 -0.5634
   54CHL1    H9 6440   3.968   0.574   9.771  0.5087  0.1577  1.0111
   54CHL1   C10 6441   4.090   0.498   9.930  0.9664 -0.0028 -0.5191
   54CHL1   C19 6442   4.236   0.513   9.969  0.3514  0.5267  0.0919
   54CHL1  H19A 6443   4.274   0.617   9.961 -0.3477  0.7356 -0.6794
   54CHL1  H19B 6444   4.241   0.473  10.072  1.7088  0.0259 -0.1435
   54CHL1  H19C 6445   4.299   0.446   9.906  1.0579  2.4980 -1.3897
   54CHL1    C1 6446   4.005   0.591  10.022  0.2021  1.2265  0.3345
   54CHL1   H1A 6447   4.039   0.697  10.016  2.0295  0.5773 -3.0940
   54CHL1   H1B 6448   3.901   0.586   9.983  1.1023 -2.8256 -2.1439
   54CHL1    C2 6449   3.994   0.553  10.173 -0.7217  0.6897 -0.8062
   54CHL1   H2A 6450   3.935   0.618  10.241  1.7428  0.6848  1.5314
   54CHL1   H2B 6451   4.094   0.560  10.221 -1.3105 -0.9353  0.7686
   54CHL1   C20 6452   4.205   0.738   9.279 -0.1724  0.0129 -0.4903
   54CHL1   H20 6453   4.307   0.695   9.266 -0.7743 -0.9166 -2.6142
   54CHL1   C21 6454   4.205   0.875   9.347  0.7757 -0.2121 -0.2865
   54CHL1  H21A 6455   4.194   0.962   9.279  0.5332  1.1969  1.4965
   54CHL1  H21B 6456   4.300   0.887   9.403 -1.0406  1.2028  2.7322
   54CHL1  H21C 6457   4.124   0.896   9.420  1.9747  2.2692  0.4159
   54CHL1   C22 6458   4.138   0.754   9.142  0.1719  0.0289 -0.2299
   54CHL1  H22A 6459   4.119   0.653   9.099 -3.8866  0.0565  1.0905
   54CHL1  H22B 6460   4.045   0.807   9.172 -0.3289 -0.8557 -0.1882
   54CHL1   C23 6461   4.232   0.827   9.041  0.1391  0.1748  0.2627
   54CHL1  H23A 6462   4.262   0.923   9.088  1.5175  0.2772 -0.7467
   54CHL1  H23B 6463   4.315   0.757   9.016 -0.2256  0.8522 -3.5741
   54CHL1   C24 6464   4.173   0.857   8.905  0.5733 -0.0136 -0.7584
   54CHL1  H24A 6465   4.138   0.764   8.855 -2.3238  1.9702 -2.7637
   54CHL1  H24B 6466   4.082   0.920   8.914 -0.1233 -1.1145  0.0378
   54CHL1   C25 6467   4.269   0.918   8.813  0.6253 -0.4244  0.0831
   54CHL1   H25 6468   4.361   0.857   8.802  0.9855  0.1254  0.0030
   54CHL1   C26 6469   4.204   0.935   8.674  0.0846 -0.3711  0.2979
   54CHL1  H26A 6470   4.260   1.013   8.618  0.7614 -0.9633  0.1214
   54CHL1  H26B 6471   4.218   0.833   8.630  0.8340 -0.0710 -0.1832
   54CHL1  H26C 6472   4.097   0.964   8.666  0.3494  0.1867 -2.3570
   54CHL1   C27 6473   4.312   1.054   8.863  0.9205  0.8779 -0.2586
   54CHL1  H27A 6474   4.368   1.046   8.959 -0.2767 -1.7601  0.3108
   54CHL1  H27B 6475   4.366   1.095   8.776 -1.7132 -2.0153 -3.5329
   54CHL1  H27C 6476   4.216   1.109   8.875  0.0026 -0.7727  0.3099
   55CHL1    C3 6477   4.657   1.321  10.188  0.4439 -0.6128 -0.1153
   55CHL1    H3 6478   4.644   1.431  10.201  1.2054 -0.1264 -2.9007
   55CHL1    O3 6479   4.708   1.266  10.311 -0.3074 -0.4653  0.1012
   55CHL1   H3' 6480   4.649   1.278  10.385  1.3457 -0.3831  1.4777
   55CHL1    C4 6481   4.511   1.263  10.170  0.3834 -0.2422  0.3888
   55CHL1   H4A 6482   4.509   1.153  10.154  0.1674  0.0285 -1.6925
   55CHL1   H4B 6483   4.453   1.277  10.264 -1.0789 -1.0535 -0.3723
   55CHL1    C5 6484   4.454   1.325  10.040  0.3092  0.1016 -0.4785
   55CHL1    C6 6485   4.336   1.397  10.037  0.0471 -0.9664 -0.1846
   55CHL1    H6 6486   4.277   1.412  10.128  0.4156  0.6238 -0.1807
   55CHL1    C7 6487   4.266   1.450   9.916  0.0290 -0.6470 -0.5536
   55CHL1   H7A 6488   4.160   1.416   9.912 -0.1290 -0.1732 -0.4066
   55CHL1   H7B 6489   4.255   1.560   9.922 -1.4692 -0.7702 -0.4735
   55CHL1    C8 6490   4.339   1.406   9.786 -0.1044  0.2338 -0.2384
   55CHL1    H8 6491   4.302   1.301   9.776 -0.0245  0.3295 -1.7215
   55CHL1   C14 6492   4.308   1.501   9.674  0.0072 -0.1923 -0.2012
   55CHL1   H14 6493   4.370   1.591   9.688 -1.2282  0.4805  1.2949
   55CHL1   C15 6494   4.160   1.554   9.656 -0.8685  1.3103  0.3366
   55CHL1  H15A 6495   4.093   1.467   9.673  0.1591  0.1735 -1.2499
   55CHL1  H15B 6496   4.120   1.629   9.728  0.0477  0.6391  1.5875
   55CHL1   C16 6497   4.159   1.597   9.510 -0.5286  0.4242 -0.2948
   55CHL1  H16A 6498   4.078   1.538   9.462 -1.4607  2.3826 -1.2403
   55CHL1  H16B 6499   4.140   1.706   9.503  2.8653  1.2561  1.5041
   55CHL1   C17 6500   4.296   1.562   9.441  0.5647  0.3188  0.1316
   55CHL1   H17 6501   4.352   1.656   9.461 -0.1364  0.4483  1.6090
   55CHL1   C13 6502   4.354   1.454   9.533 -0.1643 -0.0743  0.4996
   55CHL1   C18 6503   4.296   1.309   9.506  0.0274  0.2222 -0.4088
   55CHL1  H18A 6504   4.349   1.235   9.570  0.2239 -1.9541 -2.9306
   55CHL1  H18B 6505   4.190   1.315   9.539  0.8538  2.2138  2.1456
   55CHL1  H18C 6506   4.310   1.279   9.399  0.8483 -1.5086  0.1421
   55CHL1   C12 6507   4.504   1.454   9.541 -0.0033  0.0351 -0.2157
   55CHL1  H12A 6508   4.538   1.410   9.445  1.1252 -0.0489  0.2105
   55CHL1  H12B 6509   4.547   1.556   9.548  0.6404  0.0377 -3.0257
   55CHL1   C11 6510   4.556   1.365   9.662  0.2463  0.5410  0.3433
   55CHL1  H11A 6511   4.533   1.259   9.636  0.0247  0.9278 -1.1087
   55CHL1  H11B 6512   4.667   1.371   9.672  0.1532  1.0424  1.1139
   55CHL1    C9 6513   4.490   1.399   9.801 -0.1858  1.3297  0.4939
   55CHL1    H9 6514   4.515   1.505   9.822  0.0208  1.0009  1.9748
   55CHL1   C10 6515   4.544   1.309   9.912  0.2688  0.6620  0.1010
   55CHL1   C19 6516   4.543   1.165   9.877 -0.2637  0.2795  0.4654
   55CHL1  H19A 6517   4.609   1.104   9.943  1.0566 -2.3720 -2.9782
   55CHL1  H19B 6518   4.446   1.111   9.880  0.3199 -0.9323 -1.0161
   55CHL1  H19C 6519   4.584   1.136   9.777  0.1310  0.1484  0.6647
   55CHL1    C1 6520   4.695   1.346   9.937 -0.0449  0.1591 -1.4640
   55CHL1   H1A 6521   4.759   1.318   9.851 -0.2672  0.8385 -1.8508
   55CHL1   H1B 6522   4.697   1.457   9.940  0.8539  0.1490 -1.6882
   55CHL1    C2 6523   4.742   1.284  10.072 -0.0969 -0.1656 -0.8117
   55CHL1   H2A 6524   4.835   1.340  10.097 -1.2558  1.8102 -0.7859
   55CHL1   H2B 6525   4.754   1.174  10.082  0.2768  0.0567  1.7494
   55CHL1   C20 6526   4.299   1.537   9.291  0.0380 -0.4133  0.1277
   55CHL1   H20 6527   4.306   1.429   9.267 -1.6161 -0.4433 -0.3409
   55CHL1   C21 6528   4.434   1.597   9.235 -0.1520 -0.0470 -0.7797
   55CHL1  H21A 6529   4.447   1.579   9.126 -0.2822  0.5152 -0.8919
   55CHL1  H21B 6530   4.523   1.564   9.292 -0.1974 -0.2306 -0.8150
   55CHL1  H21C 6531   4.419   1.707   9.244 -0.2880 -0.2054  1.7495
   55CHL1   C22 6532   4.181   1.594   9.211  0.3929 -0.3989 -0.5622
   55CHL1  H22A 6533   4.086   1.572   9.264  0.8836  1.5232  1.2532
   55CHL1  H22B 6534   4.187   1.705   9.206 -0.5498 -0.2850  0.5570
   55CHL1   C23 6535   4.156   1.531   9.070 -0.3589 -0.2085 -0.3314
   55CHL1  H23A 6536   4.249   1.555   9.015 -0.9466 -2.4476 -2.5090
   55CHL1  H23B 6537   4.150   1.421   9.088  0.6018 -0.0457  1.1895
   55CHL1   C24 6538   4.041   1.587   8.989  0.0025 -0.0367 -0.3327
   55CHL1  H24A 6539   3.943   1.572   9.038 -0.3210  2.0852 -0.2471
   55CHL1  H24B 6540   4.050   1.697   8.992 -0.8640  0.0613 -1.1147
   55CHL1   C25 6541   4.035   1.543   8.844  0.6992 -0.1081 -0.3530
   55CHL1   H25 6542   4.138   1.555   8.806  0.7578 -0.4879 -0.3073
   55CHL1   C26 6543   3.982   1.402   8.830  0.4369 -0.0483  0.1184
   55CHL1  H26A 6544   4.053   1.335   8.883  0.9075  0.6641  0.4027
   55CHL1  H26B 6545   3.883   1.393   8.879  1.1024 -0.0375  1.5283
   55CHL1  H26C 6546   3.963   1.376   8.724 -0.4518  0.4876  0.1368
   55CHL1   C27 6547   3.948   1.646   8.763  1.3780  0.8207  0.4843
   55CHL1  H27A 6548   3.839   1.650   8.786  1.0874  0.4409 -0.7662
   55CHL1  H27B 6549   3.991   1.748   8.764  1.8671  0.6241 -0.0036
   55CHL1  H27C 6550   3.938   1.613   8.657 -1.2700 -0.7326  1.1096
   56CHL1    C3 6551   4.144   6.286  10.133 -0.2989 -0.7152  0.0139
   56CHL1    H3 6552   4.163   6.177  10.127 -0.8399 -0.7822 -0.5434
   56CHL1    O3 6553   4.129   6.324  10.267  0.1748 -0.0232  0.6996
   56CHL1   H3' 6554   4.050   6.377  10.281  0.3048  0.2438  0.4277
   56CHL1    C4 6555   4.266   6.359  10.078  0.2541  0.7566  0.6363
   56CHL1   H4A 6556   4.250   6.467  10.100  1.2776  0.5838  2.4277
   56CHL1   H4B 6557   4.355   6.328  10.138  0.8378  1.6425  0.2523
   56CHL1    C5 6558   4.274   6.334   9.927 -0.6170  0.9578  0.1910
   56CHL1    C6 6559   4.391   6.299   9.879  0.3759 -0.3273 -0.5691
   56CHL1    H6 6560   4.466   6.299   9.959 -1.1394  4.2230  1.2047
   56CHL1    C7 6561   4.419   6.277   9.732 -0.1479 -0.0616 -0.9720
   56CHL1   H7A 6562   4.514   6.331   9.709 -0.5072  0.1817 -1.9542
   56CHL1   H7B 6563   4.436   6.169   9.712  1.6802  0.0752 -0.3619
   56CHL1    C8 6564   4.318   6.340   9.643  0.8989 -0.9619  0.3590
   56CHL1    H8 6565   4.342   6.448   9.630 -2.9912 -0.0825 -0.6690
   56CHL1   C14 6566   4.310   6.276   9.507  0.0250 -0.0965 -0.1235
   56CHL1   H14 6567   4.288   6.171   9.537 -1.1008  0.3697  0.7550
   56CHL1   C15 6568   4.440   6.271   9.433  0.1103 -0.3054  0.0423
   56CHL1  H15A 6569   4.469   6.377   9.419 -0.2395 -0.1395  0.5278
   56CHL1  H15B 6570   4.521   6.216   9.486  2.2097  0.6151 -2.0660
   56CHL1   C16 6571   4.398   6.204   9.303 -0.6630 -0.0675  0.1637
   56CHL1  H16A 6572   4.461   6.260   9.231  0.1797  0.0593  0.9745
   56CHL1  H16B 6573   4.416   6.095   9.306 -0.3817 -0.0465 -0.6915
   56CHL1   C17 6574   4.253   6.220   9.289 -0.2353 -0.3227  0.5837
   56CHL1   H17 6575   4.202   6.123   9.308 -0.7719  0.0435  1.0329
   56CHL1   C13 6576   4.207   6.318   9.405  0.6072  0.6840  0.1151
   56CHL1   C18 6577   4.206   6.468   9.360 -0.2995  0.4747 -0.4270
   56CHL1  H18A 6578   4.205   6.543   9.442  0.4008  1.0698 -0.9436
   56CHL1  H18B 6579   4.295   6.484   9.295  0.0498  0.5013  0.0509
   56CHL1  H18C 6580   4.114   6.498   9.306  0.0934  1.0353 -0.8033
   56CHL1   C12 6581   4.072   6.300   9.467  0.3839 -0.2979 -0.4146
   56CHL1  H12A 6582   3.992   6.338   9.400  0.9725  0.3167 -0.7948
   56CHL1  H12B 6583   4.056   6.191   9.471 -2.3420  0.0774  0.5236
   56CHL1   C11 6584   4.064   6.363   9.608  0.0459  0.2940 -0.0314
   56CHL1  H11A 6585   4.072   6.474   9.609 -0.0163  0.2983 -0.0040
   56CHL1  H11B 6586   3.959   6.346   9.640  0.2632  1.1715  1.2355
   56CHL1    C9 6587   4.172   6.316   9.703 -0.1283  0.2254 -0.0493
   56CHL1    H9 6588   4.166   6.205   9.701  0.5383  0.1820  0.2164
   56CHL1   C10 6589   4.147   6.360   9.846 -1.1006 -0.5434 -0.2113
   56CHL1   C19 6590   4.133   6.523   9.857 -0.6716  0.8432  0.9024
   56CHL1  H19A 6591   4.038   6.561   9.814 -0.8788 -0.7411 -0.1524
   56CHL1  H19B 6592   4.127   6.557   9.963  1.9952  0.8173  1.1319
   56CHL1  H19C 6593   4.223   6.578   9.824  0.0535 -0.4543  0.6613
   56CHL1    C1 6594   4.017   6.294   9.911 -0.2510 -0.3323 -0.5491
   56CHL1   H1A 6595   3.928   6.342   9.866 -0.5733  1.7114  2.0100
   56CHL1   H1B 6596   4.015   6.184   9.897 -3.4509 -0.5114  0.4585
   56CHL1    C2 6597   4.006   6.315  10.063 -0.2684 -0.0940 -0.1828
   56CHL1   H2A 6598   3.933   6.240  10.102 -1.0708 -0.3400 -2.0653
   56CHL1   H2B 6599   3.976   6.419  10.087 -0.6085  0.5054 -2.8443
   56CHL1   C20 6600   4.215   6.254   9.138  0.4474 -0.3616 -0.6958
   56CHL1   H20 6601   4.237   6.361   9.120 -1.0544 -0.1544 -1.4659
   56CHL1   C21 6602   4.067   6.236   9.112 -0.3472  0.4061 -0.2464
   56CHL1  H21A 6603   4.003   6.307   9.168 -1.4971 -0.2668 -0.6774
   56CHL1  H21B 6604   4.045   6.134   9.152  0.6631 -0.2113 -1.1811
   56CHL1  H21C 6605   4.040   6.219   9.006 -0.5724 -1.1552  0.0287
   56CHL1   C22 6606   4.283   6.181   9.026 -0.5760 -0.0599 -0.3867
   56CHL1  H22A 6607   4.392   6.174   9.047 -0.6313 -2.1037 -0.6014
   56CHL1  H22B 6608   4.251   6.075   9.034  0.0453 -0.2052  0.3088
   56CHL1   C23 6609   4.274   6.255   8.889 -0.2861  0.4053 -0.3706
   56CHL1  H23A 6610   4.170   6.260   8.853  0.2206 -0.3238 -2.0141
   56CHL1  H23B 6611   4.310   6.358   8.911  2.0401 -0.1760 -1.1902
   56CHL1   C24 6612   4.377   6.190   8.792  0.6033 -0.3424 -0.0007
   56CHL1  H24A 6613   4.483   6.214   8.817 -0.3382  2.1440  2.1077
   56CHL1  H24B 6614   4.362   6.080   8.797 -0.8490 -0.2594 -1.7877
   56CHL1   C25 6615   4.367   6.249   8.651  0.5859  0.3244  0.3337
   56CHL1   H25 6616   4.262   6.227   8.621  1.0350 -0.3595 -0.7893
   56CHL1   C26 6617   4.384   6.401   8.641 -0.1411 -0.5243  0.4368
   56CHL1  H26A 6618   4.325   6.457   8.717 -0.0821  0.6613 -0.3806
   56CHL1  H26B 6619   4.492   6.419   8.658 -0.0893 -0.5741  0.1664
   56CHL1  H26C 6620   4.360   6.439   8.540  0.6435  0.1467  0.4976
   56CHL1   C27 6621   4.457   6.177   8.545 -0.0142  0.3589  0.0451
   56CHL1  H27A 6622   4.457   6.229   8.447 -0.6486  1.5102  0.6324
   56CHL1  H27B 6623   4.557   6.177   8.595 -0.4173  0.4689  0.8668
   56CHL1  H27C 6624   4.433   6.069   8.541 -1.7989  0.6871  0.9875
   57CHL1    C3 6625   5.484   2.796  10.156  0.4101 -0.7214  0.5171
   57CHL1    H3 6626   5.378   2.807  10.125  0.7832 -0.4393 -0.7154
   57CHL1    O3 6627   5.478   2.749  10.289 -0.0116  0.0533  0.4475
   57CHL1   H3' 6628   5.568   2.725  10.315  1.1709  2.2316 -1.3074
   57CHL1    C4 6629   5.556   2.702  10.066 -0.1446 -0.1483 -0.5972
   57CHL1   H4A 6630   5.656   2.685  10.112 -1.0939 -2.7062  0.7357
   57CHL1   H4B 6631   5.504   2.604  10.058 -0.9930  0.3370 -1.1374
   57CHL1    C5 6632   5.570   2.754   9.927 -0.1446  0.4650  0.3406
   57CHL1    C6 6633   5.522   2.688   9.819 -0.1104 -0.1764  0.3281
   57CHL1    H6 6634   5.473   2.592   9.842  1.7839 -1.9476 -2.3394
   57CHL1    C7 6635   5.529   2.728   9.678  0.1175 -0.6672  0.1925
   57CHL1   H7A 6636   5.561   2.645   9.611 -1.5792 -0.1223 -1.3751
   57CHL1   H7B 6637   5.426   2.759   9.654  0.3290  0.9252  1.2495
   57CHL1    C8 6638   5.629   2.841   9.659 -0.1326 -0.2395  0.4171
   57CHL1    H8 6639   5.738   2.824   9.666  0.3898  1.9886 -1.1616
   57CHL1   C14 6640   5.595   2.907   9.525 -0.4471 -0.4088  0.8536
   57CHL1   H14 6641   5.493   2.951   9.532 -0.4962 -0.6152  1.5278
   57CHL1   C15 6642   5.586   2.810   9.408 -0.0626 -0.4401  0.2557
   57CHL1  H15A 6643   5.678   2.751   9.386  0.4683  1.0215 -1.8102
   57CHL1  H15B 6644   5.493   2.750   9.405  0.8718 -1.9072 -2.0338
   57CHL1   C16 6645   5.581   2.910   9.292  0.7424 -0.3481  0.2909
   57CHL1  H16A 6646   5.644   2.883   9.204  0.0008  0.7318 -0.6117
   57CHL1  H16B 6647   5.477   2.915   9.250  0.3575 -1.4606  1.0794
   57CHL1   C17 6648   5.629   3.046   9.347 -0.5131  0.1000  0.0606
   57CHL1   H17 6649   5.531   3.097   9.360 -2.3247 -2.2850 -2.9356
   57CHL1   C13 6650   5.686   3.025   9.491  0.9139  0.7427 -0.7156
   57CHL1   C18 6651   5.833   2.982   9.475 -0.4353  0.4966 -0.1606
   57CHL1  H18A 6652   5.853   2.911   9.392 -0.6009 -0.8504  0.9263
   57CHL1  H18B 6653   5.905   3.066   9.460  1.2030 -1.1231 -1.9100
   57CHL1  H18C 6654   5.868   2.934   9.569  0.6813 -0.4729 -1.0307
   57CHL1   C12 6655   5.664   3.135   9.593 -0.4505 -0.5647 -0.2691
   57CHL1  H12A 6656   5.735   3.218   9.575 -0.2374  0.0678  2.9753
   57CHL1  H12B 6657   5.566   3.185   9.577  1.2376  3.2032  0.1489
   57CHL1   C11 6658   5.683   3.083   9.734  0.6071 -0.1079 -0.5914
   57CHL1  H11A 6659   5.791   3.060   9.744  1.0180  0.8823 -2.3118
   57CHL1  H11B 6660   5.670   3.165   9.808  1.6305  0.1386 -0.6751
   57CHL1    C9 6661   5.606   2.949   9.766  0.6964 -0.4770 -0.3578
   57CHL1    H9 6662   5.497   2.971   9.771  1.0133  1.1541  0.0179
   57CHL1   C10 6663   5.631   2.893   9.916  0.6235  0.1924  0.0585
   57CHL1   C19 6664   5.777   2.893   9.952  0.1189  0.3704 -0.1098
   57CHL1  H19A 6665   5.838   2.830   9.883  2.1599 -1.1312  2.8447
   57CHL1  H19B 6666   5.807   2.999   9.958  1.0069  0.1202 -0.0713
   57CHL1  H19C 6667   5.791   2.840  10.048 -2.4035 -0.9846 -0.3979
   57CHL1    C1 6668   5.558   2.990  10.016 -0.4879  0.0987  0.1654
   57CHL1   H1A 6669   5.613   3.085  10.002  1.7420 -1.3698 -1.8937
   57CHL1   H1B 6670   5.452   2.999   9.983 -0.4522 -0.4239 -0.1099
   57CHL1    C2 6671   5.553   2.928  10.159  0.3127 -0.5180 -0.4490
   57CHL1   H2A 6672   5.493   2.999  10.221 -0.8638 -2.0054  0.1789
   57CHL1   H2B 6673   5.655   2.925  10.203  0.7941  0.9744 -1.4035
   57CHL1   C20 6674   5.709   3.136   9.259  0.3442  0.1788 -0.0625
   57CHL1   H20 6675   5.817   3.109   9.267  0.2992  0.1279  0.3829
   57CHL1   C21 6676   5.695   3.284   9.300  0.1767  0.0603  0.0856
   57CHL1  H21A 6677   5.736   3.300   9.403 -0.3532  3.0536 -0.0853
   57CHL1  H21B 6678   5.590   3.318   9.308  0.5547  1.2514  0.2939
   57CHL1  H21C 6679   5.753   3.351   9.233 -0.3145 -1.3919 -1.8463
   57CHL1   C22 6680   5.669   3.122   9.107  0.0965  0.0784  0.5065
   57CHL1  H22A 6681   5.685   3.017   9.076  3.2794  0.5921  0.1376
   57CHL1  H22B 6682   5.563   3.156   9.111  0.4461  1.1779  0.7578
   57CHL1   C23 6683   5.745   3.190   8.996 -0.1836 -0.0221  0.4873
   57CHL1  H23A 6684   5.741   3.301   9.003 -0.0391  0.1077 -1.1762
   57CHL1  H23B 6685   5.852   3.163   8.993 -0.3667 -0.7621  0.4606
   57CHL1   C24 6686   5.685   3.152   8.859  0.1900 -0.2364 -0.7942
   57CHL1  H24A 6687   5.704   3.043   8.850 -2.1311 -0.7035 -0.6330
   57CHL1  H24B 6688   5.578   3.176   8.875  0.6364 -0.0162  2.5375
   57CHL1   C25 6689   5.753   3.233   8.742 -0.2594  0.4402  0.0625
   57CHL1   H25 6690   5.738   3.342   8.759 -0.6344  0.6208 -1.3403
   57CHL1   C26 6691   5.903   3.192   8.726  1.0399 -0.0500  0.1908
   57CHL1  H26A 6692   5.908   3.082   8.713  0.3455 -0.3133  1.9256
   57CHL1  H26B 6693   5.939   3.238   8.632  1.9185 -3.5217 -1.3181
   57CHL1  H26C 6694   5.956   3.219   8.820 -1.5922 -0.1545  1.8105
   57CHL1   C27 6695   5.678   3.206   8.612 -0.2860 -0.1144 -0.0595
   57CHL1  H27A 6696   5.571   3.239   8.609 -0.2528 -0.0354 -0.3710
   57CHL1  H27B 6697   5.722   3.258   8.524 -1.0360 -0.7188 -0.8089
   57CHL1  H27C 6698   5.687   3.098   8.589  1.4672 -0.3359  1.4468
   58CHL1    C3 6699   2.074   3.018  10.002 -0.0278  0.4771 -0.3244
   58CHL1    H3 6700   2.014   2.925   9.998  2.3987 -1.1755 -0.4814
   58CHL1    O3 6701   2.093   3.049  10.136 -0.2687  0.1867 -0.4076
   58CHL1   H3' 6702   2.056   3.136  10.156  1.1614  0.7861 -0.2669
   58CHL1    C4 6703   2.208   2.980   9.950  0.1162 -0.0274 -0.1702
   58CHL1   H4A 6704   2.270   3.070   9.972 -2.6805  2.2294 -0.9158
   58CHL1   H4B 6705   2.255   2.903  10.014  0.5295  0.4636  0.1278
   58CHL1    C5 6706   2.209   2.941   9.800 -0.2378  0.1954 -0.5293
   58CHL1    C6 6707   2.270   2.825   9.758  0.2642 -0.2644  0.0795
   58CHL1    H6 6708   2.323   2.761   9.830  0.5387  0.6339  0.6924
   58CHL1    C7 6709   2.276   2.795   9.612  0.2495 -1.0424 -0.3713
   58CHL1   H7A 6710   2.377   2.758   9.585 -0.1693 -1.4275 -1.4422
   58CHL1   H7B 6711   2.207   2.710   9.594 -1.9596  0.4410  0.6508
   58CHL1    C8 6712   2.231   2.915   9.523 -0.0832  0.2598  0.1568
   58CHL1    H8 6713   2.321   2.980   9.519 -0.0376  0.5895  3.4202
   58CHL1   C14 6714   2.200   2.858   9.394  0.6970 -0.1068 -0.4199
   58CHL1   H14 6715   2.107   2.797   9.403 -0.7412  1.7657 -1.8252
   58CHL1   C15 6716   2.298   2.772   9.315 -0.3109  0.0952 -0.2346
   58CHL1  H15A 6717   2.391   2.832   9.312 -0.3535  0.1451 -0.6308
   58CHL1  H15B 6718   2.317   2.670   9.354  0.3466 -0.1062 -1.0736
   58CHL1   C16 6719   2.257   2.783   9.172  0.0745  0.6348  0.1708
   58CHL1  H16A 6720   2.345   2.821   9.116  0.0731  0.3879 -0.0014
   58CHL1  H16B 6721   2.242   2.681   9.132  4.1799 -0.1158  0.1570
   58CHL1   C17 6722   2.140   2.880   9.167  1.1146 -0.2562 -0.0966
   58CHL1   H17 6723   2.049   2.823   9.195  0.2751  1.6060  1.2161
   58CHL1   C13 6724   2.150   2.968   9.296  0.7781  0.6137 -0.5433
   58CHL1   C18 6725   2.259   3.071   9.267 -0.4266 -0.0231  0.1069
   58CHL1  H18A 6726   2.285   3.143   9.348  1.4357  0.6167 -0.9963
   58CHL1  H18B 6727   2.353   3.022   9.234 -0.9766 -0.2251 -1.1908
   58CHL1  H18C 6728   2.232   3.144   9.188  3.0035  0.7843 -0.4855
   58CHL1   C12 6729   2.017   3.030   9.339  0.5676 -0.1159 -0.0127
   58CHL1  H12A 6730   1.992   3.115   9.273  3.9601  1.4125  0.4910
   58CHL1  H12B 6731   1.937   2.952   9.339 -0.7963  1.1955 -1.7976
   58CHL1   C11 6732   2.041   3.084   9.479  0.1798  0.3486 -0.5660
   58CHL1  H11A 6733   2.103   3.176   9.470  0.1018  0.6903  1.8027
   58CHL1  H11B 6734   1.942   3.116   9.519  1.2605  2.7938  0.3520
   58CHL1    C9 6735   2.111   2.990   9.579  0.3365 -0.2772  0.3446
   58CHL1    H9 6736   2.032   2.913   9.594  1.5819 -1.6568  0.0687
   58CHL1   C10 6737   2.138   3.048   9.716 -0.3126  0.1980  0.1148
   58CHL1   C19 6738   2.234   3.171   9.697  0.3030  0.4442 -0.2268
   58CHL1  H19A 6739   2.262   3.202   9.800  1.9443  0.9683 -0.8005
   58CHL1  H19B 6740   2.331   3.153   9.646 -1.0159  0.6118 -2.9897
   58CHL1  H19C 6741   2.189   3.258   9.646 -0.5517 -0.1412 -0.5008
   58CHL1    C1 6742   2.005   3.097   9.771 -0.3101  0.3659 -0.5413
   58CHL1   H1A 6743   1.960   3.184   9.717 -0.6703  0.1781 -0.5470
   58CHL1   H1B 6744   1.928   3.017   9.772  0.5251 -0.4494  0.3569
   58CHL1    C2 6745   2.008   3.133   9.921 -0.1032  0.1055  0.5140
   58CHL1   H2A 6746   1.901   3.150   9.949 -0.4950 -1.2199 -0.0848
   58CHL1   H2B 6747   2.069   3.226   9.929 -0.0945  0.3121 -1.4987
   58CHL1   C20 6748   2.105   2.951   9.035  0.0773 -0.1695  0.1750
   58CHL1   H20 6749   2.072   3.053   9.065 -0.4467 -0.7776  1.7714
   58CHL1   C21 6750   1.984   2.875   8.982  0.0102 -0.1413  0.1916
   58CHL1  H21A 6751   1.944   2.916   8.887 -2.7160 -0.0269  1.2929
   58CHL1  H21B 6752   1.893   2.886   9.045  0.4188  0.5792  0.6642
   58CHL1  H21C 6753   2.017   2.770   8.967 -2.1144 -1.2424  2.4553
   58CHL1   C22 6754   2.221   2.954   8.936 -0.1678 -1.0878  0.3229
   58CHL1  H22A 6755   2.323   2.965   8.979 -1.0939 -1.7743  2.9181
   58CHL1  H22B 6756   2.226   2.857   8.881 -1.0903  0.1409 -2.0525
   58CHL1   C23 6757   2.185   3.063   8.824 -0.2201  0.0476 -0.0725
   58CHL1  H23A 6758   2.111   3.006   8.765 -1.3830  0.0402  1.3417
   58CHL1  H23B 6759   2.139   3.153   8.871 -1.1941 -0.5235  0.0761
   58CHL1   C24 6760   2.301   3.103   8.735 -0.2060 -0.7547 -0.0837
   58CHL1  H24A 6761   2.382   3.128   8.807 -1.1556  1.8943  0.1806
   58CHL1  H24B 6762   2.332   3.025   8.662 -0.7858  0.7419 -2.0380
   58CHL1   C25 6763   2.273   3.233   8.655 -0.7436 -0.2631  0.4704
   58CHL1   H25 6764   2.277   3.317   8.728 -1.1923  0.1235  0.0579
   58CHL1   C26 6765   2.390   3.253   8.559  0.1748 -0.1711 -0.8014
   58CHL1  H26A 6766   2.475   3.266   8.630 -0.3294  0.3754 -0.2874
   58CHL1  H26B 6767   2.401   3.185   8.472  1.2624  3.4120 -3.7479
   58CHL1  H26C 6768   2.361   3.352   8.518 -2.5165  0.4756  2.2568
   58CHL1   C27 6769   2.143   3.232   8.574  0.2381  0.1901 -0.0129
   58CHL1  H27A 6770   2.134   3.330   8.524 -1.0781  0.2543  0.3082
   58CHL1  H27B 6771   2.112   3.140   8.519  0.9422  0.2634 -0.5415
   58CHL1  H27C 6772   2.052   3.234   8.638 -0.7749  2.8188 -1.3970
   59CHL1    C3 6773   0.923   1.821  10.208 -0.0471 -1.0115  0.6765
   59CHL1    H3 6774   0.881   1.919  10.177 -1.1487 -2.1189 -1.5331
   59CHL1    O3 6775   0.910   1.799  10.348  0.2628 -0.5033  1.2621
   59CHL1   H3' 6776   0.825   1.831  10.381 -0.9509 -0.4307 -1.6622
   59CHL1    C4 6777   0.841   1.710  10.139 -0.5232 -0.3524 -0.2012
   59CHL1   H4A 6778   0.880   1.617  10.186  2.2857  0.0842 -1.4579
   59CHL1   H4B 6779   0.736   1.724  10.173 -0.8971  0.1309 -1.4941
   59CHL1    C5 6780   0.849   1.714   9.983 -0.3940 -0.4153  0.4013
   59CHL1    C6 6781   0.738   1.734   9.911 -0.4970 -0.1339 -0.6462
   59CHL1    H6 6782   0.640   1.740   9.961 -0.2541 -1.2222  0.0080
   59CHL1    C7 6783   0.731   1.742   9.760 -0.1603  0.6998 -0.3234
   59CHL1   H7A 6784   0.657   1.667   9.725  1.7752 -2.0692  1.1794
   59CHL1   H7B 6785   0.676   1.833   9.728  1.7391  1.0085 -3.1760
   59CHL1    C8 6786   0.861   1.727   9.696 -0.4470  0.2507  0.4042
   59CHL1    H8 6787   0.882   1.618   9.686 -0.4567  0.3982 -1.6332
   59CHL1   C14 6788   0.858   1.791   9.560  0.1622 -0.6263  0.2859
   59CHL1   H14 6789   0.862   1.898   9.593 -1.3798 -0.3885 -0.1934
   59CHL1   C15 6790   0.745   1.766   9.465  0.0605  0.1438  0.8901
   59CHL1  H15A 6791   0.742   1.658   9.442  2.0362  0.4499 -1.2013
   59CHL1  H15B 6792   0.652   1.810   9.508 -0.0466  0.0128  0.7914
   59CHL1   C16 6793   0.784   1.838   9.334 -0.0360 -0.5015 -0.5129
   59CHL1  H16A 6794   0.757   1.770   9.250  1.3024 -2.9777  0.9384
   59CHL1  H16B 6795   0.733   1.936   9.324 -0.3425 -0.6841 -0.7566
   59CHL1   C17 6796   0.940   1.856   9.344 -0.0970  0.9440 -0.5111
   59CHL1   H17 6797   0.970   1.962   9.357  0.8362  0.6414 -0.0465
   59CHL1   C13 6798   0.982   1.783   9.476  0.1628  0.4261 -0.4150
   59CHL1   C18 6799   1.015   1.634   9.449 -0.5214 -0.1932  0.1814
   59CHL1  H18A 6800   1.109   1.624   9.390 -0.9658 -0.0923 -0.5639
   59CHL1  H18B 6801   1.022   1.575   9.542 -1.1719  1.3871  1.2620
   59CHL1  H18C 6802   0.932   1.584   9.394 -1.1143 -0.9395  1.7125
   59CHL1   C12 6803   1.099   1.856   9.563  0.3126  0.0527  0.5099
   59CHL1  H12A 6804   1.196   1.848   9.508 -0.3943  1.1258 -0.9643
   59CHL1  H12B 6805   1.078   1.965   9.561 -2.3412 -0.2685  3.4924
   59CHL1   C11 6806   1.109   1.801   9.705  0.4511 -0.2787  0.0342
   59CHL1  H11A 6807   1.150   1.699   9.691  0.9649 -0.2892  1.4417
   59CHL1  H11B 6808   1.178   1.857   9.771  0.7381 -2.2864  1.5366
   59CHL1    C9 6809   0.977   1.795   9.784 -0.1898 -0.3899  0.0564
   59CHL1    H9 6810   0.953   1.903   9.795  2.3961  0.5902 -2.5773
   59CHL1   C10 6811   0.994   1.734   9.928 -0.0406  0.1400  0.3880
   59CHL1   C19 6812   1.056   1.593   9.933 -0.7350  0.2429 -0.0533
   59CHL1  H19A 6813   1.008   1.516   9.868  0.1535 -1.4572  1.2157
   59CHL1  H19B 6814   1.163   1.592   9.906 -1.0714 -1.6256 -1.5056
   59CHL1  H19C 6815   1.051   1.562  10.040 -0.0246  4.3667  1.3467
   59CHL1    C1 6816   1.074   1.837  10.014  0.1573  0.2519 -0.1538
   59CHL1   H1A 6817   1.179   1.844   9.979  0.5095  0.8980  0.9955
   59CHL1   H1B 6818   1.016   1.929   9.989  1.1070  0.5939 -1.1927
   59CHL1    C2 6819   1.072   1.821  10.167  0.2820 -0.7562  0.3401
   59CHL1   H2A 6820   1.116   1.901  10.229 -1.9994  0.4655  0.4842
   59CHL1   H2B 6821   1.128   1.730  10.196 -0.5743 -1.4480 -0.1318
   59CHL1   C20 6822   1.021   1.817   9.213  0.7893  0.4568  0.3049
   59CHL1   H20 6823   1.007   1.709   9.188 -2.3251  1.5853 -3.9708
   59CHL1   C21 6824   1.172   1.851   9.232  0.2670 -0.0750  0.1625
   59CHL1  H21A 6825   1.221   1.849   9.133 -2.8093  0.3728 -1.5009
   59CHL1  H21B 6826   1.219   1.783   9.306 -1.4509 -0.7648  0.6718
   59CHL1  H21C 6827   1.175   1.954   9.274 -2.4284  0.6957 -1.3226
   59CHL1   C22 6828   0.955   1.884   9.090 -0.5154 -0.4718  0.1074
   59CHL1  H22A 6829   0.844   1.881   9.088 -0.6925  1.3906  2.0366
   59CHL1  H22B 6830   0.964   1.994   9.103 -2.2431 -0.2436 -0.4419
   59CHL1   C23 6831   1.004   1.815   8.967 -0.3811  0.5188 -0.0001
   59CHL1  H23A 6832   1.114   1.802   8.958 -0.1206  2.0205  0.7271
   59CHL1  H23B 6833   0.969   1.711   8.979 -0.7500  0.8330  2.0842
   59CHL1   C24 6834   0.954   1.876   8.836  0.0421 -0.1672 -0.6508
   59CHL1  H24A 6835   0.848   1.910   8.837  0.0214  0.1477 -3.6905
   59CHL1  H24B 6836   1.019   1.965   8.821  1.8878 -1.1153  1.2646
   59CHL1   C25 6837   0.982   1.782   8.723 -0.0081  0.1675 -0.4425
   59CHL1   H25 6838   0.955   1.680   8.758 -0.7848  0.7500  0.7207
   59CHL1   C26 6839   0.882   1.803   8.605  0.5918 -0.5267 -0.1829
   59CHL1  H26A 6840   0.780   1.773   8.636  0.8700 -1.8747 -0.5117
   59CHL1  H26B 6841   0.881   1.903   8.557 -0.6176 -1.3839 -2.0897
   59CHL1  H26C 6842   0.907   1.726   8.528 -1.8447 -0.6465 -0.9401
   59CHL1   C27 6843   1.127   1.791   8.678 -0.8083 -1.0561  0.1613
   59CHL1  H27A 6844   1.185   1.751   8.763  0.2919  0.2109  0.0480
   59CHL1  H27B 6845   1.143   1.735   8.583  3.0439  0.0753 -0.0238
   59CHL1  H27C 6846   1.162   1.896   8.663 -0.1104 -1.1202  1.2738
   60CHL1    C3 6847   1.279   2.685  10.221 -0.1543  0.3931  0.1775
   60CHL1    H3 6848   1.246   2.580  10.204 -0.8635  0.8175 -1.1649
   60CHL1    O3 6849   1.335   2.719  10.350 -0.1594  0.4838 -0.2044
   60CHL1   H3' 6850   1.311   2.810  10.371  1.7415  0.7678  0.9594
   60CHL1    C4 6851   1.386   2.729  10.112  0.0786  0.0928  0.0974
   60CHL1   H4A 6852   1.428   2.831  10.127  1.0211 -0.5539  2.3312
   60CHL1   H4B 6853   1.479   2.675  10.142  1.0488  0.9829 -1.1923
   60CHL1    C5 6854   1.329   2.710   9.976  0.0561 -0.0463 -0.2022
   60CHL1    C6 6855   1.402   2.640   9.885 -0.3368  0.3972  0.1899
   60CHL1    H6 6856   1.500   2.602   9.915 -0.6087 -0.2400  0.2881
   60CHL1    C7 6857   1.352   2.616   9.746 -0.7971  0.0906 -0.4383
   60CHL1   H7A 6858   1.437   2.622   9.674 -1.6628  0.2632 -1.4694
   60CHL1   H7B 6859   1.299   2.518   9.750  1.5931 -1.2561  0.3339
   60CHL1    C8 6860   1.245   2.720   9.691  0.1868 -0.3674  0.6597
   60CHL1    H8 6861   1.289   2.818   9.664 -1.5532  0.2573 -0.0516
   60CHL1   C14 6862   1.180   2.663   9.565  0.9960 -0.1728 -0.3276
   60CHL1   H14 6863   1.122   2.579   9.610  0.5803  0.3164  0.0675
   60CHL1   C15 6864   1.266   2.607   9.455  0.4672 -0.4145  0.4082
   60CHL1  H15A 6865   1.354   2.673   9.438  0.0072  0.2668  0.6608
   60CHL1  H15B 6866   1.294   2.501   9.473  0.1824 -0.5250  0.2034
   60CHL1   C16 6867   1.174   2.617   9.334  0.6258 -0.4253  0.1760
   60CHL1  H16A 6868   1.227   2.681   9.260 -0.4149  0.2212 -0.0455
   60CHL1  H16B 6869   1.158   2.516   9.290  0.0324 -1.5787  2.8612
   60CHL1   C17 6870   1.040   2.689   9.380 -0.5206  0.2811 -0.8406
   60CHL1   H17 6871   0.968   2.611   9.412 -0.3380  1.1372  1.8527
   60CHL1   C13 6872   1.080   2.769   9.508 -0.3190  0.0739  0.1697
   60CHL1   C18 6873   1.143   2.905   9.472  0.4416 -0.2867 -0.3488
   60CHL1  H18A 6874   1.163   2.971   9.559 -1.7345 -1.7548  1.3932
   60CHL1  H18B 6875   1.239   2.882   9.421  0.6968  2.1265 -1.0666
   60CHL1  H18C 6876   1.068   2.970   9.422  1.7481  1.0367 -0.6443
   60CHL1   C12 6877   0.967   2.786   9.612 -0.3132  0.5406  0.2004
   60CHL1  H12A 6878   0.892   2.866   9.592  1.0935  2.3553  1.7177
   60CHL1  H12B 6879   0.906   2.695   9.629  1.6674 -0.7712  0.6604
   60CHL1   C11 6880   1.024   2.826   9.753 -0.1358 -0.7934  0.3035
   60CHL1  H11A 6881   1.064   2.929   9.740 -1.9866  0.2061  1.9997
   60CHL1  H11B 6882   0.943   2.823   9.829 -0.8830 -2.6859 -0.5133
   60CHL1    C9 6883   1.137   2.732   9.801  0.0548 -0.6951 -0.0836
   60CHL1    H9 6884   1.095   2.630   9.814  1.8519 -1.7454 -1.8189
   60CHL1   C10 6885   1.194   2.776   9.941  0.6442  0.2326  0.0198
   60CHL1   C19 6886   1.215   2.931   9.941 -0.5701  0.3131  0.1689
   60CHL1  H19A 6887   1.254   2.980  10.032 -0.2776  0.6011 -0.1102
   60CHL1  H19B 6888   1.278   2.965   9.856  0.7830  2.3625  1.9005
   60CHL1  H19C 6889   1.116   2.981   9.945 -0.2596  0.8703  2.6681
   60CHL1    C1 6890   1.099   2.745  10.058 -0.2220  0.3533 -0.1852
   60CHL1   H1A 6891   1.013   2.814  10.049  0.2218  0.7827 -1.2987
   60CHL1   H1B 6892   1.068   2.639  10.049  0.6227  0.2498 -2.9188
   60CHL1    C2 6893   1.162   2.770  10.196 -0.3605  0.3299 -0.0861
   60CHL1   H2A 6894   1.079   2.750  10.267 -1.9822  0.6930 -1.7797
   60CHL1   H2B 6895   1.182   2.879  10.202  0.5890  0.1780 -0.2870
   60CHL1   C20 6896   0.978   2.761   9.262 -0.2272 -0.6332 -0.4461
   60CHL1   H20 6897   1.033   2.853   9.234 -1.0834 -0.2093 -0.7555
   60CHL1   C21 6898   0.835   2.796   9.303  0.1333 -0.2566  0.3306
   60CHL1  H21A 6899   0.778   2.702   9.319 -3.0425  1.3905 -0.2574
   60CHL1  H21B 6900   0.779   2.856   9.227 -3.4080 -0.2191  2.7398
   60CHL1  H21C 6901   0.820   2.861   9.392 -0.1956  1.7754 -1.1193
   60CHL1   C22 6902   0.978   2.666   9.136  0.2570  0.4308  0.3659
   60CHL1  H22A 6903   1.076   2.658   9.085  0.3139 -0.1372  0.5526
   60CHL1  H22B 6904   0.951   2.568   9.181 -1.0272  0.0293 -1.1831
   60CHL1   C23 6905   0.875   2.692   9.024 -0.3692  0.1994 -0.1309
   60CHL1  H23A 6906   0.773   2.678   9.067  0.6762 -0.9842  2.1729
   60CHL1  H23B 6907   0.885   2.789   8.972  2.0096 -0.7604 -1.5919
   60CHL1   C24 6908   0.881   2.587   8.907 -0.1506  0.5840 -0.3695
   60CHL1  H24A 6909   0.983   2.560   8.871 -0.5102 -0.6359 -0.5168
   60CHL1  H24B 6910   0.840   2.493   8.949 -2.1587  2.0234  1.0688
   60CHL1   C25 6911   0.789   2.608   8.785 -0.6091 -0.5054  0.0702
   60CHL1   H25 6912   0.688   2.609   8.831 -0.6085 -3.0947  0.2853
   60CHL1   C26 6913   0.818   2.737   8.707  0.0950  0.1589 -0.3479
   60CHL1  H26A 6914   0.921   2.740   8.663  1.0025  0.0983  1.6726
   60CHL1  H26B 6915   0.740   2.739   8.628 -2.6058 -0.1078  2.1952
   60CHL1  H26C 6916   0.802   2.830   8.765 -0.4127 -1.0783  1.5832
   60CHL1   C27 6917   0.803   2.502   8.678  0.4607  0.4326  0.9614
   60CHL1  H27A 6918   0.728   2.510   8.597 -0.2932 -1.0033  1.4728
   60CHL1  H27B 6919   0.900   2.513   8.624 -0.9786 -1.6448 -2.4150
   60CHL1  H27C 6920   0.813   2.397   8.713  1.6789  0.1097 -0.2551
   61CHL1    C3 6921   6.032   1.420  10.306 -0.8247 -0.5332  0.5886
   61CHL1    H3 6922   5.955   1.493  10.275  1.6962  1.2125 -2.1051
   61CHL1    O3 6923   6.041   1.403  10.443  0.0286  0.0617  0.2373
   61CHL1   H3' 6924   6.096   1.326  10.462 -0.6654 -0.1825  1.3517
   61CHL1    C4 6925   5.980   1.289  10.240  0.6299  0.3555 -0.7045
   61CHL1   H4A 6926   6.035   1.207  10.290  0.8095  0.5800 -0.5289
   61CHL1   H4B 6927   5.874   1.279  10.271  0.3332  0.5857 -1.6305
   61CHL1    C5 6928   5.996   1.276  10.091 -0.0589  0.0628  0.8474
   61CHL1    C6 6929   5.887   1.240  10.012  0.1155 -0.0899 -0.2772
   61CHL1    H6 6930   5.787   1.216  10.052  0.7480 -0.4303  1.1693
   61CHL1    C7 6931   5.897   1.226   9.865  0.1320  0.6068  0.5517
   61CHL1   H7A 6932   5.857   1.127   9.833 -1.4066  1.7308 -1.2011
   61CHL1   H7B 6933   5.827   1.292   9.809 -0.1449 -0.2577 -0.1370
   61CHL1    C8 6934   6.044   1.227   9.818 -0.3551 -0.5985  0.7734
   61CHL1    H8 6935   6.085   1.125   9.832  0.6455 -0.2582  0.4112
   61CHL1   C14 6936   6.044   1.258   9.665  0.1490  0.0689  0.6099
   61CHL1   H14 6937   6.002   1.361   9.669 -1.3524 -0.4405 -0.7296
   61CHL1   C15 6938   5.944   1.192   9.571 -0.0964 -0.8224 -0.4127
   61CHL1  H15A 6939   5.932   1.085   9.598  2.7100 -1.3556 -0.9821
   61CHL1  H15B 6940   5.847   1.246   9.579  1.0583  1.5733 -1.4330
   61CHL1   C16 6941   6.010   1.226   9.432 -0.6347  0.5566 -0.4193
   61CHL1  H16A 6942   6.038   1.131   9.382  0.6284  0.6602  0.0496
   61CHL1  H16B 6943   5.928   1.277   9.378 -1.9137  1.5866  2.3209
   61CHL1   C17 6944   6.130   1.318   9.450  0.0383 -0.7322 -0.3352
   61CHL1   H17 6945   6.099   1.424   9.448  0.5175 -0.5312  1.4714
   61CHL1   C13 6946   6.178   1.278   9.591  0.1410  0.0830 -0.1707
   61CHL1   C18 6947   6.251   1.136   9.572  0.4387 -0.0853  0.2461
   61CHL1  H18A 6948   6.360   1.152   9.558  0.0274  2.3050 -0.6847
   61CHL1  H18B 6949   6.246   1.076   9.665 -1.1066 -0.5996 -0.1448
   61CHL1  H18C 6950   6.201   1.074   9.495  2.5438 -1.0398 -0.4106
   61CHL1   C12 6951   6.262   1.377   9.676 -0.0924  0.1213  0.0751
   61CHL1  H12A 6952   6.363   1.378   9.629 -0.6875 -0.7572 -1.2736
   61CHL1  H12B 6953   6.214   1.473   9.646 -0.1532  0.2020  0.4319
   61CHL1   C11 6954   6.273   1.354   9.827  0.0624 -0.1233  0.2881
   61CHL1  H11A 6955   6.321   1.254   9.834 -2.1851 -1.4257 -1.2193
   61CHL1  H11B 6956   6.333   1.430   9.881 -2.0585  0.1187  2.4997
   61CHL1    C9 6957   6.125   1.338   9.886  0.7141 -0.3715 -0.1431
   61CHL1    H9 6958   6.079   1.435   9.857  1.7617  0.0914 -0.3109
   61CHL1   C10 6959   6.130   1.326  10.038 -0.0075  0.8344 -0.0025
   61CHL1   C19 6960   6.231   1.213  10.086 -0.4582  0.3762  0.0451
   61CHL1  H19A 6961   6.238   1.208  10.197 -0.0286  1.6789  0.0891
   61CHL1  H19B 6962   6.211   1.115  10.037  0.3723 -0.0333  0.5030
   61CHL1  H19C 6963   6.332   1.237  10.047  0.5145  0.1796  2.3251
   61CHL1    C1 6964   6.163   1.473  10.094  0.5435  0.5123 -0.3545
   61CHL1   H1A 6965   6.264   1.503  10.058 -0.1903  1.1315 -2.0414
   61CHL1   H1B 6966   6.089   1.547  10.057 -0.2806 -0.6275 -1.0525
   61CHL1    C2 6967   6.167   1.473  10.254  0.0121 -0.0869 -0.1617
   61CHL1   H2A 6968   6.168   1.579  10.288 -0.8998 -0.4434  1.0413
   61CHL1   H2B 6969   6.262   1.431  10.294 -0.2416  1.5450  2.3796
   61CHL1   C20 6970   6.233   1.313   9.334 -0.4177 -0.3957 -0.0273
   61CHL1   H20 6971   6.295   1.220   9.336 -0.1466 -0.3949 -3.0197
   61CHL1   C21 6972   6.335   1.430   9.342  0.2135 -0.2154  0.1058
   61CHL1  H21A 6973   6.412   1.417   9.263 -0.7936 -1.2149 -0.7313
   61CHL1  H21B 6974   6.388   1.451   9.438 -1.9212  2.3976  0.8243
   61CHL1  H21C 6975   6.280   1.524   9.321 -0.4206 -0.8496 -1.1450
   61CHL1   C22 6976   6.163   1.315   9.197  0.2462 -0.0550  0.5773
   61CHL1  H22A 6977   6.233   1.325   9.111 -2.9102 -1.8590 -2.4548
   61CHL1  H22B 6978   6.113   1.216   9.189 -0.4694  0.3875 -0.7122
   61CHL1   C23 6979   6.063   1.421   9.174  0.5068 -0.4839  0.2473
   61CHL1  H23A 6980   5.993   1.428   9.260  1.3191 -1.6120  1.0353
   61CHL1  H23B 6981   6.113   1.520   9.166  2.1990 -1.3781 -0.7288
   61CHL1   C24 6982   5.971   1.405   9.052  0.4803  0.2865 -0.5020
   61CHL1  H24A 6983   6.033   1.387   8.962 -0.0943 -0.9639 -0.6710
   61CHL1  H24B 6984   5.909   1.313   9.061  0.6392  0.2015 -0.2673
   61CHL1   C25 6985   5.873   1.521   9.014 -0.5582  0.4013 -0.7819
   61CHL1   H25 6986   5.811   1.551   9.102 -0.5149  1.3209 -1.0519
   61CHL1   C26 6987   5.942   1.655   8.978  0.5008 -0.4461  0.1981
   61CHL1  H26A 6988   5.870   1.736   8.952  1.8702  0.7255 -0.0739
   61CHL1  H26B 6989   5.986   1.701   9.069  2.7242 -0.4684 -0.7846
   61CHL1  H26C 6990   6.020   1.659   8.899 -0.3404  0.6786 -0.6098
   61CHL1   C27 6991   5.778   1.488   8.901  1.0896 -0.4067  0.7404
   61CHL1  H27A 6992   5.703   1.413   8.932  2.2456 -2.0239 -0.2239
   61CHL1  H27B 6993   5.737   1.578   8.850  0.3282 -1.6619 -0.9862
   61CHL1  H27C 6994   5.840   1.449   8.817  0.2898 -0.4163  0.1334
   62CHL1    C3 6995   4.759   2.831   9.850  0.0152 -0.7690  0.6694
   62CHL1    H3 6996   4.868   2.835   9.834  0.1807  2.8283  1.6157
   62CHL1    O3 6997   4.737   2.833   9.990 -0.3516 -0.1857  0.0013
   62CHL1   H3' 6998   4.709   2.743  10.008 -0.8673  0.1053  0.7193
   62CHL1    C4 6999   4.708   2.962   9.791  0.1939  0.2333 -0.0997
   62CHL1   H4A 7000   4.606   2.975   9.831  0.8991 -0.3044  2.0212
   62CHL1   H4B 7001   4.761   3.045   9.843  0.3143  0.1443 -0.0801
   62CHL1    C5 7002   4.720   2.966   9.636 -0.5159 -0.4370 -0.3904
   62CHL1    C6 7003   4.785   3.067   9.574 -0.3633 -0.6615  0.1298
   62CHL1    H6 7004   4.846   3.142   9.628  2.0703 -0.1097 -3.0653
   62CHL1    C7 7005   4.794   3.084   9.426  0.2764 -0.5759 -0.4394
   62CHL1   H7A 7006   4.771   3.192   9.409 -3.1082 -0.7400  2.1253
   62CHL1   H7B 7007   4.897   3.076   9.385  1.6386  1.8792  2.1075
   62CHL1    C8 7008   4.698   2.992   9.339 -0.0990 -1.0107  0.3809
   62CHL1    H8 7009   4.600   3.040   9.361  1.0343  1.3113  0.7865
   62CHL1   C14 7010   4.741   2.977   9.189  0.0385  0.1041  0.7610
   62CHL1   H14 7011   4.837   2.922   9.186 -0.4474 -0.7669 -2.7746
   62CHL1   C15 7012   4.769   3.105   9.114 -0.7153  0.1113  0.2275
   62CHL1  H15A 7013   4.689   3.178   9.136 -1.8628 -0.6372 -1.3185
   62CHL1  H15B 7014   4.872   3.144   9.134 -1.1224  0.9493  0.7667
   62CHL1   C16 7015   4.748   3.071   8.968  0.5045  0.5124  1.1850
   62CHL1  H16A 7016   4.678   3.134   8.909 -0.6997 -2.0412 -0.3262
   62CHL1  H16B 7017   4.845   3.088   8.917 -0.9099 -0.0556 -1.8942
   62CHL1   C17 7018   4.718   2.921   8.967  0.2519  0.3820  0.0064
   62CHL1   H17 7019   4.815   2.869   8.980 -0.5229 -0.7128  1.9801
   62CHL1   C13 7020   4.645   2.900   9.104 -0.0328 -0.0584  0.4490
   62CHL1   C18 7021   4.509   2.975   9.094 -0.1941  0.1991 -0.2686
   62CHL1  H18A 7022   4.519   3.081   9.062 -1.1257  0.6865  0.9323
   62CHL1  H18B 7023   4.440   2.922   9.026 -1.9775  0.8232  0.9692
   62CHL1  H18C 7024   4.460   2.980   9.194 -0.6435 -2.7361 -0.2563
   62CHL1   C12 7025   4.630   2.764   9.161  0.1606  0.7054 -0.2761
   62CHL1  H12A 7026   4.537   2.722   9.117  2.1357 -0.4705 -3.7072
   62CHL1  H12B 7027   4.721   2.701   9.152  0.5033  0.7731  1.9641
   62CHL1   C11 7028   4.588   2.775   9.313  0.3508  0.5627  0.5397
   62CHL1  H11A 7029   4.487   2.817   9.329 -0.0214 -0.5130  1.1290
   62CHL1  H11B 7030   4.576   2.672   9.354  2.2894 -0.4202 -1.1360
   62CHL1    C9 7031   4.683   2.857   9.405  0.6269 -0.2165 -0.3680
   62CHL1    H9 7032   4.784   2.816   9.382  0.9155  1.2263 -1.8598
   62CHL1   C10 7033   4.657   2.854   9.560 -0.4930 -0.4742 -0.5956
   62CHL1   C19 7034   4.505   2.864   9.576 -0.7168  0.5149  0.2378
   62CHL1  H19A 7035   4.480   2.858   9.684  1.6855 -0.0961  0.8200
   62CHL1  H19B 7036   4.447   2.952   9.539  0.9565  1.2455 -0.7917
   62CHL1  H19C 7037   4.460   2.774   9.529  1.2860 -0.4722  0.1215
   62CHL1    C1 7038   4.710   2.725   9.629 -0.2080  0.3937  0.1462
   62CHL1   H1A 7039   4.647   2.645   9.585 -1.8530  1.4940  0.4113
   62CHL1   H1B 7040   4.814   2.709   9.594 -0.5034 -4.3954  0.8219
   62CHL1    C2 7041   4.697   2.713   9.777 -0.1518 -0.4415 -0.5667
   62CHL1   H2A 7042   4.737   2.621   9.825 -3.1411 -0.8406  1.4771
   62CHL1   H2B 7043   4.590   2.704   9.806  0.1489 -0.3964  0.6133
   62CHL1   C20 7044   4.654   2.882   8.831 -0.7115  0.6607  0.1592
   62CHL1   H20 7045   4.561   2.940   8.815 -1.3632 -0.5445 -0.5619
   62CHL1   C21 7046   4.612   2.737   8.822 -0.0350 -0.3685 -0.8388
   62CHL1  H21A 7047   4.531   2.723   8.896 -0.4471 -1.1185 -1.4199
   62CHL1  H21B 7048   4.690   2.669   8.860 -0.3592 -0.2558  0.0387
   62CHL1  H21C 7049   4.576   2.704   8.722 -2.3896 -2.1778  0.5195
   62CHL1   C22 7050   4.741   2.929   8.712 -0.0086 -0.6733  0.5336
   62CHL1  H22A 7051   4.697   2.892   8.617  0.8486 -1.1901  0.3273
   62CHL1  H22B 7052   4.733   3.040   8.702  0.8578 -0.2968  3.1158
   62CHL1   C23 7053   4.896   2.888   8.728 -0.6620 -1.3015 -0.1280
   62CHL1  H23A 7054   4.939   2.963   8.798 -1.9301 -0.6795  0.0211
   62CHL1  H23B 7055   4.909   2.784   8.764 -0.2462 -1.4573 -0.7151
   62CHL1   C24 7056   4.964   2.894   8.585  0.3248  0.2635 -0.0965
   62CHL1  H24A 7057   4.911   2.813   8.531  0.2695 -0.3948  0.9039
   62CHL1  H24B 7058   4.938   2.990   8.536  0.1217 -0.2294 -0.9715
   62CHL1   C25 7059   5.115   2.876   8.574  0.4570  0.1449 -0.3498
   62CHL1   H25 7060   5.131   2.773   8.613  0.6744 -0.7867 -2.7375
   62CHL1   C26 7061   5.161   2.883   8.431  0.0183 -0.1361 -0.1520
   62CHL1  H26A 7062   5.263   2.841   8.416 -0.0572 -0.7462  0.9263
   62CHL1  H26B 7063   5.090   2.838   8.358 -0.4986  2.8453 -1.6063
   62CHL1  H26C 7064   5.163   2.989   8.397  2.7969 -1.2239 -4.1401
   62CHL1   C27 7065   5.193   2.978   8.646 -0.3760  0.0266  0.6207
   62CHL1  H27A 7066   5.179   2.968   8.756 -1.4285 -0.0643  0.4892
   62CHL1  H27B 7067   5.303   2.967   8.634  0.1934  0.2879  4.3541
   62CHL1  H27C 7068   5.172   3.080   8.610  0.2261 -0.2948 -0.6756
   63CHL1    C3 7069   0.961   3.356  10.154 -0.0581  0.0524 -0.1836
   63CHL1    H3 7070   0.861   3.402  10.141  0.3148  0.3197 -2.5970
   63CHL1    O3 7071   0.980   3.317  10.291 -0.0302 -0.4914 -0.3339
   63CHL1   H3' 7072   1.004   3.397  10.338 -0.8953 -0.3429 -0.1320
   63CHL1    C4 7073   0.956   3.219  10.073  0.6656  0.1488 -0.1797
   63CHL1   H4A 7074   1.043   3.153  10.095  0.3553 -1.0984 -2.4647
   63CHL1   H4B 7075   0.878   3.155  10.119 -0.1006 -0.9109 -2.7810
   63CHL1    C5 7076   0.934   3.235   9.925  0.6556 -0.7032  0.4783
   63CHL1    C6 7077   0.845   3.166   9.854  0.1107 -0.5334 -1.0376
   63CHL1    H6 7078   0.764   3.109   9.903  0.0869 -1.0693 -1.6821
   63CHL1    C7 7079   0.816   3.177   9.708 -0.7737 -0.7274 -0.5570
   63CHL1   H7A 7080   0.802   3.076   9.663  3.0018 -1.1779 -1.0826
   63CHL1   H7B 7081   0.723   3.237   9.698 -0.0881  0.3093 -0.7361
   63CHL1    C8 7082   0.934   3.251   9.635 -0.7679  0.3406 -0.9581
   63CHL1    H8 7083   1.021   3.186   9.614  0.9341  1.4612  2.0022
   63CHL1   C14 7084   0.893   3.297   9.497 -0.1644  0.3703  0.8307
   63CHL1   H14 7085   0.809   3.366   9.518 -0.6017  0.0404  0.1821
   63CHL1   C15 7086   0.826   3.193   9.401  0.0242  0.7219  1.2678
   63CHL1  H15A 7087   0.872   3.092   9.408 -0.8519 -0.0739 -2.3315
   63CHL1  H15B 7088   0.720   3.172   9.426 -0.1232 -1.0121 -0.5312
   63CHL1   C16 7089   0.852   3.252   9.255  0.3110 -0.0672 -0.7426
   63CHL1  H16A 7090   0.926   3.178   9.218  0.7128  0.2772 -0.6389
   63CHL1  H16B 7091   0.758   3.252   9.196 -1.3485 -2.2308  1.6662
   63CHL1   C17 7092   0.921   3.393   9.287 -0.2154 -0.5447  0.8664
   63CHL1   H17 7093   0.831   3.452   9.317  0.9137  1.1867  0.9818
   63CHL1   C13 7094   1.002   3.365   9.418 -0.2661  0.6789 -0.2362
   63CHL1   C18 7095   1.123   3.271   9.387 -0.2872 -0.0797  0.2440
   63CHL1  H18A 7096   1.190   3.312   9.309  0.0556 -1.4090 -0.1888
   63CHL1  H18B 7097   1.187   3.250   9.475  0.1193  0.6837  0.1354
   63CHL1  H18C 7098   1.087   3.178   9.337 -0.6346  0.7732 -1.1396
   63CHL1   C12 7099   1.041   3.487   9.501 -0.1605 -0.0906  0.3503
   63CHL1  H12A 7100   1.119   3.545   9.448 -1.7480 -0.6773 -2.8630
   63CHL1  H12B 7101   0.957   3.559   9.516  0.1916  0.3845  0.0832
   63CHL1   C11 7102   1.086   3.449   9.641  0.0644  0.0393  0.1999
   63CHL1  H11A 7103   1.180   3.392   9.627  0.8684  1.7448 -1.9008
   63CHL1  H11B 7104   1.107   3.545   9.692  1.6209 -0.2545  0.1407
   63CHL1    C9 7105   0.981   3.368   9.718 -0.1810 -0.5357  0.5757
   63CHL1    H9 7106   0.901   3.443   9.733  1.1717  0.9496  0.6203
   63CHL1   C10 7107   1.031   3.337   9.868  0.0779 -1.0159  0.7368
   63CHL1   C19 7108   1.165   3.267   9.862 -0.1926  0.0639  0.1269
   63CHL1  H19A 7109   1.201   3.236   9.962  1.2955  0.9177 -0.1076
   63CHL1  H19B 7110   1.169   3.174   9.800  0.6463 -0.8494  1.4977
   63CHL1  H19C 7111   1.241   3.338   9.822 -0.8647  2.6879  3.1148
   63CHL1    C1 7112   1.041   3.472   9.950  0.5800  0.3447 -0.7147
   63CHL1   H1A 7113   1.124   3.533   9.909 -0.6714  3.2252  0.7438
   63CHL1   H1B 7114   0.943   3.524   9.941 -0.2243 -0.9974 -0.0687
   63CHL1    C2 7115   1.079   3.445  10.100  0.4282  0.5160 -0.1973
   63CHL1   H2A 7116   1.084   3.536  10.162 -0.9156 -1.8272  3.7000
   63CHL1   H2B 7117   1.176   3.390  10.104 -0.0120 -0.3278 -0.6958
   63CHL1   C20 7118   0.982   3.451   9.155 -0.6976  0.1879 -0.3535
   63CHL1   H20 7119   1.056   3.379   9.115 -1.3555 -1.3798  1.1041
   63CHL1   C21 7120   1.043   3.591   9.161  0.4611 -0.6851  0.1868
   63CHL1  H21A 7121   1.087   3.624   9.065  0.5750  0.4700  0.6121
   63CHL1  H21B 7122   1.127   3.593   9.235  0.7233 -0.1439 -0.1215
   63CHL1  H21C 7123   0.968   3.665   9.197  1.9604  0.5126  0.9816
   63CHL1   C22 7124   0.868   3.454   9.042  0.5746  0.3245  0.4746
   63CHL1  H22A 7125   0.827   3.355   9.012  1.4177 -0.1965  0.9810
   63CHL1  H22B 7126   0.783   3.517   9.075 -1.6108  0.0624 -3.9363
   63CHL1   C23 7127   0.913   3.518   8.903 -0.3184 -0.4548 -0.5419
   63CHL1  H23A 7128   0.823   3.536   8.841  0.7594  2.3464 -1.4468
   63CHL1  H23B 7129   0.941   3.624   8.924 -0.5974 -0.6218  0.7112
   63CHL1   C24 7130   1.018   3.449   8.822  0.0354 -0.3277 -0.1836
   63CHL1  H24A 7131   1.114   3.451   8.876 -0.2329  1.8614  0.3111
   63CHL1  H24B 7132   0.984   3.350   8.785  1.6764 -1.4615  1.2046
   63CHL1   C25 7133   1.059   3.516   8.689 -0.0299  0.4911 -0.1574
   63CHL1   H25 7134   0.976   3.511   8.615 -1.0013  1.8781  0.8006
   63CHL1   C26 7135   1.106   3.664   8.695 -0.0901  0.3087 -0.5265
   63CHL1  H26A 7136   1.035   3.726   8.754 -1.0093 -1.6656  0.5444
   63CHL1  H26B 7137   1.204   3.680   8.746 -0.1095 -2.7528  0.7058
   63CHL1  H26C 7138   1.117   3.711   8.596  0.8904  3.2366  0.8478
   63CHL1   C27 7139   1.167   3.425   8.629 -0.1015 -0.1567  0.1057
   63CHL1  H27A 7140   1.126   3.325   8.603  1.1520 -0.6873  0.1235
   63CHL1  H27B 7141   1.206   3.484   8.543  1.1679  0.5861  1.1682
   63CHL1  H27C 7142   1.246   3.408   8.704 -0.1028  1.5663  0.5544
   64CHL1    C3 7143   0.676   4.077  10.106 -0.4456  0.5151  0.0435
   64CHL1    H3 7144   0.725   3.987  10.063 -0.4063  0.1051  0.9310
   64CHL1    O3 7145   0.671   4.041  10.244 -0.4332 -0.0938  0.2693
   64CHL1   H3' 7146   0.663   4.124  10.292  0.9018  0.1220  0.1635
   64CHL1    C4 7147   0.758   4.202  10.082  0.3453 -0.3789 -0.0857
   64CHL1   H4A 7148   0.705   4.291  10.122  2.2348 -0.0792  1.9440
   64CHL1   H4B 7149   0.857   4.189  10.132 -0.0594  1.0953  1.1586
   64CHL1    C5 7150   0.770   4.223   9.929 -0.6273 -0.3005 -0.6681
   64CHL1    C6 7151   0.891   4.212   9.873  0.0943 -0.3182  0.1322
   64CHL1    H6 7152   0.988   4.206   9.925 -0.1807 -1.0034  0.5796
   64CHL1    C7 7153   0.908   4.220   9.722 -0.1453 -0.3033 -0.7706
   64CHL1   H7A 7154   0.988   4.297   9.712 -0.5715  0.6001  1.8677
   64CHL1   H7B 7155   0.928   4.121   9.676  2.8593 -0.7548  1.2353
   64CHL1    C8 7156   0.792   4.285   9.648  0.7943 -0.1800  0.4271
   64CHL1    H8 7157   0.799   4.396   9.657 -1.0609  0.1679 -1.5049
   64CHL1   C14 7158   0.799   4.272   9.496  0.3119  0.1599 -0.0751
   64CHL1   H14 7159   0.795   4.162   9.479 -0.4332 -0.1011  1.6070
   64CHL1   C15 7160   0.937   4.313   9.428 -0.6216 -0.7139  0.0573
   64CHL1  H15A 7161   0.970   4.412   9.467  1.2212 -0.6178 -1.6047
   64CHL1  H15B 7162   1.013   4.237   9.455 -0.4351 -0.5498  0.0013
   64CHL1   C16 7163   0.897   4.319   9.280 -0.0947  0.4203  0.9461
   64CHL1  H16A 7164   0.902   4.426   9.249 -0.5359  1.4708  4.1138
   64CHL1  H16B 7165   0.971   4.268   9.214 -2.2135 -2.3339  0.5481
   64CHL1   C17 7166   0.740   4.282   9.272 -0.4253 -0.2029 -0.1670
   64CHL1   H17 7167   0.740   4.171   9.267  0.2370 -0.1407 -3.5536
   64CHL1   C13 7168   0.684   4.325   9.407 -0.9080  0.1293 -0.3276
   64CHL1   C18 7169   0.680   4.481   9.421 -0.0198 -0.9030 -0.2856
   64CHL1  H18A 7170   0.684   4.518   9.526 -1.2394 -0.7200 -0.2938
   64CHL1  H18B 7171   0.766   4.524   9.364 -0.6054  0.3750 -0.2392
   64CHL1  H18C 7172   0.586   4.527   9.385  0.3940 -0.2751 -0.6012
   64CHL1   C12 7173   0.556   4.252   9.459  0.8805  0.8506  0.0801
   64CHL1  H12A 7174   0.462   4.296   9.419  0.1648 -1.5685 -1.1045
   64CHL1  H12B 7175   0.552   4.143   9.439 -0.4266  0.9746 -0.4075
   64CHL1   C11 7176   0.543   4.273   9.611 -0.0912 -0.0381 -0.0277
   64CHL1  H11A 7177   0.514   4.379   9.626 -4.5475 -0.9603 -0.8507
   64CHL1  H11B 7178   0.457   4.208   9.637  0.2255  0.0882  1.3956
   64CHL1    C9 7179   0.658   4.228   9.695 -0.5164 -0.0913  0.3107
   64CHL1    H9 7180   0.665   4.119   9.675 -1.5760 -0.1130  0.0118
   64CHL1   C10 7181   0.634   4.249   9.849 -0.6124  0.5121 -0.2759
   64CHL1   C19 7182   0.582   4.396   9.876 -0.3500  0.1972  0.4738
   64CHL1  H19A 7183   0.649   4.466   9.822 -1.9960  1.5799  0.1274
   64CHL1  H19B 7184   0.474   4.408   9.850 -0.7087  0.1057  1.8328
   64CHL1  H19C 7185   0.582   4.419   9.985  2.5368  2.3867  0.1432
   64CHL1    C1 7186   0.538   4.130   9.893 -0.5472 -0.5988 -0.1461
   64CHL1   H1A 7187   0.440   4.139   9.841  0.8368 -2.4627 -3.4153
   64CHL1   H1B 7188   0.573   4.031   9.856 -2.5580 -1.6923  0.6854
   64CHL1    C2 7189   0.534   4.106  10.041  0.3176 -0.3863 -0.3917
   64CHL1   H2A 7190   0.470   4.016  10.054 -0.8069  0.6285  1.6462
   64CHL1   H2B 7191   0.489   4.188  10.101 -0.1165 -1.4286  0.7650
   64CHL1   C20 7192   0.675   4.328   9.136  0.7740 -0.4962 -0.6248
   64CHL1   H20 7193   0.676   4.439   9.139 -0.4082 -0.4869  1.1135
   64CHL1   C21 7194   0.524   4.295   9.130 -0.0577  0.0254  0.1844
   64CHL1  H21A 7195   0.510   4.185   9.123 -0.7153  0.1201 -0.1173
   64CHL1  H21B 7196   0.480   4.349   9.044 -0.4901  1.4063  1.2471
   64CHL1  H21C 7197   0.478   4.333   9.223 -0.1621 -2.1624  1.1008
   64CHL1   C22 7198   0.757   4.272   9.013 -0.0368 -0.7723 -0.0236
   64CHL1  H22A 7199   0.854   4.325   9.004  0.9573 -2.7783 -1.9427
   64CHL1  H22B 7200   0.785   4.165   9.019  0.3039 -0.8325 -1.9116
   64CHL1   C23 7201   0.690   4.298   8.874  0.1534 -0.6242  0.4426
   64CHL1  H23A 7202   0.739   4.228   8.804 -0.5751 -2.9086  2.1116
   64CHL1  H23B 7203   0.582   4.270   8.879 -0.1112  0.1754 -0.4752
   64CHL1   C24 7204   0.701   4.445   8.825 -0.1086  0.1933 -0.5168
   64CHL1  H24A 7205   0.631   4.510   8.882  0.3042 -0.3670  0.6695
   64CHL1  H24B 7206   0.805   4.479   8.846 -0.4882 -0.4105  2.9740
   64CHL1   C25 7207   0.679   4.472   8.680 -0.1695  0.1051  0.5381
   64CHL1   H25 7208   0.762   4.427   8.622 -1.1759 -1.8622  0.5282
   64CHL1   C26 7209   0.546   4.416   8.629  0.5662 -0.0355  0.1512
   64CHL1  H26A 7210   0.516   4.445   8.526 -2.6496 -1.7047  0.4673
   64CHL1  H26B 7211   0.535   4.305   8.639 -0.2713  0.1923  2.2162
   64CHL1  H26C 7212   0.461   4.455   8.688  1.1670  0.8024  0.4795
   64CHL1   C27 7213   0.683   4.626   8.660 -0.4038 -0.0865 -0.1327
   64CHL1  H27A 7214   0.701   4.672   8.560  2.2427  1.8106  1.1145
   64CHL1  H27B 7215   0.582   4.669   8.680 -1.3808 -0.2324 -3.9090
   64CHL1  H27C 7216   0.768   4.660   8.723 -0.2761 -3.3888  1.7190
   65CHL1    C3 7217   2.582   3.065  10.100 -0.5193 -0.3339  0.2663
   65CHL1    H3 7218   2.492   3.001  10.085 -0.0784 -1.0424  0.5819
   65CHL1    O3 7219   2.604   3.099  10.234 -0.2154 -0.1632 -0.0673
   65CHL1   H3' 7220   2.626   3.014  10.272  0.5352  0.3671  0.7250
   65CHL1    C4 7221   2.703   2.984  10.047 -0.0047 -1.2160  0.2715
   65CHL1   H4A 7222   2.786   3.050  10.080 -0.1570 -0.1627 -1.3354
   65CHL1   H4B 7223   2.720   2.891  10.105  0.5080 -1.1443  0.2451
   65CHL1    C5 7224   2.711   2.968   9.892 -0.3803 -1.3177 -0.7037
   65CHL1    C6 7225   2.729   2.845   9.847  0.3307  0.4171  0.1391
   65CHL1    H6 7226   2.729   2.755   9.910 -2.5772  0.7144  0.7023
   65CHL1    C7 7227   2.726   2.808   9.699 -0.1092  0.4463 -0.8849
   65CHL1   H7A 7228   2.808   2.739   9.670  0.8807  1.2744 -0.1750
   65CHL1   H7B 7229   2.622   2.776   9.680 -0.2748  0.7986 -0.5909
   65CHL1    C8 7230   2.743   2.944   9.615 -0.2384 -0.1573 -0.5455
   65CHL1    H8 7231   2.850   2.968   9.633 -0.5292  0.2257  0.7474
   65CHL1   C14 7232   2.715   2.913   9.470  0.3726 -0.2163 -0.4083
   65CHL1   H14 7233   2.608   2.885   9.458  0.3477  0.6515 -2.7559
   65CHL1   C15 7234   2.775   2.791   9.409 -0.4963  0.0380 -0.6213
   65CHL1  H15A 7235   2.885   2.788   9.423 -0.1918  0.8499 -2.5364
   65CHL1  H15B 7236   2.736   2.694   9.447 -0.2537  1.1341  2.7635
   65CHL1   C16 7237   2.743   2.817   9.259  0.3051  0.0004 -0.8436
   65CHL1  H16A 7238   2.836   2.803   9.199  0.3519  1.5111 -1.1830
   65CHL1  H16B 7239   2.668   2.742   9.224  2.5499 -2.0484 -1.5189
   65CHL1   C17 7240   2.689   2.959   9.236 -0.7225 -0.8658  0.6416
   65CHL1   H17 7241   2.579   2.953   9.222 -0.5025  0.9332 -3.2046
   65CHL1   C13 7242   2.720   3.031   9.372 -0.8340 -0.6242  0.8993
   65CHL1   C18 7243   2.870   3.095   9.385  0.4173  0.8222  0.1795
   65CHL1  H18A 7244   2.879   3.114   9.494  1.0728 -2.4121  0.8087
   65CHL1  H18B 7245   2.946   3.018   9.360 -1.9862 -2.3310  1.8305
   65CHL1  H18C 7246   2.883   3.187   9.324 -1.1282  1.2022  0.3802
   65CHL1   C12 7247   2.620   3.133   9.416  0.1714  0.0997 -0.3524
   65CHL1  H12A 7248   2.618   3.222   9.349 -1.2626  0.8593  0.6440
   65CHL1  H12B 7249   2.524   3.078   9.407  1.4729 -2.2491 -0.5965
   65CHL1   C11 7250   2.641   3.184   9.564  0.3096  0.0471 -0.2326
   65CHL1  H11A 7251   2.718   3.264   9.568 -1.7936  2.2791 -1.3558
   65CHL1  H11B 7252   2.550   3.243   9.589  0.2679 -0.1336  0.0403
   65CHL1    C9 7253   2.649   3.058   9.662 -0.3524 -0.0929  0.4482
   65CHL1    H9 7254   2.547   3.015   9.645 -0.3355  0.0843 -0.1400
   65CHL1   C10 7255   2.674   3.094   9.807  0.4238 -1.0340 -0.1497
   65CHL1   C19 7256   2.798   3.191   9.819  0.8290 -0.0923 -0.0170
   65CHL1  H19A 7257   2.832   3.185   9.925  0.8273 -1.2602 -0.0629
   65CHL1  H19B 7258   2.882   3.170   9.750 -0.0164  0.7526 -1.3421
   65CHL1  H19C 7259   2.771   3.297   9.798 -0.2606 -0.1835  0.8180
   65CHL1    C1 7260   2.547   3.162   9.864  0.0584  0.4785  0.5018
   65CHL1   H1A 7261   2.534   3.263   9.821 -0.6684  0.9324  1.7288
   65CHL1   H1B 7262   2.455   3.101   9.850  0.6514  0.0938 -2.2386
   65CHL1    C2 7263   2.567   3.191  10.012  0.1649  0.0328 -0.2306
   65CHL1   H2A 7264   2.476   3.243  10.049 -0.0069  0.1166 -0.7747
   65CHL1   H2B 7265   2.648   3.265  10.029 -2.0607  2.1939  1.5747
   65CHL1   C20 7266   2.748   3.016   9.108  0.5371  0.0683 -0.5701
   65CHL1   H20 7267   2.858   3.001   9.105  0.9597  1.9562  2.2385
   65CHL1   C21 7268   2.706   3.169   9.095  0.1165  0.1461  0.2287
   65CHL1  H21A 7269   2.740   3.235   9.178  1.1492  0.9432 -0.7758
   65CHL1  H21B 7270   2.598   3.182   9.077  0.2983  0.3314 -0.8194
   65CHL1  H21C 7271   2.750   3.210   9.001 -0.0567  1.6882  0.7941
   65CHL1   C22 7272   2.686   2.945   8.986 -0.1059 -0.2620 -0.4253
   65CHL1  H22A 7273   2.674   2.836   9.005 -0.9622  0.0827  1.1305
   65CHL1  H22B 7274   2.586   2.984   8.960 -0.5155 -0.5680  0.6640
   65CHL1   C23 7275   2.770   2.966   8.863 -0.3682 -0.0592 -0.5850
   65CHL1  H23A 7276   2.816   3.065   8.850 -1.2428  0.9824  3.1288
   65CHL1  H23B 7277   2.846   2.885   8.869 -2.1181 -2.1185 -3.3082
   65CHL1   C24 7278   2.696   2.936   8.726  0.1858 -0.1178 -0.0842
   65CHL1  H24A 7279   2.642   2.840   8.736 -2.0462  1.1948  1.6538
   65CHL1  H24B 7280   2.608   3.004   8.716  1.5797  2.0485  1.4623
   65CHL1   C25 7281   2.782   2.936   8.603 -0.3855 -1.0685  0.6508
   65CHL1   H25 7282   2.836   3.033   8.598 -1.0494 -0.7190 -0.1830
   65CHL1   C26 7283   2.887   2.833   8.591 -0.5536 -0.4171 -0.6965
   65CHL1  H26A 7284   2.932   2.813   8.491  1.9091 -3.3125  0.8409
   65CHL1  H26B 7285   2.967   2.834   8.667 -0.6897 -1.9587 -0.4841
   65CHL1  H26C 7286   2.837   2.734   8.598 -2.2920  0.4451 -0.3773
   65CHL1   C27 7287   2.687   2.923   8.471 -0.5569  0.0924 -0.2563
   65CHL1  H27A 7288   2.755   2.910   8.384  0.6068 -0.3934  0.6915
   65CHL1  H27B 7289   2.626   2.831   8.470  1.7148 -1.5251  1.0185
   65CHL1  H27C 7290   2.627   3.013   8.447  1.2430  1.5476  0.4539
   66CHL1    C3 7291   1.708   1.959  10.387  0.6142  0.2182  0.3029
   66CHL1    H3 7292   1.797   2.026  10.386  0.9061 -0.1058  1.7792
   66CHL1    O3 7293   1.696   1.916  10.522  0.1575 -0.1565 -0.0165
   66CHL1   H3' 7294   1.738   1.986  10.573 -1.0974  1.2784 -0.8978
   66CHL1    C4 7295   1.585   2.042  10.350  0.3672 -0.5373  0.9448
   66CHL1   H4A 7296   1.499   1.979  10.378  1.4026 -2.1769  0.5627
   66CHL1   H4B 7297   1.581   2.124  10.424  1.2118 -0.2111  0.6453
   66CHL1    C5 7298   1.592   2.084  10.205  0.2182 -0.1319 -0.1094
   66CHL1    C6 7299   1.596   2.216  10.164 -0.9688 -0.0115 -0.3154
   66CHL1    H6 7300   1.582   2.295  10.240  0.2828  0.7830 -0.8691
   66CHL1    C7 7301   1.599   2.260  10.019  0.3043 -0.1598  0.6599
   66CHL1   H7A 7302   1.520   2.336  10.009  1.5768  1.1312  0.1392
   66CHL1   H7B 7303   1.698   2.306   9.998 -0.3658  1.2974  0.6238
   66CHL1    C8 7304   1.558   2.146   9.928  0.9240  0.2294  0.2139
   66CHL1    H8 7305   1.451   2.120   9.941  0.9380 -1.0320 -1.7648
   66CHL1   C14 7306   1.585   2.181   9.781 -0.0417  0.0989 -0.0557
   66CHL1   H14 7307   1.695   2.190   9.771  0.2482 -1.7811  1.0790
   66CHL1   C15 7308   1.525   2.309   9.737  0.2536 -0.1776  0.3155
   66CHL1  H15A 7309   1.421   2.305   9.775  0.4842  0.9179  1.1168
   66CHL1  H15B 7310   1.574   2.401   9.777 -0.2609 -0.8092  2.5219
   66CHL1   C16 7311   1.516   2.294   9.579  0.1371 -0.3175  0.3141
   66CHL1  H16A 7312   1.407   2.294   9.555 -0.0953 -0.0837  1.2765
   66CHL1  H16B 7313   1.568   2.376   9.526  2.4316 -0.7550  1.7617
   66CHL1   C17 7314   1.571   2.153   9.537  0.5927 -0.3176 -0.6698
   66CHL1   H17 7315   1.680   2.168   9.522  1.0286 -1.9842  0.5431
   66CHL1   C13 7316   1.552   2.073   9.670  0.0986 -0.5910 -0.2617
   66CHL1   C18 7317   1.404   2.025   9.682  0.2864  0.3245 -0.2432
   66CHL1  H18A 7318   1.385   1.944   9.608 -0.5704  1.9627 -1.8966
   66CHL1  H18B 7319   1.392   1.985   9.785 -1.7936  2.1026  0.2831
   66CHL1  H18C 7320   1.334   2.110   9.670  3.0230  2.5049 -1.8419
   66CHL1   C12 7321   1.653   1.961   9.704 -0.0835 -0.4033  0.1849
   66CHL1  H12A 7322   1.622   1.873   9.644 -1.3663  0.1614 -0.0144
   66CHL1  H12B 7323   1.757   1.994   9.683 -0.1141 -0.5511 -0.2084
   66CHL1   C11 7324   1.636   1.912   9.848  0.0207 -0.3086 -0.1928
   66CHL1  H11A 7325   1.538   1.858   9.843 -0.0388 -0.3054  0.6878
   66CHL1  H11B 7326   1.710   1.834   9.875 -0.7228 -1.0437 -0.1955
   66CHL1    C9 7327   1.640   2.026   9.959  0.1601  0.1719 -0.0091
   66CHL1    H9 7328   1.748   2.053   9.959 -0.2531  1.9656 -1.2898
   66CHL1   C10 7329   1.617   1.968  10.105  0.6133  0.6010  0.7742
   66CHL1   C19 7330   1.473   1.902  10.106  0.1184 -0.0698  0.0402
   66CHL1  H19A 7331   1.470   1.824  10.027 -0.7026  3.4352 -3.7872
   66CHL1  H19B 7332   1.455   1.853  10.203  1.4305  1.8001  1.3018
   66CHL1  H19C 7333   1.387   1.971  10.089  2.5160  3.0203 -0.6153
   66CHL1    C1 7334   1.726   1.870  10.146 -0.0086  0.2280 -0.2427
   66CHL1   H1A 7335   1.730   1.781  10.079  2.1269  0.9879 -1.2192
   66CHL1   H1B 7336   1.824   1.914  10.120 -0.0915 -0.7482 -2.4248
   66CHL1    C2 7337   1.722   1.832  10.297 -0.1133 -0.0969  0.0071
   66CHL1   H2A 7338   1.818   1.784  10.325  1.3061  1.8285 -1.2687
   66CHL1   H2B 7339   1.638   1.762  10.316  0.2711 -0.3706  0.7447
   66CHL1   C20 7340   1.512   2.100   9.410  0.2254  0.7883 -0.2616
   66CHL1   H20 7341   1.405   2.073   9.424  0.5793 -0.9188 -0.5572
   66CHL1   C21 7342   1.594   1.973   9.373  0.1456 -0.8556  0.2536
   66CHL1  H21A 7343   1.591   1.898   9.455 -1.8957 -0.3031  0.7306
   66CHL1  H21B 7344   1.696   2.014   9.354 -0.9814  2.1479  0.2204
   66CHL1  H21C 7345   1.563   1.918   9.282  2.9888 -1.7400 -0.2923
   66CHL1   C22 7346   1.502   2.203   9.297 -0.1613 -0.0963 -0.6988
   66CHL1  H22A 7347   1.454   2.299   9.327  1.6225  0.2686  1.2468
   66CHL1  H22B 7348   1.601   2.238   9.262 -0.3160  1.0065 -0.1096
   66CHL1   C23 7349   1.436   2.140   9.166  0.4932 -0.1123  0.1343
   66CHL1  H23A 7350   1.514   2.083   9.112 -0.2882  0.6401 -1.8907
   66CHL1  H23B 7351   1.346   2.080   9.192  0.5650 -0.0558  0.5286
   66CHL1   C24 7352   1.392   2.263   9.089 -0.4253  0.5833  0.1590
   66CHL1  H24A 7353   1.297   2.305   9.128 -0.4379 -0.8953  1.8449
   66CHL1  H24B 7354   1.480   2.331   9.087 -0.3752  0.5701  1.4626
   66CHL1   C25 7355   1.371   2.237   8.932  0.1859  0.9198 -0.7611
   66CHL1   H25 7356   1.469   2.208   8.889 -0.2432 -1.9864  0.0701
   66CHL1   C26 7357   1.269   2.126   8.910 -1.0906  0.1598 -0.2479
   66CHL1  H26A 7358   1.279   2.038   8.977 -1.5400 -0.8937 -1.5526
   66CHL1  H26B 7359   1.171   2.177   8.920 -0.9572  0.6262 -1.1827
   66CHL1  H26C 7360   1.277   2.084   8.808  0.9918 -1.7834  0.6218
   66CHL1   C27 7361   1.347   2.367   8.862  0.3762 -0.0998  0.5072
   66CHL1  H27A 7362   1.259   2.416   8.907 -0.0622 -2.6829  2.7069
   66CHL1  H27B 7363   1.435   2.434   8.873  0.0947  0.3885 -0.1258
   66CHL1  H27C 7364   1.340   2.356   8.751  2.4397 -3.3643  0.5424
   67CHL1    C3 7365   3.574   0.467  10.063 -0.2165 -0.1913  0.3986
   67CHL1    H3 7366   3.675   0.509  10.085 -0.1730 -0.8212  1.4936
   67CHL1    O3 7367   3.517   0.435  10.191 -0.6119 -0.4227  0.7700
   67CHL1   H3' 7368   3.530   0.340  10.198 -0.2794 -0.3932  0.5739
   67CHL1    C4 7369   3.505   0.586   9.987  0.2261  0.2114 -0.3097
   67CHL1   H4A 7370   3.395   0.570   9.991 -0.0212  1.8170  0.7697
   67CHL1   H4B 7371   3.517   0.684  10.039  2.3020 -0.4633  0.5713
   67CHL1    C5 7372   3.544   0.595   9.843 -0.3270 -0.1358 -0.6082
   67CHL1    C6 7373   3.588   0.714   9.795  0.2786  0.1060  0.3577
   67CHL1    H6 7374   3.579   0.802   9.861 -0.0381 -0.2079  0.7337
   67CHL1    C7 7375   3.633   0.731   9.655  0.5649 -0.1695  1.0717
   67CHL1   H7A 7376   3.584   0.815   9.602 -2.8627 -2.6722 -0.0723
   67CHL1   H7B 7377   3.744   0.733   9.648  0.6500 -3.6437 -0.5757
   67CHL1    C8 7378   3.591   0.613   9.547 -0.1213 -0.1999 -0.6963
   67CHL1    H8 7379   3.489   0.639   9.514  0.0521  0.1241 -0.9798
   67CHL1   C14 7380   3.678   0.624   9.426  0.2012  0.0728  0.8035
   67CHL1   H14 7381   3.777   0.592   9.465  0.0439  0.0732  1.2124
   67CHL1   C15 7382   3.681   0.762   9.356  0.6606 -0.1117 -0.1389
   67CHL1  H15A 7383   3.583   0.814   9.361  0.8807  0.3431 -0.4466
   67CHL1  H15B 7384   3.750   0.831   9.409  0.3524  0.9534 -1.0786
   67CHL1   C16 7385   3.733   0.733   9.210 -0.3183  0.3668 -0.7658
   67CHL1  H16A 7386   3.650   0.773   9.148 -0.8621  0.5600  0.0741
   67CHL1  H16B 7387   3.827   0.788   9.187 -0.6717  1.3765  0.1435
   67CHL1   C17 7388   3.747   0.570   9.212  0.1575 -0.3884 -0.0421
   67CHL1   H17 7389   3.848   0.556   9.258 -0.1700  0.6424  1.0465
   67CHL1   C13 7390   3.642   0.520   9.320 -0.7881  0.1737  0.4591
   67CHL1   C18 7391   3.501   0.537   9.259  0.9052  0.0174  0.2182
   67CHL1  H18A 7392   3.418   0.534   9.333  0.2254  1.0025 -0.4738
   67CHL1  H18B 7393   3.495   0.635   9.207 -1.4654  0.0209  0.3918
   67CHL1  H18C 7394   3.483   0.456   9.186  1.3944 -0.0867  0.2098
   67CHL1   C12 7395   3.650   0.378   9.384 -0.0671 -0.5970  0.0742
   67CHL1  H12A 7396   3.612   0.304   9.310 -1.2316  1.2738 -1.2996
   67CHL1  H12B 7397   3.760   0.366   9.394 -0.1295 -0.3757  1.1637
   67CHL1   C11 7398   3.587   0.361   9.513  0.0681  0.1946 -0.3025
   67CHL1  H11A 7399   3.479   0.379   9.494 -0.6035 -0.9961  1.9770
   67CHL1  H11B 7400   3.595   0.256   9.549 -0.3785  0.0632 -0.5726
   67CHL1    C9 7401   3.617   0.479   9.619 -0.4280 -0.2758  0.6526
   67CHL1    H9 7402   3.726   0.475   9.639  0.1658  0.7786 -1.9462
   67CHL1   C10 7403   3.551   0.461   9.758 -0.0159 -0.0569 -0.4813
   67CHL1   C19 7404   3.399   0.429   9.749 -0.8214  0.0404  0.7647
   67CHL1  H19A 7405   3.343   0.430   9.844  2.7072 -1.7851  3.1012
   67CHL1  H19B 7406   3.356   0.507   9.682  0.5203 -0.6964 -1.0393
   67CHL1  H19C 7407   3.382   0.331   9.699  0.6482  0.4201 -0.5752
   67CHL1    C1 7408   3.625   0.345   9.833  0.6032 -0.3775 -0.3276
   67CHL1   H1A 7409   3.606   0.245   9.787  1.3819 -1.3373  1.3249
   67CHL1   H1B 7410   3.732   0.374   9.835  0.8248 -1.1627  0.7112
   67CHL1    C2 7411   3.589   0.339   9.978 -0.0352 -0.4520 -0.5369
   67CHL1   H2A 7412   3.668   0.282  10.033  0.1809  0.7572  0.4368
   67CHL1   H2B 7413   3.494   0.282   9.985 -0.6758  0.6347 -0.3519
   67CHL1   C20 7414   3.744   0.513   9.073 -0.1252  0.0853 -0.3855
   67CHL1   H20 7415   3.644   0.511   9.025  0.4391 -1.5007 -1.6043
   67CHL1   C21 7416   3.794   0.364   9.074 -0.4332 -0.2556 -0.0253
   67CHL1  H21A 7417   3.904   0.369   9.094  0.1463  0.1897 -2.8726
   67CHL1  H21B 7418   3.762   0.321   8.977 -2.8613  0.0652  0.5738
   67CHL1  H21C 7419   3.748   0.303   9.154  0.2093  0.7180  1.1272
   67CHL1   C22 7420   3.829   0.593   8.970 -0.2956 -0.4280  0.2339
   67CHL1  H22A 7421   3.799   0.700   8.960  0.8491  0.3229  3.4124
   67CHL1  H22B 7422   3.938   0.592   8.991  0.2182 -0.4500 -2.1508
   67CHL1   C23 7423   3.835   0.524   8.831 -0.5355 -0.6301 -0.0550
   67CHL1  H23A 7424   3.873   0.419   8.834 -1.7910 -1.0819  1.5510
   67CHL1  H23B 7425   3.733   0.525   8.788 -0.6379  1.9018  0.1356
   67CHL1   C24 7426   3.921   0.610   8.744 -0.0298 -0.1389 -0.1513
   67CHL1  H24A 7427   3.882   0.714   8.756  1.4076  0.5893 -1.4742
   67CHL1  H24B 7428   4.024   0.613   8.786 -0.2547 -1.1210  0.4840
   67CHL1   C25 7429   3.921   0.568   8.599 -0.0848  0.4255  0.4978
   67CHL1   H25 7430   4.012   0.615   8.557 -0.7033 -0.8048 -2.5287
   67CHL1   C26 7431   3.964   0.420   8.573 -0.2545 -0.4698  0.1470
   67CHL1  H26A 7432   3.874   0.355   8.571 -0.0148 -0.8150  0.4420
   67CHL1  H26B 7433   4.007   0.414   8.471  0.0656  0.9093  0.1836
   67CHL1  H26C 7434   4.027   0.386   8.658 -1.3148 -1.0921  0.7214
   67CHL1   C27 7435   3.792   0.595   8.518  1.5059  0.1779 -0.2394
   67CHL1  H27A 7436   3.799   0.552   8.416 -0.5735  0.5409 -0.5751
   67CHL1  H27B 7437   3.700   0.565   8.571  0.4052  1.7358 -1.1930
   67CHL1  H27C 7438   3.771   0.704   8.509 -1.3899 -0.0779  2.0110
   68CHL1    C3 7439   1.175   1.052  10.157  0.4355 -0.1037 -0.4018
   68CHL1    H3 7440   1.068   1.026  10.171 -0.0590  1.4600 -1.1106
   68CHL1    O3 7441   1.239   1.042  10.281 -0.1377  0.3200 -0.6835
   68CHL1   H3' 7442   1.289   0.960  10.283 -2.2859 -1.0630  0.2749
   68CHL1    C4 7443   1.234   0.948  10.053 -0.9190 -0.1482  0.2538
   68CHL1   H4A 7444   1.345   0.950  10.058 -0.8759  2.9590  0.4137
   68CHL1   H4B 7445   1.202   0.846  10.083 -0.0345 -0.1405  1.2619
   68CHL1    C5 7446   1.181   0.970   9.913 -0.1212 -0.4393  0.7314
   68CHL1    C6 7447   1.123   0.866   9.848  0.1711  0.6902  0.0050
   68CHL1    H6 7448   1.117   0.767   9.895  2.8962  0.4867  0.0977
   68CHL1    C7 7449   1.090   0.872   9.701 -0.9042 -0.1103 -0.8857
   68CHL1   H7A 7450   1.114   0.777   9.647 -1.7118  0.6681 -2.7113
   68CHL1   H7B 7451   0.979   0.874   9.696 -1.0122  1.1195  0.9804
   68CHL1    C8 7452   1.148   1.000   9.630 -0.1986 -0.4450 -0.0831
   68CHL1    H8 7453   1.257   0.984   9.615 -0.2381 -2.3900  1.3286
   68CHL1   C14 7454   1.076   1.026   9.505  0.6203  0.7686  0.1873
   68CHL1   H14 7455   0.975   1.055   9.540  0.8397  1.8572 -0.0417
   68CHL1   C15 7456   1.069   0.915   9.404  0.2689 -0.0098  1.3311
   68CHL1  H15A 7457   1.167   0.874   9.372 -0.8221 -1.8674  0.2682
   68CHL1  H15B 7458   0.992   0.838   9.427 -2.3636  1.3164 -2.2037
   68CHL1   C16 7459   1.012   0.983   9.277  0.3592 -0.0451 -0.0094
   68CHL1  H16A 7460   1.059   0.952   9.181 -0.2746  1.6198 -0.8951
   68CHL1  H16B 7461   0.902   0.974   9.267  0.4976  0.1569 -1.9782
   68CHL1   C17 7462   1.028   1.136   9.303  0.1480  0.2392 -0.4474
   68CHL1   H17 7463   0.934   1.180   9.344  0.3108 -0.2115  0.4242
   68CHL1   C13 7464   1.120   1.146   9.419 -0.5867 -0.1969  0.2893
   68CHL1   C18 7465   1.274   1.126   9.375  0.2079 -0.0209  0.2726
   68CHL1  H18A 7466   1.333   1.108   9.468 -0.4679  0.0396  0.7200
   68CHL1  H18B 7467   1.279   1.047   9.296 -1.2987  0.0301  0.1111
   68CHL1  H18C 7468   1.308   1.221   9.329  0.8373  0.0319  0.8259
   68CHL1   C12 7469   1.099   1.269   9.513 -0.4773 -0.0772  0.1517
   68CHL1  H12A 7470   1.120   1.365   9.460 -3.9777  0.9109  0.2399
   68CHL1  H12B 7471   0.991   1.286   9.535 -0.7518 -0.6260 -0.7437
   68CHL1   C11 7472   1.176   1.257   9.649 -0.0216  0.0007 -0.0339
   68CHL1  H11A 7473   1.287   1.263   9.646  0.1462 -1.3055  1.8794
   68CHL1  H11B 7474   1.164   1.348   9.713 -1.0883  0.6851 -1.1636
   68CHL1    C9 7475   1.134   1.126   9.725 -0.0211  0.0260  0.1916
   68CHL1    H9 7476   1.024   1.133   9.737 -0.3623 -2.9187 -0.6439
   68CHL1   C10 7477   1.205   1.112   9.859  0.6807  0.7046 -0.8906
   68CHL1   C19 7478   1.357   1.137   9.850  0.5090 -0.5371  0.2204
   68CHL1  H19A 7479   1.408   1.061   9.787  1.5241  0.7677 -0.5819
   68CHL1  H19B 7480   1.388   1.236   9.811  0.5736 -0.1490  1.2144
   68CHL1  H19C 7481   1.395   1.142   9.954 -0.7996  1.1089  0.6599
   68CHL1    C1 7482   1.141   1.214   9.960 -0.9377 -0.2741  0.7248
   68CHL1   H1A 7483   1.158   1.318   9.926  0.8735 -0.9163 -0.4329
   68CHL1   H1B 7484   1.033   1.191   9.952 -0.6224 -2.4249  1.7821
   68CHL1    C2 7485   1.192   1.196  10.105  0.3331  0.2904  0.4089
   68CHL1   H2A 7486   1.148   1.268  10.177 -1.6702  1.0662 -1.4634
   68CHL1   H2B 7487   1.298   1.228  10.108 -0.3751  2.7927  1.7857
   68CHL1   C20 7488   1.060   1.207   9.166  0.6829  0.8780  0.3367
   68CHL1   H20 7489   1.137   1.142   9.118 -0.8765  0.6249 -1.9955
   68CHL1   C21 7490   1.104   1.347   9.175  0.1522  0.0985 -0.1354
   68CHL1  H21A 7491   1.022   1.413   9.211  0.0225 -0.5096  0.7115
   68CHL1  H21B 7492   1.120   1.404   9.081 -0.1957  0.3454 -0.0467
   68CHL1  H21C 7493   1.204   1.357   9.223  1.1769 -2.0510 -1.6331
   68CHL1   C22 7494   0.925   1.202   9.079 -0.0337  0.8409  0.4420
   68CHL1  H22A 7495   0.882   1.100   9.077  0.6954  0.5275 -1.5956
   68CHL1  H22B 7496   0.849   1.271   9.123 -0.9475 -0.6786  1.3734
   68CHL1   C23 7497   0.944   1.234   8.932  0.2625 -0.2344  0.0360
   68CHL1  H23A 7498   0.976   1.340   8.917 -2.7057  0.7056 -0.3557
   68CHL1  H23B 7499   1.025   1.164   8.904 -1.1196 -0.3308 -4.3532
   68CHL1   C24 7500   0.817   1.210   8.853 -0.0183  0.5271 -0.3471
   68CHL1  H24A 7501   0.835   1.202   8.744  1.0777 -1.0915 -0.0924
   68CHL1  H24B 7502   0.775   1.115   8.894  0.6490  1.0321  1.6208
   68CHL1   C25 7503   0.699   1.317   8.870 -0.6699  0.8748  0.0171
   68CHL1   H25 7504   0.644   1.300   8.965  1.1736  1.2484  1.2191
   68CHL1   C26 7505   0.754   1.460   8.870  0.6060  0.4382 -0.1709
   68CHL1  H26A 7506   0.666   1.528   8.869  0.4915  0.4288  2.4083
   68CHL1  H26B 7507   0.819   1.478   8.958  1.2926 -0.2530 -0.5298
   68CHL1  H26C 7508   0.815   1.478   8.779  1.5756  0.9103  0.5534
   68CHL1   C27 7509   0.602   1.299   8.755 -0.8840 -0.2958  0.3770
   68CHL1  H27A 7510   0.520   1.375   8.751  0.6877  1.4963  0.6864
   68CHL1  H27B 7511   0.658   1.304   8.660 -0.6812 -0.7575  0.4738
   68CHL1  H27C 7512   0.562   1.196   8.751 -2.1415  0.1871 -3.2246
   69CHL1    C3 7513   3.212   6.037   6.661  0.8263  0.1100  0.2761
   69CHL1    H3 7514   3.145   5.948   6.651 -0.8238  1.2665  0.6773
   69CHL1    O3 7515   3.246   6.060   6.522 -0.1842 -0.0353 -0.4884
   69CHL1   H3' 7516   3.331   6.106   6.521  0.4705 -1.2168 -1.6171
   69CHL1    C4 7517   3.129   6.161   6.704  0.6202 -0.1468 -0.3446
   69CHL1   H4A 7518   3.197   6.248   6.690 -0.1818  0.3837 -1.1355
   69CHL1   H4B 7519   3.042   6.177   6.636  1.0916 -0.3969 -1.0100
   69CHL1    C5 7520   3.089   6.161   6.844 -0.1391  0.0603  0.5544
   69CHL1    C6 7521   2.964   6.171   6.880  0.3313  0.0989  0.5077
   69CHL1    H6 7522   2.891   6.207   6.806  0.5714 -0.5650 -0.0629
   69CHL1    C7 7523   2.911   6.165   7.020  0.2721 -0.6470 -0.7965
   69CHL1   H7A 7524   2.819   6.224   7.040  0.5964 -0.5059  0.3896
   69CHL1   H7B 7525   2.880   6.059   7.034  1.5965 -0.9290  0.2506
   69CHL1    C8 7526   3.024   6.186   7.127  0.5866  0.2958  0.5127
   69CHL1    H8 7527   3.040   6.296   7.126  1.2112  0.2870 -2.9394
   69CHL1   C14 7528   2.973   6.133   7.260  0.0157  0.5543 -0.3574
   69CHL1   H14 7529   2.942   6.028   7.243  3.8753 -1.3623  2.8937
   69CHL1   C15 7530   2.845   6.209   7.313  0.0240  0.3917 -0.7618
   69CHL1  H15A 7531   2.861   6.319   7.315  0.1397  0.3713  1.4511
   69CHL1  H15B 7532   2.752   6.178   7.262 -0.0712 -0.0336 -0.3319
   69CHL1   C16 7533   2.849   6.173   7.466  0.3091  0.4426  0.5424
   69CHL1  H16A 7534   2.840   6.269   7.521  1.2940  0.9223 -0.1084
   69CHL1  H16B 7535   2.754   6.123   7.494  0.6043 -0.0335  0.7157
   69CHL1   C17 7536   2.976   6.091   7.490 -0.6033 -0.2246  0.2877
   69CHL1   H17 7537   2.942   5.986   7.474 -0.5700 -0.4260  1.4696
   69CHL1   C13 7538   3.070   6.130   7.374  0.3403 -0.1998 -0.1711
   69CHL1   C18 7539   3.114   6.277   7.398 -0.2341 -0.3128 -0.1209
   69CHL1  H18A 7540   3.027   6.341   7.423 -1.9328 -2.3714 -0.5050
   69CHL1  H18B 7541   3.181   6.294   7.485 -1.7665  3.0264  0.5243
   69CHL1  H18C 7542   3.174   6.312   7.311 -1.1419 -3.1047 -2.0327
   69CHL1   C12 7543   3.182   6.035   7.333  0.2572 -0.7014  0.1012
   69CHL1  H12A 7544   3.258   6.042   7.414 -0.1652  0.8916  0.3894
   69CHL1  H12B 7545   3.150   5.930   7.314 -1.7029  0.0945 -1.3907
   69CHL1   C11 7546   3.245   6.077   7.193 -0.4042  0.2667 -0.6622
   69CHL1  H11A 7547   3.300   6.170   7.218 -1.0260  0.5854 -0.4661
   69CHL1  H11B 7548   3.320   5.999   7.166 -0.5334  0.3437 -1.2633
   69CHL1    C9 7549   3.143   6.098   7.081 -0.0687  0.2757  1.0910
   69CHL1    H9 7550   3.098   5.999   7.057 -0.1727  0.7474 -0.8783
   69CHL1   C10 7551   3.202   6.128   6.945 -0.6101 -0.2044 -0.6278
   69CHL1   C19 7552   3.294   6.253   6.964  1.3014  0.0960  0.0069
   69CHL1  H19A 7553   3.323   6.298   6.866  0.9059  0.8905  0.2437
   69CHL1  H19B 7554   3.245   6.337   7.019  1.6367 -1.0316  2.1139
   69CHL1  H19C 7555   3.385   6.223   7.020  0.1417 -2.3007  0.7513
   69CHL1    C1 7556   3.291   6.002   6.898  0.4319  0.0823  1.0113
   69CHL1   H1A 7557   3.378   6.003   6.967 -0.4378  2.2883  2.1516
   69CHL1   H1B 7558   3.232   5.909   6.910  0.9045 -0.0808  2.1246
   69CHL1    C2 7559   3.333   6.017   6.752  0.2548  0.5703 -0.9272
   69CHL1   H2A 7560   3.396   5.930   6.725  0.5805 -0.3363  2.3789
   69CHL1   H2B 7561   3.400   6.105   6.741  1.3407  0.1915  1.8893
   69CHL1   C20 7562   3.026   6.095   7.637  0.3075 -0.2331 -0.1919
   69CHL1   H20 7563   3.037   6.204   7.651 -2.5458  0.2089 -0.8660
   69CHL1   C21 7564   3.153   6.021   7.667 -0.0146 -0.5474 -0.1875
   69CHL1  H21A 7565   3.171   6.007   7.776 -0.3714  1.9189  0.2533
   69CHL1  H21B 7566   3.237   6.068   7.610  0.1855  0.1037  0.6179
   69CHL1  H21C 7567   3.140   5.918   7.628  2.6976 -1.1968  0.4089
   69CHL1   C22 7568   2.911   6.064   7.742 -0.2257 -0.1819  0.1834
   69CHL1  H22A 7569   2.813   6.112   7.723  0.3935  1.8707  1.7439
   69CHL1  H22B 7570   2.898   5.953   7.744 -2.8292  0.0737  2.1187
   69CHL1   C23 7571   2.934   6.083   7.897 -0.5842 -0.2373  0.0881
   69CHL1  H23A 7572   2.924   5.986   7.949  3.2915 -1.9853 -2.0052
   69CHL1  H23B 7573   3.033   6.125   7.926  0.6537 -2.1698 -1.0831
   69CHL1   C24 7574   2.826   6.179   7.961 -0.3322 -0.5115  0.4039
   69CHL1  H24A 7575   2.840   6.279   7.915  0.5145 -1.1072 -0.6786
   69CHL1  H24B 7576   2.718   6.155   7.948 -0.2689  0.4783 -2.6349
   69CHL1   C25 7577   2.848   6.198   8.114 -0.3116 -0.3509  0.2675
   69CHL1   H25 7578   2.956   6.217   8.131 -0.0456 -0.9917 -0.6627
   69CHL1   C26 7579   2.763   6.321   8.159 -0.6280  0.1131  0.0813
   69CHL1  H26A 7580   2.654   6.308   8.145 -0.8785  1.7805  0.2690
   69CHL1  H26B 7581   2.776   6.339   8.268  1.5635 -0.4614 -0.0327
   69CHL1  H26C 7582   2.799   6.408   8.100  0.1973 -1.2704 -1.5290
   69CHL1   C27 7583   2.815   6.075   8.194  0.1637  0.4355  0.0343
   69CHL1  H27A 7584   2.812   6.103   8.301 -1.5276 -1.8629  0.6612
   69CHL1  H27B 7585   2.712   6.050   8.158 -0.3894  1.5762  0.7592
   69CHL1  H27C 7586   2.892   6.000   8.167  0.6730  0.8321  0.3602
   70CHL1    C3 7587   6.794   2.367   7.027 -0.2989 -0.1723 -1.0133
   70CHL1    H3 7588   6.903   2.361   7.046 -0.2918  1.6774 -0.2683
   70CHL1    O3 7589   6.763   2.333   6.895 -0.0078  0.3245  0.2301
   70CHL1   H3' 7590   6.673   2.365   6.890  0.6293  2.4861  1.1818
   70CHL1    C4 7591   6.693   2.292   7.119 -0.1118 -0.0802 -0.5392
   70CHL1   H4A 7592   6.588   2.313   7.090 -1.0498 -2.7403  0.6569
   70CHL1   H4B 7593   6.710   2.183   7.110  0.0229 -0.0621 -0.5013
   70CHL1    C5 7594   6.686   2.335   7.270 -0.6429 -0.1953 -0.0393
   70CHL1    C6 7595   6.718   2.248   7.371 -0.7378 -0.9026 -0.2352
   70CHL1    H6 7596   6.743   2.146   7.338 -1.0448 -0.8786 -0.5473
   70CHL1    C7 7597   6.734   2.278   7.512 -0.2651  0.7060 -0.7447
   70CHL1   H7A 7598   6.697   2.193   7.572 -0.1263  0.3639 -1.1365
   70CHL1   H7B 7599   6.842   2.285   7.538 -0.4840  0.0697  0.4167
   70CHL1    C8 7600   6.679   2.416   7.546 -0.0911  0.0583  0.1513
   70CHL1    H8 7601   6.568   2.412   7.543 -0.0740 -2.5193  1.0483
   70CHL1   C14 7602   6.731   2.451   7.684  0.3368 -0.4413  0.2946
   70CHL1   H14 7603   6.840   2.468   7.680  0.7565 -2.1044  2.6043
   70CHL1   C15 7604   6.719   2.348   7.797  0.5352 -0.3966 -0.2771
   70CHL1  H15A 7605   6.625   2.289   7.788  0.7613 -0.7459 -0.3930
   70CHL1  H15B 7606   6.800   2.272   7.802  1.4743  0.4358 -2.0516
   70CHL1   C16 7607   6.708   2.424   7.925 -0.6589 -0.1525  0.2533
   70CHL1  H16A 7608   6.608   2.393   7.962 -0.5413 -1.9592 -0.7851
   70CHL1  H16B 7609   6.790   2.402   7.997  0.7007  0.9982 -0.8795
   70CHL1   C17 7610   6.724   2.572   7.884 -0.9346 -0.9627 -0.2023
   70CHL1   H17 7611   6.828   2.602   7.857 -0.6662 -1.2875  0.4475
   70CHL1   C13 7612   6.668   2.580   7.740  0.2303 -0.1197 -0.6033
   70CHL1   C18 7613   6.516   2.568   7.751  0.1970 -0.3649  0.0512
   70CHL1  H18A 7614   6.474   2.559   7.648  0.4322 -2.2094  0.0727
   70CHL1  H18B 7615   6.478   2.474   7.797 -2.5420  1.1601  1.1235
   70CHL1  H18C 7616   6.475   2.659   7.799  3.2028  0.4320  1.3037
   70CHL1   C12 7617   6.716   2.696   7.645 -0.6047 -0.1459 -0.1218
   70CHL1  H12A 7618   6.682   2.798   7.675 -0.4613  0.5970 -2.2917
   70CHL1  H12B 7619   6.827   2.690   7.644 -0.5997 -0.0679 -0.9612
   70CHL1   C11 7620   6.671   2.660   7.498 -0.2893  0.5178  0.0217
   70CHL1  H11A 7621   6.561   2.669   7.485 -0.3619  1.4381  1.1597
   70CHL1  H11B 7622   6.716   2.747   7.445 -3.5395  1.3317 -1.6326
   70CHL1    C9 7623   6.725   2.523   7.444  0.0473  0.0585  1.3515
   70CHL1    H9 7624   6.837   2.524   7.447  0.0387  1.6895  2.3124
   70CHL1   C10 7625   6.682   2.489   7.293  0.4458  1.0257 -0.0486
   70CHL1   C19 7626   6.536   2.542   7.269 -0.5895  0.0627  0.4179
   70CHL1  H19A 7627   6.459   2.502   7.338 -0.5555 -0.1174  0.3515
   70CHL1  H19B 7628   6.537   2.653   7.274  1.6498  0.1282 -0.3636
   70CHL1  H19C 7629   6.504   2.506   7.169  1.4382 -0.2735 -0.1644
   70CHL1    C1 7630   6.776   2.558   7.186  0.3755  0.1851 -0.2069
   70CHL1   H1A 7631   6.757   2.667   7.194 -1.2917 -0.1420  0.9074
   70CHL1   H1B 7632   6.883   2.535   7.205 -0.1191 -0.1650  2.4795
   70CHL1    C2 7633   6.761   2.514   7.047 -0.0668 -0.1683 -0.5729
   70CHL1   H2A 7634   6.837   2.563   6.983 -0.7698  0.3179 -1.0591
   70CHL1   H2B 7635   6.661   2.548   7.011  0.1964  1.1102 -0.1068
   70CHL1   C20 7636   6.666   2.667   7.989  0.1848  0.5465  0.5175
   70CHL1   H20 7637   6.563   2.636   8.018  0.4131  0.4445  1.2461
   70CHL1   C21 7638   6.667   2.818   7.938 -0.0525 -0.1708 -0.0589
   70CHL1  H21A 7639   6.675   2.879   8.030  2.4945  1.2843 -1.1569
   70CHL1  H21B 7640   6.590   2.850   7.865 -0.5662  1.6543  1.2293
   70CHL1  H21C 7641   6.765   2.834   7.888 -0.7377 -1.8553 -2.0953
   70CHL1   C22 7642   6.759   2.664   8.112 -0.2328 -0.8143 -0.9083
   70CHL1  H22A 7643   6.826   2.575   8.120  0.8960 -0.0607 -1.6789
   70CHL1  H22B 7644   6.829   2.748   8.097 -1.5881  0.2589 -1.3697
   70CHL1   C23 7645   6.692   2.676   8.249  0.0427 -0.7939  1.1561
   70CHL1  H23A 7646   6.622   2.763   8.255  1.7867  0.9401 -1.5077
   70CHL1  H23B 7647   6.628   2.586   8.255  1.5355 -2.1366 -1.3904
   70CHL1   C24 7648   6.798   2.688   8.361  0.3695 -0.1810 -0.2293
   70CHL1  H24A 7649   6.861   2.596   8.355  0.7702  0.0943 -0.3457
   70CHL1  H24B 7650   6.869   2.769   8.332 -1.4243  0.3188 -3.8645
   70CHL1   C25 7651   6.747   2.714   8.506  0.4297  0.3546  0.4183
   70CHL1   H25 7652   6.835   2.699   8.572 -0.8405 -2.9413  1.5721
   70CHL1   C26 7653   6.703   2.858   8.525 -0.2673 -0.1951  0.2520
   70CHL1  H26A 7654   6.722   2.878   8.633  3.4628 -1.2457 -0.0676
   70CHL1  H26B 7655   6.758   2.931   8.463 -0.8870  0.8125  0.8534
   70CHL1  H26C 7656   6.597   2.871   8.495 -0.2143 -1.4215 -0.5313
   70CHL1   C27 7657   6.642   2.626   8.564  0.6560 -0.3325 -0.0566
   70CHL1  H27A 7658   6.547   2.652   8.514  0.2769  2.3672  1.8501
   70CHL1  H27B 7659   6.680   2.524   8.543 -1.8926 -1.0390 -1.6540
   70CHL1  H27C 7660   6.618   2.654   8.669  0.5226  0.2730 -0.2412
   71CHL1    C3 7661   1.494   3.493   6.851 -0.3620  0.0324  0.5059
   71CHL1    H3 7662   1.388   3.493   6.882 -1.7216 -0.4564 -3.5802
   71CHL1    O3 7663   1.492   3.495   6.711  0.4798 -0.6520  0.2121
   71CHL1   H3' 7664   1.402   3.476   6.684  0.4010 -0.7359  0.5339
   71CHL1    C4 7665   1.575   3.614   6.916  0.8394 -0.4111  0.3986
   71CHL1   H4A 7666   1.676   3.622   6.871  0.5613  0.8831 -0.0231
   71CHL1   H4B 7667   1.527   3.701   6.868 -1.5247 -2.4413 -1.1920
   71CHL1    C5 7668   1.585   3.609   7.063  0.7449  0.7416  0.3296
   71CHL1    C6 7669   1.544   3.708   7.144 -0.5015 -0.0935 -0.1126
   71CHL1    H6 7670   1.495   3.793   7.095 -0.3636 -1.3310 -2.5668
   71CHL1    C7 7671   1.559   3.708   7.295 -0.1312 -0.0243 -0.2034
   71CHL1   H7A 7672   1.601   3.806   7.327  1.3608 -0.6077 -0.2835
   71CHL1   H7B 7673   1.454   3.710   7.332 -0.2126 -1.1846 -0.3470
   71CHL1    C8 7674   1.644   3.587   7.346  0.3076 -0.9073 -0.8053
   71CHL1    H8 7675   1.753   3.608   7.348  0.6567 -2.6385 -0.7524
   71CHL1   C14 7676   1.598   3.566   7.496  0.0579  0.3208  0.6306
   71CHL1   H14 7677   1.488   3.551   7.483  0.1921  1.3284 -2.1342
   71CHL1   C15 7678   1.598   3.680   7.593 -0.1591 -0.5556  0.8663
   71CHL1  H15A 7679   1.692   3.739   7.580 -1.1901  1.0036  0.1251
   71CHL1  H15B 7680   1.510   3.744   7.568 -0.1358 -0.5587  0.7742
   71CHL1   C16 7681   1.581   3.618   7.733  0.4200 -0.8416 -0.0106
   71CHL1  H16A 7682   1.667   3.657   7.791 -0.4390  3.7625 -1.4201
   71CHL1  H16B 7683   1.478   3.628   7.775  0.1696  0.9457 -0.9519
   71CHL1   C17 7684   1.605   3.465   7.707 -0.8931 -1.0635  0.2090
   71CHL1   H17 7685   1.504   3.418   7.705 -0.8833 -1.0704 -0.2580
   71CHL1   C13 7686   1.665   3.450   7.565  0.0695 -0.1486  0.8717
   71CHL1   C18 7687   1.823   3.465   7.569  0.1353  0.9744 -0.0649
   71CHL1  H18A 7688   1.869   3.383   7.628 -2.4978  0.3690  1.3384
   71CHL1  H18B 7689   1.866   3.459   7.467  0.7020  0.1116  0.2192
   71CHL1  H18C 7690   1.842   3.569   7.602 -2.4729  1.6601 -0.5100
   71CHL1   C12 7691   1.638   3.316   7.484  0.8743 -0.0396 -0.1122
   71CHL1  H12A 7692   1.686   3.224   7.523  1.8975  0.8233  0.7238
   71CHL1  H12B 7693   1.527   3.303   7.480  0.9351 -0.3753 -1.1436
   71CHL1   C11 7694   1.673   3.336   7.332  1.7960 -0.2678 -0.5406
   71CHL1  H11A 7695   1.784   3.337   7.327  1.8451  1.0937  0.2471
   71CHL1  H11B 7696   1.648   3.246   7.272  2.6059 -0.6519 -0.3087
   71CHL1    C9 7697   1.610   3.461   7.272 -0.7051 -0.1403  0.0930
   71CHL1    H9 7698   1.500   3.447   7.281 -0.6223  0.0718  1.7031
   71CHL1   C10 7699   1.640   3.469   7.114 -0.3149  0.5602  0.0069
   71CHL1   C19 7700   1.788   3.460   7.074  0.8140 -0.7750  0.0739
   71CHL1  H19A 7701   1.841   3.534   7.140 -1.3579  2.0826 -1.1734
   71CHL1  H19B 7702   1.823   3.356   7.088 -0.0870 -1.1495 -0.4475
   71CHL1  H19C 7703   1.801   3.482   6.966 -1.6164 -0.6140 -0.2254
   71CHL1    C1 7704   1.565   3.349   7.044  0.3718 -0.2366 -0.0459
   71CHL1   H1A 7705   1.621   3.255   7.062 -0.1391 -0.2667  1.5801
   71CHL1   H1B 7706   1.463   3.336   7.087 -0.0555  2.1022 -0.2400
   71CHL1    C2 7707   1.546   3.352   6.893  0.7666 -0.5656 -0.5272
   71CHL1   H2A 7708   1.475   3.279   6.850 -1.2441  0.8178  0.3289
   71CHL1   H2B 7709   1.644   3.315   6.854  1.0160 -1.4723  0.8426
   71CHL1   C20 7710   1.679   3.394   7.824  0.0218 -0.5158 -0.6849
   71CHL1   H20 7711   1.783   3.432   7.815 -0.5049  1.0981 -0.1562
   71CHL1   C21 7712   1.674   3.245   7.807  0.0939  0.0979  0.0009
   71CHL1  H21A 7713   1.723   3.210   7.901  0.3635  2.6599  0.8899
   71CHL1  H21B 7714   1.718   3.207   7.712 -1.8291 -0.0984 -0.8517
   71CHL1  H21C 7715   1.567   3.215   7.811 -0.9288  3.2250 -1.3950
   71CHL1   C22 7716   1.626   3.419   7.961 -0.1663  0.8751  0.7468
   71CHL1  H22A 7717   1.700   3.373   8.030  0.8186  2.5657  0.8808
   71CHL1  H22B 7718   1.646   3.528   7.966  3.0005  0.5630 -1.6930
   71CHL1   C23 7719   1.485   3.379   7.997 -0.2235 -0.1250 -0.7207
   71CHL1  H23A 7720   1.413   3.423   7.925 -0.6084  3.4423  1.5647
   71CHL1  H23B 7721   1.456   3.272   8.004 -1.9677  0.4246  1.9411
   71CHL1   C24 7722   1.457   3.431   8.141 -0.0045 -0.6203  0.6655
   71CHL1  H24A 7723   1.370   3.375   8.183  0.3316  0.1332  2.4513
   71CHL1  H24B 7724   1.541   3.402   8.207  0.2221 -0.6129  0.3821
   71CHL1   C25 7725   1.436   3.585   8.144  0.5671  0.0427  0.1090
   71CHL1   H25 7726   1.504   3.637   8.074 -0.9052  2.0577  0.0826
   71CHL1   C26 7727   1.291   3.612   8.109 -0.2994 -0.0090  0.4450
   71CHL1  H26A 7728   1.238   3.572   8.198  3.9254 -0.1301  3.2055
   71CHL1  H26B 7729   1.255   3.718   8.109  0.7476  0.3617  0.1222
   71CHL1  H26C 7730   1.268   3.553   8.018  1.0028 -1.3730  0.9533
   71CHL1   C27 7731   1.466   3.643   8.282 -0.3608  0.4432  0.3510
   71CHL1  H27A 7732   1.421   3.582   8.363 -1.6500  1.1121  0.1716
   71CHL1  H27B 7733   1.573   3.666   8.297 -0.3283  1.5444 -1.2908
   71CHL1  H27C 7734   1.407   3.737   8.287 -0.9734  0.1438 -0.7410
   72CHL1    C3 7735   0.246   2.762   6.859  0.1255 -0.1132 -0.1988
   72CHL1    H3 7736   0.135   2.755   6.860  0.1409 -0.4376 -0.5486
   72CHL1    O3 7737   0.293   2.730   6.725  0.5687 -0.1195 -0.3141
   72CHL1   H3' 7738   0.388   2.740   6.736  1.1930 -2.0364 -3.1107
   72CHL1    C4 7739   0.302   2.907   6.887 -0.2673 -0.0481  0.6728
   72CHL1   H4A 7740   0.408   2.909   6.855  0.0338 -1.9103  1.4317
   72CHL1   H4B 7741   0.244   2.968   6.814 -0.6225 -1.1366  0.0112
   72CHL1    C5 7742   0.283   2.947   7.033  0.3768 -0.2855 -0.2059
   72CHL1    C6 7743   0.222   3.064   7.060 -0.5890 -0.0668 -0.2915
   72CHL1    H6 7744   0.198   3.131   6.976 -0.6438 -0.4976 -0.6207
   72CHL1    C7 7745   0.180   3.105   7.193 -0.8504 -0.9032  0.9161
   72CHL1   H7A 7746   0.197   3.214   7.204  1.2936 -1.3006  2.1689
   72CHL1   H7B 7747   0.069   3.095   7.198 -0.9920 -0.9510 -1.3465
   72CHL1    C8 7748   0.258   3.036   7.297 -0.2883  0.2234  0.0211
   72CHL1    H8 7749   0.365   3.068   7.296 -1.1186  3.4803 -1.7487
   72CHL1   C14 7750   0.194   3.068   7.431  0.1527 -0.6816 -0.4528
   72CHL1   H14 7751   0.091   3.027   7.422 -0.0069 -0.4610  0.2712
   72CHL1   C15 7752   0.179   3.217   7.469  0.1420  0.3572  0.0266
   72CHL1  H15A 7753   0.269   3.279   7.448 -0.5266  1.4264  0.2581
   72CHL1  H15B 7754   0.094   3.257   7.409 -2.2015 -0.2161  2.7458
   72CHL1   C16 7755   0.133   3.211   7.620  0.2230  0.0594 -0.6048
   72CHL1  H16A 7756   0.182   3.292   7.679  0.3927  0.2310 -0.9765
   72CHL1  H16B 7757   0.023   3.228   7.623  0.2789  0.3725 -0.2827
   72CHL1   C17 7758   0.171   3.066   7.672  0.0442 -0.1475  0.5668
   72CHL1   H17 7759   0.078   3.005   7.670  0.3381 -0.5850 -0.0836
   72CHL1   C13 7760   0.252   3.005   7.550  0.1469 -0.0874  0.4374
   72CHL1   C18 7761   0.402   3.043   7.566 -0.3664 -0.1044  0.0637
   72CHL1  H18A 7762   0.464   3.010   7.480  0.4341  0.8406  0.2523
   72CHL1  H18B 7763   0.415   3.153   7.565 -0.5279 -0.0883 -0.7060
   72CHL1  H18C 7764   0.456   2.993   7.650 -2.3468 -1.5028  0.5806
   72CHL1   C12 7765   0.245   2.855   7.533 -0.6965  0.8912 -0.1228
   72CHL1  H12A 7766   0.284   2.790   7.614 -1.5609  0.8709  0.2913
   72CHL1  H12B 7767   0.136   2.834   7.527 -0.5525  0.0151  0.2543
   72CHL1   C11 7768   0.303   2.805   7.402 -0.1072 -0.9477  0.0704
   72CHL1  H11A 7769   0.412   2.821   7.393 -0.2881  1.5984  1.4087
   72CHL1  H11B 7770   0.279   2.697   7.392 -1.2391 -0.7241  0.2309
   72CHL1    C9 7771   0.253   2.881   7.272  0.0279 -0.3214  0.2367
   72CHL1    H9 7772   0.144   2.859   7.264 -0.6661  2.9555 -1.0414
   72CHL1   C10 7773   0.318   2.848   7.143 -0.7730  0.2351  0.5617
   72CHL1   C19 7774   0.475   2.851   7.141 -0.2261  0.0524 -0.1834
   72CHL1  H19A 7775   0.512   2.949   7.178  0.8442 -0.2585 -0.3997
   72CHL1  H19B 7776   0.513   2.781   7.218  0.5509  1.1780  0.4748
   72CHL1  H19C 7777   0.524   2.815   7.048 -2.1115 -0.7999 -0.9138
   72CHL1    C1 7778   0.262   2.706   7.104  0.2414  1.1488 -0.2429
   72CHL1   H1A 7779   0.301   2.632   7.178  0.1295  1.3270 -0.0064
   72CHL1   H1B 7780   0.151   2.713   7.106  0.1913  0.3713  0.2071
   72CHL1    C2 7781   0.295   2.662   6.961  0.1322  0.4949 -0.4667
   72CHL1   H2A 7782   0.252   2.561   6.942  0.0470  0.1331  1.4778
   72CHL1   H2B 7783   0.405   2.657   6.967  0.0307 -1.5504  0.4898
   72CHL1   C20 7784   0.219   3.059   7.821  0.0911 -0.3584 -0.3863
   72CHL1   H20 7785   0.320   3.105   7.826 -1.0270  2.1464  1.1781
   72CHL1   C21 7786   0.243   2.914   7.866  0.3021  0.0225 -0.1917
   72CHL1  H21A 7787   0.323   2.870   7.804  0.7577  1.7255 -0.8661
   72CHL1  H21B 7788   0.154   2.850   7.848 -0.1196  0.1530  1.3000
   72CHL1  H21C 7789   0.264   2.907   7.975  2.7027  2.0259 -0.4470
   72CHL1   C22 7790   0.130   3.136   7.923 -0.3017 -1.0149 -0.1976
   72CHL1  H22A 7791   0.141   3.244   7.899  0.1613 -1.1282 -0.5165
   72CHL1  H22B 7792   0.028   3.107   7.893 -1.1059  1.4979 -0.0854
   72CHL1   C23 7793   0.165   3.112   8.073  0.4154 -0.4676 -0.1799
   72CHL1  H23A 7794   0.100   3.025   8.098  1.1474 -1.3549 -1.2415
   72CHL1  H23B 7795   0.272   3.084   8.079  0.1221 -1.5872  0.1305
   72CHL1   C24 7796   0.141   3.226   8.162 -0.7205 -0.5113  0.1929
   72CHL1  H24A 7797   0.196   3.304   8.105  0.9931 -1.6051  0.2962
   72CHL1  H24B 7798   0.037   3.264   8.175 -0.3556  0.3676  0.6412
   72CHL1   C25 7799   0.211   3.214   8.299  0.6982  0.3102  0.6185
   72CHL1   H25 7800   0.316   3.177   8.300  0.5427 -0.2649  3.0090
   72CHL1   C26 7801   0.219   3.345   8.375  0.2089 -0.6288  0.1814
   72CHL1  H26A 7802   0.117   3.387   8.372  1.2051  1.8887 -1.0385
   72CHL1  H26B 7803   0.248   3.316   8.479 -0.7290  2.3325  1.3771
   72CHL1  H26C 7804   0.292   3.420   8.338 -0.8721 -0.0146 -0.7325
   72CHL1   C27 7805   0.135   3.119   8.395  0.2347  0.1091 -0.1038
   72CHL1  H27A 7806   0.194   3.100   8.488 -1.6043 -0.0259  1.0871
   72CHL1  H27B 7807   0.040   3.168   8.424  1.4837  1.4886  1.9509
   72CHL1  H27C 7808   0.117   3.023   8.343 -0.4254  0.9763 -1.5427
   73CHL1    C3 7809   2.184   5.087   6.678  0.4689  0.2936 -0.3155
   73CHL1    H3 7810   2.252   5.167   6.716  1.8471  0.0097 -2.0696
   73CHL1    O3 7811   2.170   5.106   6.543 -0.1143 -0.0124 -0.4917
   73CHL1   H3' 7812   2.162   5.202   6.543  0.7970  0.0808 -1.3580
   73CHL1    C4 7813   2.229   4.944   6.722 -0.1967  0.3076 -0.6199
   73CHL1   H4A 7814   2.162   4.871   6.672 -0.2024 -0.6565  0.7396
   73CHL1   H4B 7815   2.330   4.918   6.683 -0.6219  0.4654 -1.8574
   73CHL1    C5 7816   2.239   4.927   6.873 -0.3047 -0.2978  0.1185
   73CHL1    C6 7817   2.355   4.895   6.930  0.4684 -0.0406  0.7560
   73CHL1    H6 7818   2.447   4.883   6.871 -0.1601 -1.8023  0.0944
   73CHL1    C7 7819   2.366   4.882   7.076  0.2606 -0.3485  0.7054
   73CHL1   H7A 7820   2.407   4.780   7.092  0.5195 -0.5165 -0.8361
   73CHL1   H7B 7821   2.440   4.947   7.127  0.5768  0.8592 -1.1787
   73CHL1    C8 7822   2.229   4.878   7.154 -0.2977  0.0531  0.3042
   73CHL1    H8 7823   2.182   4.778   7.146  1.7094 -0.9204  0.0501
   73CHL1   C14 7824   2.252   4.920   7.302 -0.5141 -0.5351  0.5660
   73CHL1   H14 7825   2.299   5.021   7.292  1.0395 -1.4448 -2.9421
   73CHL1   C15 7826   2.358   4.853   7.385 -0.0646  0.1460 -0.3293
   73CHL1  H15A 7827   2.355   4.746   7.358 -1.6308  0.2828 -0.7640
   73CHL1  H15B 7828   2.456   4.888   7.347  0.0277 -1.1790 -1.3550
   73CHL1   C16 7829   2.325   4.876   7.528  0.2322  0.2684 -0.3013
   73CHL1  H16A 7830   2.296   4.784   7.583 -1.7313  0.0065 -1.6518
   73CHL1  H16B 7831   2.408   4.928   7.579 -0.3067  0.0217  0.8483
   73CHL1   C17 7832   2.198   4.964   7.521 -0.2392 -0.2964 -0.4778
   73CHL1   H17 7833   2.243   5.065   7.507  1.1075 -0.8075  0.0497
   73CHL1   C13 7834   2.123   4.927   7.388 -0.5700  0.6325 -1.0937
   73CHL1   C18 7835   2.059   4.786   7.416  0.2580 -0.4125 -0.1170
   73CHL1  H18A 7836   1.963   4.776   7.472 -0.4899 -2.1771 -1.5958
   73CHL1  H18B 7837   2.029   4.739   7.320 -0.0544 -1.0030  0.2596
   73CHL1  H18C 7838   2.129   4.714   7.464  0.4870 -0.9040 -1.1628
   73CHL1   C12 7839   2.024   5.032   7.325 -0.2886 -0.2151 -0.0514
   73CHL1  H12A 7840   1.922   5.017   7.368  0.0130  0.4136  0.9055
   73CHL1  H12B 7841   2.050   5.137   7.349 -1.3330 -0.3348  1.7899
   73CHL1   C11 7842   2.005   4.988   7.177 -0.6729 -0.4995  0.3292
   73CHL1  H11A 7843   1.955   4.889   7.177 -1.3824 -0.1463 -0.6440
   73CHL1  H11B 7844   1.933   5.061   7.135 -0.7490 -0.6652  0.1719
   73CHL1    C9 7845   2.134   4.976   7.096  0.0784 -0.3939 -1.1548
   73CHL1    H9 7846   2.180   5.075   7.112 -0.9105 -0.2952  1.5595
   73CHL1   C10 7847   2.105   4.962   6.947  0.2015 -0.0315  0.3008
   73CHL1   C19 7848   2.003   4.852   6.912  0.4140  0.2944 -0.0448
   73CHL1  H19A 7849   2.022   4.764   6.976  2.8199  0.8908  0.1539
   73CHL1  H19B 7850   1.901   4.893   6.930 -1.8237 -3.9033 -1.8801
   73CHL1  H19C 7851   2.004   4.804   6.813 -1.7614  0.6616 -0.2965
   73CHL1    C1 7852   2.054   5.103   6.899 -0.9603 -0.4075  0.5383
   73CHL1   H1A 7853   1.951   5.117   6.938 -0.5950  1.2065  0.9876
   73CHL1   H1B 7854   2.119   5.187   6.929 -1.3130 -0.3666  1.1961
   73CHL1    C2 7855   2.047   5.117   6.746  0.2140  0.3898 -0.1543
   73CHL1   H2A 7856   2.013   5.219   6.720 -2.4848 -0.0756  1.1591
   73CHL1   H2B 7857   1.981   5.046   6.693 -0.7593  1.3370 -0.2325
   73CHL1   C20 7858   2.114   4.968   7.656 -0.1164 -0.5832  0.5041
   73CHL1   H20 7859   2.063   4.870   7.670  0.0138 -0.6435  0.5673
   73CHL1   C21 7860   2.009   5.075   7.641  0.4554 -0.0970  0.1585
   73CHL1  H21A 7861   2.037   5.170   7.590 -1.2334  0.0007 -0.6651
   73CHL1  H21B 7862   1.977   5.110   7.742 -0.1617  0.7196 -0.3006
   73CHL1  H21C 7863   1.923   5.043   7.578  2.5131 -0.2267 -2.7588
   73CHL1   C22 7864   2.206   4.991   7.779 -0.3455 -0.1618  0.9503
   73CHL1  H22A 7865   2.268   4.900   7.788 -1.2599 -1.0069 -0.9326
   73CHL1  H22B 7866   2.272   5.079   7.762 -0.4583 -0.2259  0.1227
   73CHL1   C23 7867   2.137   4.999   7.913 -0.0791 -0.3955  0.0320
   73CHL1  H23A 7868   2.211   5.031   7.989 -0.1111  1.6368 -0.7282
   73CHL1  H23B 7869   2.053   5.071   7.921 -1.1364 -1.6495  0.8527
   73CHL1   C24 7870   2.073   4.860   7.942 -0.1849  0.2376  0.2158
   73CHL1  H24A 7871   1.995   4.838   7.866 -1.6232 -1.7524  2.1277
   73CHL1  H24B 7872   2.140   4.774   7.920  0.1951  0.5025  0.3421
   73CHL1   C25 7873   2.013   4.848   8.084 -0.6318  0.0898 -0.0203
   73CHL1   H25 7874   1.953   4.756   8.096  0.0247 -0.8742 -3.1152
   73CHL1   C26 7875   2.119   4.838   8.196 -0.7760  0.3745  0.4545
   73CHL1  H26A 7876   2.076   4.852   8.298  0.9618  2.2312  1.0027
   73CHL1  H26B 7877   2.172   4.741   8.196 -2.0027 -0.4033 -2.7125
   73CHL1  H26C 7878   2.191   4.921   8.178 -2.9957  2.5716  1.1347
   73CHL1   C27 7879   1.916   4.963   8.106 -0.9302 -0.7974 -0.0462
   73CHL1  H27A 7880   1.847   4.992   8.025  1.4848  1.3198 -1.4845
   73CHL1  H27B 7881   1.864   4.945   8.203  0.2280  0.8504  0.9288
   73CHL1  H27C 7882   1.971   5.055   8.133  2.5215 -3.2330  2.1581
   74CHL1    C3 7883   0.464   3.437   6.921 -0.3101  0.4268 -0.5830
   74CHL1    H3 7884   0.354   3.452   6.930 -0.4650 -1.3142  1.1014
   74CHL1    O3 7885   0.498   3.399   6.793  0.3251  0.2345  0.0237
   74CHL1   H3' 7886   0.592   3.412   6.782  0.5294  0.3339  1.6904
   74CHL1    C4 7887   0.546   3.568   6.966 -0.2095 -0.3964  0.4339
   74CHL1   H4A 7888   0.655   3.561   6.944 -0.4990  1.0761 -1.8364
   74CHL1   H4B 7889   0.508   3.645   6.895 -0.8827  0.6863  1.9166
   74CHL1    C5 7890   0.525   3.604   7.112 -0.2729  0.6116 -0.1010
   74CHL1    C6 7891   0.465   3.722   7.140  0.1363 -0.5661 -0.7412
   74CHL1    H6 7892   0.436   3.786   7.056 -1.2855  1.2809  1.0530
   74CHL1    C7 7893   0.452   3.770   7.282  0.3670 -0.0193 -0.6272
   74CHL1   H7A 7894   0.511   3.864   7.289  0.2642  0.1381 -1.6620
   74CHL1   H7B 7895   0.345   3.790   7.303 -0.1854 -3.3931  0.4027
   74CHL1    C8 7896   0.507   3.676   7.394 -0.2284 -0.2487 -0.6560
   74CHL1    H8 7897   0.616   3.698   7.400 -0.7195  2.8354 -1.5473
   74CHL1   C14 7898   0.429   3.703   7.517  0.3395  0.1421 -0.8638
   74CHL1   H14 7899   0.321   3.689   7.493  0.2931 -0.2666 -0.4401
   74CHL1   C15 7900   0.427   3.851   7.568  1.0988 -0.5307 -0.1601
   74CHL1  H15A 7901   0.531   3.891   7.570  1.4131 -1.3587  0.9115
   74CHL1  H15B 7902   0.363   3.918   7.508  0.9054  0.0469  0.6832
   74CHL1   C16 7903   0.375   3.834   7.714 -0.3705  0.1119  0.9523
   74CHL1  H16A 7904   0.447   3.885   7.782  2.9865 -0.4556 -1.9108
   74CHL1  H16B 7905   0.272   3.874   7.731 -0.5319 -0.7391  2.1572
   74CHL1   C17 7906   0.383   3.684   7.753  0.2396  0.4336  0.1115
   74CHL1   H17 7907   0.284   3.638   7.735  0.8735 -0.4211 -1.4350
   74CHL1   C13 7908   0.476   3.625   7.640  0.0381  0.2672 -0.0096
   74CHL1   C18 7909   0.622   3.658   7.658 -0.2262 -0.2918 -0.0664
   74CHL1  H18A 7910   0.669   3.602   7.742 -0.3432 -0.7323 -0.2925
   74CHL1  H18B 7911   0.674   3.626   7.566 -0.5957 -3.1366  0.6293
   74CHL1  H18C 7912   0.642   3.766   7.679 -3.8663  0.9507 -2.0532
   74CHL1   C12 7913   0.449   3.480   7.602  0.2002  0.1491  0.1483
   74CHL1  H12A 7914   0.479   3.413   7.685  0.2887  1.0924  0.9070
   74CHL1  H12B 7915   0.341   3.470   7.580  1.0223 -1.4165 -3.9814
   74CHL1   C11 7916   0.520   3.440   7.473 -0.4120 -0.1852 -0.6928
   74CHL1  H11A 7917   0.627   3.427   7.501 -0.8204  0.1529  1.1361
   74CHL1  H11B 7918   0.483   3.336   7.458  0.9432 -0.9776  1.0215
   74CHL1    C9 7919   0.481   3.530   7.358  0.4349 -0.1887 -0.8248
   74CHL1    H9 7920   0.371   3.515   7.357  0.4425 -0.6378  1.1955
   74CHL1   C10 7921   0.547   3.496   7.219  0.5287  0.4714  0.2327
   74CHL1   C19 7922   0.697   3.476   7.236  0.2042 -0.0179  0.1989
   74CHL1  H19A 7923   0.710   3.387   7.301  1.6390  0.3795  0.4774
   74CHL1  H19B 7924   0.755   3.455   7.144  0.9781  0.5359  0.5525
   74CHL1  H19C 7925   0.742   3.572   7.266  0.7041  0.5495 -2.1662
   74CHL1    C1 7926   0.477   3.363   7.170  0.3097 -0.2614 -0.2392
   74CHL1   H1A 7927   0.511   3.279   7.235  0.9486  0.4279  0.3359
   74CHL1   H1B 7928   0.367   3.372   7.184  0.4943  1.2323  0.4840
   74CHL1    C2 7929   0.501   3.324   7.022  0.4806  0.0771 -0.6175
   74CHL1   H2A 7930   0.445   3.231   7.000 -3.1650  2.4037 -2.0303
   74CHL1   H2B 7931   0.608   3.294   7.013 -0.2432 -2.2536 -2.2527
   74CHL1   C20 7932   0.424   3.671   7.898 -0.7361  0.2848  0.0787
   74CHL1   H20 7933   0.525   3.716   7.901  1.1441 -3.2629 -2.6040
   74CHL1   C21 7934   0.458   3.521   7.932  0.3412 -0.9095  0.2218
   74CHL1  H21A 7935   0.449   3.507   8.042  0.0838 -0.7620  0.2208
   74CHL1  H21B 7936   0.564   3.504   7.902  1.0271  0.9907  1.3542
   74CHL1  H21C 7937   0.389   3.456   7.875 -1.8663  1.8236 -0.4876
   74CHL1   C22 7938   0.330   3.736   7.998 -0.1733  0.0575  0.7215
   74CHL1  H22A 7939   0.290   3.820   7.937 -2.3976 -1.5155 -0.1362
   74CHL1  H22B 7940   0.241   3.670   8.012  0.0632 -0.3843  0.1520
   74CHL1   C23 7941   0.390   3.788   8.127 -0.0300 -0.2618  0.1272
   74CHL1  H23A 7942   0.308   3.830   8.189 -1.3192  0.6615 -2.1018
   74CHL1  H23B 7943   0.444   3.711   8.186  0.5536 -0.9445 -1.2482
   74CHL1   C24 7944   0.485   3.906   8.103  0.2328  0.3252  0.1341
   74CHL1  H24A 7945   0.584   3.864   8.076  0.9474  1.0644  1.4677
   74CHL1  H24B 7946   0.433   3.971   8.030 -1.7923  0.5583  1.6996
   74CHL1   C25 7947   0.510   3.985   8.230 -0.2325 -0.4729  0.0442
   74CHL1   H25 7948   0.409   4.012   8.269 -0.9809 -1.6109 -1.0392
   74CHL1   C26 7949   0.586   3.893   8.335  0.7613 -0.7001  0.4282
   74CHL1  H26A 7950   0.533   3.795   8.335  0.4188 -0.5867 -2.2326
   74CHL1  H26B 7951   0.693   3.887   8.308  0.5391  2.2700 -1.5924
   74CHL1  H26C 7952   0.564   3.937   8.435 -0.2401 -0.2817  0.0425
   74CHL1   C27 7953   0.568   4.130   8.206  0.4799  0.4291  0.4353
   74CHL1  H27A 7954   0.634   4.130   8.117  0.3516 -2.0938  0.2522
   74CHL1  H27B 7955   0.482   4.192   8.174  0.1909 -0.7419 -1.1709
   74CHL1  H27C 7956   0.630   4.177   8.286  0.0237  0.2662  0.8899
   75CHL1    C3 7957   2.924   0.226   6.667 -0.3163  0.2223  0.3190
   75CHL1    H3 7958   2.863   0.135   6.683  2.5941 -1.6587  1.3409
   75CHL1    O3 7959   2.928   0.256   6.527  0.4114 -0.9378 -0.1488
   75CHL1   H3' 7960   2.970   0.180   6.486 -0.5245 -0.0760 -2.8691
   75CHL1    C4 7961   2.875   0.349   6.738 -0.2983 -0.2171 -1.2523
   75CHL1   H4A 7962   2.941   0.436   6.719  1.1411 -1.2346 -1.1153
   75CHL1   H4B 7963   2.772   0.377   6.711 -0.6781  1.0133  1.1815
   75CHL1    C5 7964   2.879   0.318   6.890 -0.2895 -0.1151  0.2387
   75CHL1    C6 7965   2.766   0.328   6.962  0.5206 -0.3986  0.2523
   75CHL1    H6 7966   2.677   0.369   6.912  1.6911 -0.2329 -1.7767
   75CHL1    C7 7967   2.763   0.318   7.110  0.2276  0.1839 -0.0983
   75CHL1   H7A 7968   2.716   0.410   7.152 -1.1779 -0.0765 -1.0291
   75CHL1   H7B 7969   2.705   0.230   7.146 -0.5043  0.8733  0.4514
   75CHL1    C8 7970   2.910   0.300   7.170  0.0344  0.1131 -0.3681
   75CHL1    H8 7971   2.952   0.401   7.191  0.8128 -0.4007  0.6285
   75CHL1   C14 7972   2.900   0.241   7.310  0.8160  0.8797 -0.7528
   75CHL1   H14 7973   2.851   0.144   7.291 -1.6622  2.2499 -1.9287
   75CHL1   C15 7974   2.799   0.311   7.409  0.3541 -0.6237  0.4904
   75CHL1  H15A 7975   2.804   0.422   7.396  0.8910 -0.7368 -0.3441
   75CHL1  H15B 7976   2.698   0.281   7.375  0.9253 -0.4996 -1.4450
   75CHL1   C16 7977   2.840   0.260   7.543 -0.1522  0.0700  0.0799
   75CHL1  H16A 7978   2.838   0.345   7.614 -1.8383  0.4950 -0.4225
   75CHL1  H16B 7979   2.760   0.188   7.571  1.0918 -1.8657 -1.1234
   75CHL1   C17 7980   2.967   0.169   7.531 -0.3908  0.3185  0.3604
   75CHL1   H17 7981   2.941   0.064   7.508 -0.2373  0.6694 -1.6182
   75CHL1   C13 7982   3.021   0.219   7.390 -0.1424  0.0646  0.0408
   75CHL1   C18 7983   3.097   0.347   7.409 -0.8082 -0.6724  0.0493
   75CHL1  H18A 7984   3.183   0.342   7.479 -0.3051 -1.1843 -0.5866
   75CHL1  H18B 7985   3.141   0.382   7.313  1.0260 -0.0570  1.0483
   75CHL1  H18C 7986   3.032   0.431   7.439 -2.7479 -2.3686  0.8602
   75CHL1   C12 7987   3.101   0.118   7.306 -0.1915 -0.5409 -0.1748
   75CHL1  H12A 7988   3.191   0.085   7.362 -0.4061  1.5456  1.5284
   75CHL1  H12B 7989   3.034   0.031   7.293 -2.6845  1.2436  0.1357
   75CHL1   C11 7990   3.125   0.168   7.163  0.2482 -0.3397  0.3692
   75CHL1  H11A 7991   3.194   0.254   7.165 -0.5357  0.3679 -1.0870
   75CHL1  H11B 7992   3.165   0.082   7.103  2.0293  0.6847  0.0147
   75CHL1    C9 7993   2.991   0.208   7.088  0.4367  0.2636 -0.1806
   75CHL1    H9 7994   2.934   0.113   7.071 -2.0511  2.1213 -3.4768
   75CHL1   C10 7995   3.009   0.272   6.949  0.1648  0.4392 -0.4020
   75CHL1   C19 7996   3.100   0.395   6.957 -0.7227 -0.1831 -0.4997
   75CHL1  H19A 7997   3.123   0.442   6.859 -0.1641  1.9758  0.6197
   75CHL1  H19B 7998   3.063   0.480   7.017  0.4593 -0.2738  0.3896
   75CHL1  H19C 7999   3.201   0.376   6.999 -1.1238 -2.3618 -0.3778
   75CHL1    C1 8000   3.079   0.164   6.862  0.0170 -0.3777 -1.0170
   75CHL1   H1A 8001   3.185   0.161   6.893 -0.3444  0.1254  0.3597
   75CHL1   H1B 8002   3.036   0.064   6.883  1.1182 -0.5163  0.7116
   75CHL1    C2 8003   3.069   0.190   6.709  0.4991  0.1369 -0.2463
   75CHL1   H2A 8004   3.096   0.097   6.654  1.6248 -0.6451  1.5411
   75CHL1   H2B 8005   3.148   0.266   6.690  0.7653  0.0191  0.3649
   75CHL1   C20 8006   3.064   0.170   7.650 -0.2523 -0.3755 -0.2374
   75CHL1   H20 8007   3.106   0.272   7.670  2.9433 -1.8506  1.3475
   75CHL1   C21 8008   3.183   0.078   7.619 -0.6886 -0.2352 -0.0198
   75CHL1  H21A 8009   3.245   0.037   7.701 -0.5961 -0.6004 -0.2709
   75CHL1  H21B 8010   3.252   0.113   7.540 -0.1891 -0.5295  0.2853
   75CHL1  H21C 8011   3.143  -0.012   7.568  1.6705  0.1947 -2.8946
   75CHL1   C22 8012   2.988   0.138   7.784  0.5458  0.7600  0.7368
   75CHL1  H22A 8013   2.904   0.210   7.801  1.3137  1.1270  3.4187
   75CHL1  H22B 8014   2.933   0.042   7.780  1.3758  0.2974 -3.2616
   75CHL1   C23 8015   3.072   0.151   7.911 -0.1999  0.1344  0.0391
   75CHL1  H23A 8016   3.149   0.071   7.906 -2.0434 -1.6671 -1.4738
   75CHL1  H23B 8017   3.116   0.253   7.906 -0.5871  0.4624  2.4242
   75CHL1   C24 8018   2.986   0.143   8.035 -0.3228  0.2181  1.0467
   75CHL1  H24A 8019   2.891   0.199   8.030  0.8169  2.1444 -0.7432
   75CHL1  H24B 8020   2.953   0.038   8.053  2.3675 -1.1821 -1.2354
   75CHL1   C25 8021   3.067   0.173   8.164 -0.0222  0.0062 -0.7917
   75CHL1   H25 8022   3.148   0.098   8.173  1.5413  1.7384  0.2676
   75CHL1   C26 8023   3.119   0.317   8.168  0.1015  0.4584  0.4392
   75CHL1  H26A 8024   3.194   0.333   8.087  0.6666 -0.9457  0.6548
   75CHL1  H26B 8025   3.041   0.395   8.160 -0.1091  0.3946  1.6733
   75CHL1  H26C 8026   3.193   0.331   8.250  1.5406 -2.2777 -0.2726
   75CHL1   C27 8027   2.965   0.154   8.276  0.0256  0.4378 -0.4570
   75CHL1  H27A 8028   2.893   0.238   8.272 -0.1450  0.4612  1.6723
   75CHL1  H27B 8029   2.913   0.056   8.275 -0.7675  0.8588 -0.7283
   75CHL1  H27C 8030   3.007   0.165   8.379 -3.7270 -1.2127  1.4527
   76CHL1    C3 8031   6.142   2.186   7.011 -0.0989  0.5286 -0.1948
   76CHL1    H3 8032   6.215   2.103   7.024 -1.3780 -0.5322  0.5209
   76CHL1    O3 8033   6.125   2.206   6.876  0.1760 -0.2671 -0.1609
   76CHL1   H3' 8034   6.214   2.224   6.843  0.4350 -1.3462 -0.0913
   76CHL1    C4 8035   6.011   2.156   7.078  0.5302  0.4565 -0.0211
   76CHL1   H4A 8036   5.929   2.225   7.050 -0.7565 -0.8208  0.4959
   76CHL1   H4B 8037   5.980   2.053   7.049 -3.8030  1.0376  1.8175
   76CHL1    C5 8038   6.019   2.147   7.229  0.5365 -0.2383  0.1383
   76CHL1    C6 8039   5.976   2.041   7.299  0.7930  0.6768 -0.2930
   76CHL1    H6 8040   5.930   1.952   7.253  0.1754  1.0085 -0.3241
   76CHL1    C7 8041   5.985   2.039   7.453  0.2149  0.3748 -0.5554
   76CHL1   H7A 8042   5.894   2.003   7.505  0.7625  0.9203  0.8083
   76CHL1   H7B 8043   6.076   1.983   7.485 -0.2857 -0.5452 -0.7082
   76CHL1    C8 8044   6.009   2.178   7.515  0.5835  0.1147  0.6923
   76CHL1    H8 8045   5.918   2.240   7.500  1.0373  0.5006 -0.5101
   76CHL1   C14 8046   6.046   2.165   7.660 -1.1556 -0.0499  0.4338
   76CHL1   H14 8047   6.146   2.119   7.666 -0.2569  1.7079 -0.2963
   76CHL1   C15 8048   5.962   2.079   7.747  0.3808  0.0501 -0.6470
   76CHL1  H15A 8049   5.853   2.096   7.747  0.2072 -0.9386  0.0900
   76CHL1  H15B 8050   5.992   1.978   7.710  2.0257  0.7989 -1.4745
   76CHL1   C16 8051   6.007   2.112   7.890  0.9106 -0.6544  0.5443
   76CHL1  H16A 8052   5.921   2.141   7.953  0.8859  1.5906 -0.4540
   76CHL1  H16B 8053   6.063   2.028   7.938  1.0895 -0.7811  0.1176
   76CHL1   C17 8054   6.105   2.235   7.878 -0.6811  0.3679 -0.4407
   76CHL1   H17 8055   6.212   2.205   7.880 -0.5163  1.0042  0.5044
   76CHL1   C13 8056   6.076   2.289   7.739 -0.7396 -0.0382 -0.3919
   76CHL1   C18 8057   5.951   2.376   7.746 -0.5600  0.8101  0.8967
   76CHL1  H18A 8058   5.864   2.325   7.792 -0.2868 -1.4726 -0.9389
   76CHL1  H18B 8059   5.977   2.467   7.805  3.2014  1.2840 -1.1230
   76CHL1  H18C 8060   5.914   2.405   7.645  0.5617 -0.4923  0.0685
   76CHL1   C12 8061   6.194   2.366   7.668  0.3341 -0.3702 -0.7814
   76CHL1  H12A 8062   6.214   2.469   7.703  0.4420 -0.3387 -0.9374
   76CHL1  H12B 8063   6.285   2.302   7.661 -1.0504 -2.3568 -1.8141
   76CHL1   C11 8064   6.149   2.383   7.522 -0.7400  0.1015  0.2603
   76CHL1  H11A 8065   6.057   2.441   7.502 -0.0687  0.3973 -2.2126
   76CHL1  H11B 8066   6.234   2.435   7.472  1.1680 -0.8978  2.2797
   76CHL1    C9 8067   6.121   2.256   7.448  0.1991 -0.2239  0.5651
   76CHL1    H9 8068   6.212   2.192   7.449  0.4755  0.0867 -1.0681
   76CHL1   C10 8069   6.087   2.270   7.294  0.2495 -0.2308  0.2197
   76CHL1   C19 8070   5.987   2.391   7.272  1.0620  1.2572 -0.7556
   76CHL1  H19A 8071   5.898   2.377   7.336  1.3853 -0.7945 -0.6861
   76CHL1  H19B 8072   6.042   2.482   7.304  0.9829  2.0668 -2.7711
   76CHL1  H19C 8073   5.957   2.406   7.166 -0.2248  1.1497 -0.4163
   76CHL1    C1 8074   6.217   2.305   7.221 -0.0380 -0.0801  1.2139
   76CHL1   H1A 8075   6.264   2.397   7.261  3.0758 -0.7847 -0.4981
   76CHL1   H1B 8076   6.286   2.223   7.250  0.4883 -0.8089 -1.7215
   76CHL1    C2 8077   6.209   2.310   7.064  0.4817  0.5908  0.3971
   76CHL1   H2A 8078   6.310   2.324   7.019  0.3301  0.0266 -0.1415
   76CHL1   H2B 8079   6.150   2.400   7.038  2.3522  1.5589 -0.7125
   76CHL1   C20 8080   6.087   2.327   7.996  0.0879  0.0598  0.6065
   76CHL1   H20 8081   5.984   2.370   7.997  0.0282 -0.0899  0.9852
   76CHL1   C21 8082   6.186   2.444   7.976  0.4632 -0.8899  0.1950
   76CHL1  H21A 8083   6.162   2.529   7.909  2.2978  0.6858  1.4111
   76CHL1  H21B 8084   6.280   2.394   7.943 -0.0617 -1.5229 -0.3800
   76CHL1  H21C 8085   6.196   2.486   8.078 -1.9301  0.7715 -0.1811
   76CHL1   C22 8086   6.103   2.259   8.132 -0.4474  0.2827 -0.4457
   76CHL1  H22A 8087   6.082   2.336   8.209 -0.0390 -0.0957  0.0528
   76CHL1  H22B 8088   6.023   2.185   8.154 -1.5734  1.5089 -0.3361
   76CHL1   C23 8089   6.236   2.184   8.154 -0.6574 -0.0269 -0.5918
   76CHL1  H23A 8090   6.219   2.079   8.122  0.3052 -0.4782  0.3321
   76CHL1  H23B 8091   6.316   2.238   8.099 -0.7884  0.9422  0.1453
   76CHL1   C24 8092   6.276   2.172   8.309 -0.7122 -0.2602  0.6453
   76CHL1  H24A 8093   6.179   2.158   8.361 -1.7108 -0.6204 -1.2313
   76CHL1  H24B 8094   6.331   2.075   8.309 -1.0271 -0.4960 -1.6026
   76CHL1   C25 8095   6.374   2.280   8.352 -0.3623 -0.3911 -0.3244
   76CHL1   H25 8096   6.338   2.378   8.314  0.5479  0.6373  1.3591
   76CHL1   C26 8097   6.378   2.283   8.499  0.3471 -0.2359 -0.6052
   76CHL1  H26A 8098   6.397   2.180   8.537  1.9012  0.4346  0.5537
   76CHL1  H26B 8099   6.460   2.343   8.544  0.1480 -0.6087  0.2857
   76CHL1  H26C 8100   6.284   2.321   8.545  0.3928  0.4889 -1.0949
   76CHL1   C27 8101   6.510   2.259   8.282  0.3451 -0.3594  0.3772
   76CHL1  H27A 8102   6.553   2.161   8.311 -0.4238 -0.9299 -0.3429
   76CHL1  H27B 8103   6.506   2.252   8.171 -3.3773  1.5592  0.2341
   76CHL1  H27C 8104   6.581   2.334   8.324  1.1681 -0.8804 -0.0570
   77CHL1    C3 8105   0.557   4.725   6.893  0.5418  0.0165 -0.0698
   77CHL1    H3 8106   0.629   4.650   6.931  0.3843  0.7448  1.7690
   77CHL1    O3 8107   0.516   4.714   6.760 -0.0972  0.4743 -0.2860
   77CHL1   H3' 8108   0.599   4.699   6.714 -0.3336 -2.9110  0.1029
   77CHL1    C4 8109   0.433   4.725   6.984 -0.4729  0.6073  0.2464
   77CHL1   H4A 8110   0.359   4.794   6.940 -1.4179 -1.9204 -2.4079
   77CHL1   H4B 8111   0.390   4.623   6.974  0.0021  0.5027 -0.9698
   77CHL1    C5 8112   0.463   4.757   7.129  0.3791  0.1034  0.2382
   77CHL1    C6 8113   0.412   4.670   7.223 -0.6233  0.7225  0.1130
   77CHL1    H6 8114   0.359   4.579   7.190 -1.3621  0.7630  1.1314
   77CHL1    C7 8115   0.441   4.697   7.371  0.2532  0.1892  0.0029
   77CHL1   H7A 8116   0.344   4.700   7.426 -0.9073 -0.1320 -1.9425
   77CHL1   H7B 8117   0.508   4.617   7.407  3.3527  2.1972 -0.9225
   77CHL1    C8 8118   0.502   4.837   7.398 -0.7482 -0.2577  0.6250
   77CHL1    H8 8119   0.417   4.909   7.392 -1.0900 -0.6085  1.2408
   77CHL1   C14 8120   0.548   4.838   7.538 -0.2666  0.3365  0.4296
   77CHL1   H14 8121   0.643   4.781   7.543 -1.1234 -1.2067 -0.3751
   77CHL1   C15 8122   0.466   4.775   7.653  0.2125  0.6350 -0.2014
   77CHL1  H15A 8123   0.361   4.813   7.651  0.3290  0.9936  0.3208
   77CHL1  H15B 8124   0.474   4.664   7.653 -0.7522  0.5411  0.8216
   77CHL1   C16 8125   0.522   4.835   7.783 -0.2287  0.7052  0.2019
   77CHL1  H16A 8126   0.440   4.885   7.840 -0.0031 -0.6196  1.7637
   77CHL1  H16B 8127   0.569   4.763   7.853 -2.4781 -1.7281 -0.6481
   77CHL1   C17 8128   0.626   4.943   7.739  0.7777 -0.3318  0.3880
   77CHL1   H17 8129   0.719   4.885   7.722  0.5114  0.0232 -2.9685
   77CHL1   C13 8130   0.586   4.976   7.592  0.5705 -0.2454  0.5100
   77CHL1   C18 8131   0.457   5.068   7.588 -0.1252 -0.0675 -0.5273
   77CHL1  H18A 8132   0.430   5.097   7.484 -2.5266 -1.0675 -0.2560
   77CHL1  H18B 8133   0.364   5.035   7.639  1.2527  0.8551  2.8160
   77CHL1  H18C 8134   0.487   5.169   7.623 -1.4948 -0.0484  0.6837
   77CHL1   C12 8135   0.697   5.031   7.502  0.1419  0.1841 -0.4240
   77CHL1  H12A 8136   0.704   5.138   7.532  0.8805 -0.1906  0.8078
   77CHL1  H12B 8137   0.789   4.976   7.531  0.0879 -0.4373 -1.3654
   77CHL1   C11 8138   0.670   5.016   7.352  0.4336  0.3635  0.1261
   77CHL1  H11A 8139   0.586   5.085   7.333 -0.6995 -0.6879  1.1135
   77CHL1  H11B 8140   0.761   5.057   7.304 -0.1262  0.6297 -0.7276
   77CHL1    C9 8141   0.612   4.880   7.300 -0.0508  0.0353 -0.3368
   77CHL1    H9 8142   0.691   4.803   7.313  1.0489  1.4829  2.3739
   77CHL1   C10 8143   0.557   4.883   7.152  0.2371  0.2886  0.0769
   77CHL1   C19 8144   0.461   5.008   7.129 -0.2064 -0.5427  0.6105
   77CHL1  H19A 8145   0.397   4.992   7.040 -3.0336  0.4303  2.3237
   77CHL1  H19B 8146   0.382   5.017   7.207 -1.1546 -0.9430 -0.2821
   77CHL1  H19C 8147   0.512   5.106   7.114  2.3085 -1.4992  2.1597
   77CHL1    C1 8148   0.679   4.882   7.055  0.9066  0.1042  0.1903
   77CHL1   H1A 8149   0.733   4.979   7.049  0.3163  0.3426 -1.8492
   77CHL1   H1B 8150   0.745   4.797   7.082 -1.6210 -2.2765 -0.6715
   77CHL1    C2 8151   0.629   4.856   6.909 -0.2685 -0.0338 -0.2738
   77CHL1   H2A 8152   0.701   4.880   6.828  0.5481 -1.5857 -0.0472
   77CHL1   H2B 8153   0.551   4.934   6.897 -2.8840 -2.0770  2.2367
   77CHL1   C20 8154   0.654   5.044   7.845  0.0003 -0.5623  0.2303
   77CHL1   H20 8155   0.560   5.099   7.865  0.5150  0.8040 -0.9868
   77CHL1   C21 8156   0.758   5.151   7.804 -0.6213  0.4940  0.1253
   77CHL1  H21A 8157   0.770   5.223   7.887  0.5535  2.0143 -1.2957
   77CHL1  H21B 8158   0.726   5.215   7.719  0.2944  0.1276 -0.5222
   77CHL1  H21C 8159   0.849   5.090   7.782 -1.4985 -0.3670 -1.2901
   77CHL1   C22 8160   0.683   4.986   7.990 -0.2875 -0.3910  0.6925
   77CHL1  H22A 8161   0.602   4.912   8.008 -0.0340 -1.6602 -2.7419
   77CHL1  H22B 8162   0.774   4.924   7.983 -1.4720 -2.1998  0.6215
   77CHL1   C23 8163   0.709   5.082   8.105 -0.1437 -0.4332  0.8532
   77CHL1  H23A 8164   0.798   5.148   8.095 -0.4912 -0.3140 -3.2900
   77CHL1  H23B 8165   0.625   5.155   8.115  0.4484  0.7653 -1.9749
   77CHL1   C24 8166   0.723   5.004   8.238  0.1325  0.1627 -0.5307
   77CHL1  H24A 8167   0.619   4.981   8.270  0.1522 -0.1589 -0.6869
   77CHL1  H24B 8168   0.782   4.914   8.211  0.4373  0.4905 -0.9543
   77CHL1   C25 8169   0.784   5.089   8.344  0.1650  1.2930 -0.3617
   77CHL1   H25 8170   0.884   5.113   8.302  1.3788 -0.3198  1.4233
   77CHL1   C26 8171   0.721   5.214   8.371  1.0257 -0.1019 -0.3199
   77CHL1  H26A 8172   0.757   5.261   8.465 -0.8382 -0.9236  0.8646
   77CHL1  H26B 8173   0.721   5.292   8.292 -0.3552  1.2141  0.9040
   77CHL1  H26C 8174   0.610   5.202   8.377  1.1386 -1.5059 -0.6075
   77CHL1   C27 8175   0.820   5.010   8.476 -0.3158 -0.2200  0.0219
   77CHL1  H27A 8176   0.889   5.066   8.543 -1.7566  3.1756 -1.0979
   77CHL1  H27B 8177   0.728   4.986   8.534 -0.2123  0.6962  0.5861
   77CHL1  H27C 8178   0.876   4.925   8.431 -0.2978  0.4072 -1.1866
   78CHL1    C3 8179   4.433   1.121   6.765 -0.6795  0.1271  0.9229
   78CHL1    H3 8180   4.533   1.109   6.813 -0.6416 -0.2871  0.7502
   78CHL1    O3 8181   4.439   1.151   6.629 -0.4346 -0.1179  0.9339
   78CHL1   H3' 8182   4.356   1.198   6.620 -0.7878 -1.0640 -1.3532
   78CHL1    C4 8183   4.341   0.999   6.787 -0.4492 -0.3383 -0.3359
   78CHL1   H4A 8184   4.239   1.029   6.754 -0.8781  0.4252  1.5500
   78CHL1   H4B 8185   4.363   0.909   6.725  2.0416  1.8032 -2.8672
   78CHL1    C5 8186   4.349   0.963   6.934 -0.2369  0.5063 -0.8256
   78CHL1    C6 8187   4.386   0.842   6.972 -0.7012  0.0655 -1.4295
   78CHL1    H6 8188   4.417   0.766   6.900  2.1360  0.1294 -0.3788
   78CHL1    C7 8189   4.380   0.797   7.121  0.2210 -0.0830 -0.5129
   78CHL1   H7A 8190   4.334   0.697   7.132 -0.0036 -0.0924 -1.4115
   78CHL1   H7B 8191   4.483   0.775   7.158 -0.7156 -0.6159  1.9580
   78CHL1    C8 8192   4.310   0.898   7.213  0.6858 -0.4151  1.1591
   78CHL1    H8 8193   4.200   0.890   7.206  0.7189 -1.3407  1.5238
   78CHL1   C14 8194   4.344   0.870   7.353 -0.1438 -0.3314  0.3462
   78CHL1   H14 8195   4.452   0.892   7.359 -0.6452  1.9264  3.2687
   78CHL1   C15 8196   4.334   0.731   7.401 -0.0318  0.0177  0.0853
   78CHL1  H15A 8197   4.247   0.685   7.349  0.6717 -2.4141  0.9173
   78CHL1  H15B 8198   4.423   0.669   7.376  0.6663  1.9577 -2.6972
   78CHL1   C16 8199   4.323   0.744   7.554 -0.4491 -0.3307 -0.6260
   78CHL1  H16A 8200   4.225   0.706   7.589  0.0114  0.1909  1.3449
   78CHL1  H16B 8201   4.409   0.687   7.596  1.0214  0.2965 -2.6532
   78CHL1   C17 8202   4.326   0.896   7.590  0.4457  0.3995 -0.0224
   78CHL1   H17 8203   4.431   0.929   7.594  0.3761  0.8994 -1.7504
   78CHL1   C13 8204   4.275   0.963   7.460  0.5968 -0.4434 -1.2033
   78CHL1   C18 8205   4.124   0.956   7.448  0.4620 -0.0593 -0.0554
   78CHL1  H18A 8206   4.091   0.968   7.343 -0.6168  1.9864  0.4742
   78CHL1  H18B 8207   4.096   0.852   7.476  1.8444 -0.2775  0.5612
   78CHL1  H18C 8208   4.068   1.036   7.500  2.0075  2.3087 -1.8348
   78CHL1   C12 8209   4.318   1.107   7.428  0.5363 -0.6014 -0.2245
   78CHL1  H12A 8210   4.260   1.172   7.496  0.5273  0.0104 -0.8081
   78CHL1  H12B 8211   4.422   1.118   7.467  0.4218  1.0168 -0.3051
   78CHL1   C11 8212   4.299   1.148   7.279 -0.0502  0.2361 -0.8261
   78CHL1  H11A 8213   4.190   1.170   7.281 -0.5359 -1.9316  0.3438
   78CHL1  H11B 8214   4.355   1.243   7.268 -1.1207  1.3144  1.9617
   78CHL1    C9 8215   4.342   1.040   7.175 -0.4375 -0.2389  0.8183
   78CHL1    H9 8216   4.452   1.039   7.185 -0.2568 -0.5500 -0.9194
   78CHL1   C10 8217   4.307   1.075   7.030  0.6759  0.7329 -1.1589
   78CHL1   C19 8218   4.154   1.093   7.017  0.1675 -0.3331 -0.1332
   78CHL1  H19A 8219   4.104   1.108   6.919  0.1433 -0.7200 -0.1795
   78CHL1  H19B 8220   4.098   1.021   7.081  0.1654  0.5857  0.9346
   78CHL1  H19C 8221   4.124   1.189   7.065  0.1472 -0.3764 -0.0590
   78CHL1    C1 8222   4.378   1.209   6.991  0.0905 -0.7417  0.0375
   78CHL1   H1A 8223   4.353   1.300   7.049  3.7113  1.4530 -1.4602
   78CHL1   H1B 8224   4.485   1.196   7.017 -0.6055 -0.9823  3.1660
   78CHL1    C2 8225   4.377   1.241   6.842  0.5997  0.7129  0.0031
   78CHL1   H2A 8226   4.438   1.330   6.816  0.9329  0.8122  1.0636
   78CHL1   H2B 8227   4.273   1.257   6.807 -0.3620  1.5606  2.8974
   78CHL1   C20 8228   4.252   0.931   7.723 -0.0272 -0.4056  0.0965
   78CHL1   H20 8229   4.145   0.952   7.700 -0.0570 -0.1231  0.4694
   78CHL1   C21 8230   4.304   1.063   7.777  0.5985 -0.4556  0.9783
   78CHL1  H21A 8231   4.410   1.044   7.802  1.7560  1.1694 -2.0926
   78CHL1  H21B 8232   4.251   1.113   7.860 -0.0524  1.6663 -0.6063
   78CHL1  H21C 8233   4.285   1.139   7.698  1.1594  1.7172  2.8435
   78CHL1   C22 8234   4.260   0.832   7.835  0.0680  0.5044 -0.3757
   78CHL1  H22A 8235   4.178   0.842   7.909  0.9549 -0.6175  0.8094
   78CHL1  H22B 8236   4.225   0.732   7.800  1.8251 -0.0058 -0.7902
   78CHL1   C23 8237   4.395   0.817   7.915  0.6750 -0.6337 -0.1333
   78CHL1  H23A 8238   4.469   0.816   7.832  0.8180  2.1291 -0.1241
   78CHL1  H23B 8239   4.433   0.910   7.961  1.8053 -0.4718 -1.3132
   78CHL1   C24 8240   4.395   0.691   8.007 -0.2326  0.0268 -0.0747
   78CHL1  H24A 8241   4.336   0.617   7.949  0.4363 -0.4305 -0.1840
   78CHL1  H24B 8242   4.495   0.652   8.034 -0.8315  0.4213  3.0245
   78CHL1   C25 8243   4.331   0.708   8.147 -0.1718 -0.6419  0.0035
   78CHL1   H25 8244   4.249   0.781   8.129  2.3692  2.0689 -1.2331
   78CHL1   C26 8245   4.270   0.579   8.204  1.0586 -0.3350  0.0254
   78CHL1  H26A 8246   4.186   0.551   8.136  2.5440 -0.1019 -2.0252
   78CHL1  H26B 8247   4.342   0.498   8.226 -1.2313 -2.0990  1.4406
   78CHL1  H26C 8248   4.216   0.586   8.301 -0.4093 -1.2769 -0.6793
   78CHL1   C27 8249   4.417   0.791   8.243 -0.1866  0.9097  0.1857
   78CHL1  H27A 8250   4.514   0.745   8.271 -0.8774 -0.3604  0.5592
   78CHL1  H27B 8251   4.442   0.888   8.195  0.3469 -0.4546 -2.5104
   78CHL1  H27C 8252   4.365   0.806   8.340  0.4529 -0.3101  0.7386
   79CHL1    C3 8253   2.005   2.563   7.035  0.3521 -0.1392  1.2352
   79CHL1    H3 8254   1.994   2.660   7.087  2.6265 -0.4765  2.5038
   79CHL1    O3 8255   2.053   2.600   6.905  0.0968 -0.1439  0.5992
   79CHL1   H3' 8256   2.062   2.512   6.868  0.8173 -0.1951  0.8829
   79CHL1    C4 8257   2.105   2.478   7.112  1.1172  0.7818 -0.0613
   79CHL1   H4A 8258   2.129   2.391   7.046 -1.5719  1.3223 -1.8789
   79CHL1   H4B 8259   2.200   2.536   7.107  1.6106 -0.0345 -0.5032
   79CHL1    C5 8260   2.058   2.429   7.251  0.2328  0.5245  0.4485
   79CHL1    C6 8261   2.136   2.456   7.353  0.0511  0.8836  0.1325
   79CHL1    H6 8262   2.228   2.515   7.337  0.2328 -0.0251 -2.7303
   79CHL1    C7 8263   2.103   2.419   7.495 -0.2331 -0.2007  0.2137
   79CHL1   H7A 8264   2.190   2.387   7.557 -0.4916 -1.6328 -0.1324
   79CHL1   H7B 8265   2.063   2.511   7.544  0.9067  0.7368 -0.5417
   79CHL1    C8 8266   1.992   2.308   7.502  0.2235  0.4019  0.7072
   79CHL1    H8 8267   2.026   2.213   7.454  0.0221  0.8287 -0.3060
   79CHL1   C14 8268   1.932   2.295   7.644  0.1598 -0.9663  0.3695
   79CHL1   H14 8269   1.891   2.395   7.668 -2.0172 -1.4882 -0.8846
   79CHL1   C15 8270   2.040   2.276   7.751  0.4054  0.0112 -0.2019
   79CHL1  H15A 8271   2.119   2.202   7.726  0.2280 -1.0809  2.1209
   79CHL1  H15B 8272   2.090   2.374   7.762  0.6707  0.0733 -1.8041
   79CHL1   C16 8273   1.951   2.219   7.866  0.6588  0.6032 -0.2067
   79CHL1  H16A 8274   2.006   2.128   7.897  3.5654  1.5898 -2.0925
   79CHL1  H16B 8275   1.952   2.288   7.953  0.3548  0.7054 -0.2796
   79CHL1   C17 8276   1.804   2.188   7.812  0.1751 -0.3092 -0.2042
   79CHL1   H17 8277   1.731   2.269   7.835 -0.8931 -1.1387 -0.6162
   79CHL1   C13 8278   1.828   2.191   7.655  0.2302  0.1329 -0.2755
   79CHL1   C18 8279   1.891   2.053   7.611 -0.2696 -0.0078 -1.0214
   79CHL1  H18A 8280   1.822   1.966   7.617 -1.9536  1.3130 -0.7150
   79CHL1  H18B 8281   1.923   2.053   7.504 -0.2706 -0.4425 -1.0271
   79CHL1  H18C 8282   1.985   2.034   7.667 -1.0332  0.8525  0.5863
   79CHL1   C12 8283   1.714   2.241   7.573  0.2754  0.7559  0.0406
   79CHL1  H12A 8284   1.626   2.173   7.576  1.2237 -0.4601  1.0159
   79CHL1  H12B 8285   1.686   2.337   7.621 -1.2950  1.0741 -1.4360
   79CHL1   C11 8286   1.749   2.262   7.421 -0.0277  0.0146 -0.1823
   79CHL1  H11A 8287   1.775   2.159   7.388  1.8612  0.3989  0.0007
   79CHL1  H11B 8288   1.669   2.304   7.355  2.6505  1.2616 -2.8567
   79CHL1    C9 8289   1.876   2.350   7.400 -0.2809 -0.3682 -0.3659
   79CHL1    H9 8290   1.858   2.452   7.439  2.3786  0.0434  0.0145
   79CHL1   C10 8291   1.921   2.367   7.254  0.4890  0.7422  0.1352
   79CHL1   C19 8292   1.934   2.227   7.186 -0.0786 -0.7484 -0.7544
   79CHL1  H19A 8293   1.834   2.185   7.159  0.7943 -2.6952 -1.0944
   79CHL1  H19B 8294   2.011   2.222   7.106 -0.2573 -2.1876 -0.8617
   79CHL1  H19C 8295   1.965   2.140   7.247  0.6324 -0.5958 -0.8912
   79CHL1    C1 8296   1.818   2.457   7.167  0.6040 -0.2268  1.1012
   79CHL1   H1A 8297   1.721   2.402   7.163  1.0396 -1.0038 -3.0190
   79CHL1   H1B 8298   1.806   2.554   7.221  0.8674  0.4748 -0.0746
   79CHL1    C2 8299   1.872   2.493   7.023 -0.6336 -0.3328 -0.1196
   79CHL1   H2A 8300   1.796   2.558   6.975  0.2628 -0.9437 -2.5183
   79CHL1   H2B 8301   1.876   2.399   6.963 -0.9553  0.0182 -0.7035
   79CHL1   C20 8302   1.742   2.065   7.863 -0.2329  0.1879  0.5242
   79CHL1   H20 8303   1.775   1.971   7.814  2.4280  0.6847  1.2380
   79CHL1   C21 8304   1.587   2.073   7.825  0.1655 -0.1851  0.4111
   79CHL1  H21A 8305   1.527   2.075   7.918  2.7461 -0.8632  2.2055
   79CHL1  H21B 8306   1.559   1.986   7.762 -0.1287  0.3611 -0.2389
   79CHL1  H21C 8307   1.560   2.168   7.774  2.1463  0.7704  1.0152
   79CHL1   C22 8308   1.764   2.036   8.014  0.3256  0.0512  0.1740
   79CHL1  H22A 8309   1.872   2.041   8.040  0.2940 -0.1291  0.3471
   79CHL1  H22B 8310   1.721   2.126   8.062  0.8917 -0.1379  1.0596
   79CHL1   C23 8311   1.709   1.905   8.078 -0.4901  0.8267 -0.5669
   79CHL1  H23A 8312   1.612   1.883   8.029 -0.5886  1.5491 -0.7135
   79CHL1  H23B 8313   1.773   1.825   8.037 -1.4690  0.5180 -1.5397
   79CHL1   C24 8314   1.712   1.905   8.233  0.1379 -0.4997  0.2779
   79CHL1  H24A 8315   1.817   1.917   8.267 -0.1181 -0.4026  1.0669
   79CHL1  H24B 8316   1.643   1.979   8.279 -1.5499 -1.2054 -1.0131
   79CHL1   C25 8317   1.667   1.771   8.284 -0.3189  0.2162 -0.2170
   79CHL1   H25 8318   1.757   1.706   8.290 -0.7190 -0.4451 -1.2430
   79CHL1   C26 8319   1.635   1.790   8.437  0.5232 -0.3347  0.0493
   79CHL1  H26A 8320   1.528   1.763   8.452  0.3001  1.3251  1.9629
   79CHL1  H26B 8321   1.707   1.725   8.491  0.2187 -2.1759 -1.6830
   79CHL1  H26C 8322   1.642   1.896   8.471 -3.3728  0.9744 -2.5731
   79CHL1   C27 8323   1.548   1.710   8.210  0.2260  0.0195  0.3272
   79CHL1  H27A 8324   1.514   1.623   8.269  0.5906 -0.0283  0.4714
   79CHL1  H27B 8325   1.466   1.784   8.198 -1.4131 -1.5930  1.2285
   79CHL1  H27C 8326   1.586   1.677   8.111  0.9425  2.6534 -0.3655
   80CHL1    C3 8327   5.792   5.642   6.886 -0.1338 -0.3011  0.5150
   80CHL1    H3 8328   5.758   5.748   6.887 -0.3410 -0.3529 -0.4573
   80CHL1    O3 8329   5.810   5.608   6.753 -0.4431  0.0755 -0.1071
   80CHL1   H3' 8330   5.812   5.512   6.750  2.2002 -0.0366  1.5375
   80CHL1    C4 8331   5.929   5.627   6.952  0.3313 -0.4645  0.1319
   80CHL1   H4A 8332   5.976   5.532   6.919  0.6140 -0.4436  0.4759
   80CHL1   H4B 8333   5.998   5.710   6.924  2.5827 -1.1410  3.1701
   80CHL1    C5 8334   5.920   5.621   7.107  0.4523 -0.2020  0.7627
   80CHL1    C6 8335   5.986   5.707   7.178 -0.6078 -0.0613 -0.8342
   80CHL1    H6 8336   6.043   5.781   7.120  0.1414 -0.2285 -0.3270
   80CHL1    C7 8337   5.999   5.705   7.323 -0.1655 -0.7428  0.1287
   80CHL1   H7A 8338   6.105   5.712   7.356 -0.1004  0.4961 -0.3067
   80CHL1   H7B 8339   5.945   5.789   7.372  0.9172 -0.3498  0.6921
   80CHL1    C8 8340   5.946   5.571   7.381 -0.1647  0.0561  0.1848
   80CHL1    H8 8341   6.018   5.488   7.361  1.6555  1.0406  2.2918
   80CHL1   C14 8342   5.922   5.583   7.533  1.1021 -0.0333  1.3216
   80CHL1   H14 8343   5.844   5.657   7.561  1.2366  0.1603  1.1807
   80CHL1   C15 8344   6.044   5.627   7.611 -0.5677  0.2086 -0.3416
   80CHL1  H15A 8345   6.122   5.556   7.577 -0.0185  0.7998 -0.3286
   80CHL1  H15B 8346   6.089   5.727   7.597 -0.9377  0.5211  0.5922
   80CHL1   C16 8347   6.015   5.592   7.763  0.0552 -0.1427 -0.3799
   80CHL1  H16A 8348   6.097   5.527   7.800 -0.6536 -1.5646 -1.2362
   80CHL1  H16B 8349   5.990   5.683   7.823  1.2581 -0.8868  1.3456
   80CHL1   C17 8350   5.882   5.506   7.755 -0.1226  0.3914 -0.1726
   80CHL1   H17 8351   5.793   5.573   7.760 -1.7692 -1.6515 -0.6407
   80CHL1   C13 8352   5.869   5.454   7.607 -0.2516 -0.6340 -0.3515
   80CHL1   C18 8353   5.968   5.335   7.593  0.2129  0.1435 -0.7728
   80CHL1  H18A 8354   5.918   5.249   7.642 -0.0364  1.8858  2.3014
   80CHL1  H18B 8355   5.984   5.315   7.485 -2.5034  0.0234 -1.2294
   80CHL1  H18C 8356   6.066   5.343   7.646 -0.6997 -1.4853  1.3142
   80CHL1   C12 8357   5.726   5.431   7.559  0.0935  0.7219  0.2028
   80CHL1  H12A 8358   5.671   5.342   7.595  0.8071 -0.7913 -2.2417
   80CHL1  H12B 8359   5.664   5.523   7.571  0.9538  1.1919  1.1877
   80CHL1   C11 8360   5.741   5.404   7.406  0.2729  0.1002 -0.1264
   80CHL1  H11A 8361   5.803   5.315   7.383 -0.2161  0.5286 -3.6743
   80CHL1  H11B 8362   5.640   5.379   7.367 -0.5705 -0.3320  2.1676
   80CHL1    C9 8363   5.807   5.525   7.327 -0.6623 -0.3643  0.0342
   80CHL1    H9 8364   5.742   5.610   7.356  1.9766  1.3648  1.3462
   80CHL1   C10 8365   5.815   5.518   7.172 -0.6922 -0.1112 -0.2639
   80CHL1   C19 8366   5.846   5.374   7.139  0.4730  0.6124 -0.0819
   80CHL1  H19A 8367   5.922   5.324   7.204  1.0112  1.0098 -0.3929
   80CHL1  H19B 8368   5.749   5.321   7.146  0.2225  0.7573 -1.8939
   80CHL1  H19C 8369   5.892   5.358   7.039 -0.2709 -0.0471 -0.3300
   80CHL1    C1 8370   5.687   5.558   7.099  0.0572  0.4251  0.8266
   80CHL1   H1A 8371   5.604   5.496   7.141  0.3170 -0.0483  0.6481
   80CHL1   H1B 8372   5.658   5.663   7.123  1.3143  0.7654  0.8893
   80CHL1    C2 8373   5.689   5.545   6.947  0.4712  0.2019 -0.2589
   80CHL1   H2A 8374   5.589   5.557   6.898  0.5445 -1.8000 -1.0219
   80CHL1   H2B 8375   5.721   5.445   6.912 -1.0420 -0.5848  0.4706
   80CHL1   C20 8376   5.872   5.400   7.866  0.6053  0.6002 -0.3030
   80CHL1   H20 8377   5.945   5.317   7.856  1.5182  1.2297  0.8363
   80CHL1   C21 8378   5.736   5.328   7.859  0.1434  0.3338  0.0132
   80CHL1  H21A 8379   5.653   5.400   7.878  0.2185  0.3973  0.1026
   80CHL1  H21B 8380   5.733   5.262   7.949 -0.8257 -2.0840 -1.6988
   80CHL1  H21C 8381   5.717   5.252   7.781 -0.4799 -0.8453  1.2699
   80CHL1   C22 8382   5.883   5.454   8.015  0.2400 -0.7581  0.5760
   80CHL1  H22A 8383   5.962   5.532   8.010 -2.7318  2.4320 -1.8631
   80CHL1  H22B 8384   5.786   5.508   8.027 -0.8144 -2.0246 -1.6458
   80CHL1   C23 8385   5.921   5.341   8.113  1.0213  0.2373 -0.0388
   80CHL1  H23A 8386   5.832   5.277   8.131  0.1666  1.1293 -0.9802
   80CHL1  H23B 8387   6.006   5.282   8.070 -0.6993 -0.8227 -2.1492
   80CHL1   C24 8388   5.971   5.406   8.242  0.2498  0.6965 -0.6695
   80CHL1  H24A 8389   6.047   5.486   8.241 -1.4760  2.4216 -2.3975
   80CHL1  H24B 8390   5.891   5.463   8.295  1.3231  1.5149  0.1298
   80CHL1   C25 8391   6.013   5.292   8.337 -0.1395 -0.0920  0.2101
   80CHL1   H25 8392   5.955   5.199   8.322  1.4506 -0.9085 -1.2433
   80CHL1   C26 8393   6.153   5.258   8.305 -0.5490 -0.4680 -0.4076
   80CHL1  H26A 8394   6.180   5.155   8.335 -0.4486  0.4177  2.9694
   80CHL1  H26B 8395   6.178   5.263   8.197  0.2376 -0.0321 -0.2216
   80CHL1  H26C 8396   6.220   5.329   8.359 -2.8040  1.2169  0.3723
   80CHL1   C27 8397   6.004   5.324   8.480  0.3244 -0.1286  0.9399
   80CHL1  H27A 8398   5.911   5.378   8.507  1.3093  2.0185  0.1903
   80CHL1  H27B 8399   6.020   5.228   8.534 -1.2503 -3.4459 -3.8316
   80CHL1  H27C 8400   6.082   5.395   8.513  0.9070 -0.3173  0.0062
   81CHL1    C3 8401   4.850   0.861   6.851  0.9842 -0.3603 -0.3989
   81CHL1    H3 8402   4.815   0.967   6.854 -0.9057 -0.9202 -1.4370
   81CHL1    O3 8403   4.847   0.827   6.710 -0.6779 -0.1229 -0.1168
   81CHL1   H3' 8404   4.874   0.735   6.706  0.4793  0.1153  1.3393
   81CHL1    C4 8405   4.977   0.830   6.920 -0.1929  0.6522  0.3572
   81CHL1   H4A 8406   5.007   0.725   6.900 -0.5361  0.2018  2.0414
   81CHL1   H4B 8407   5.053   0.899   6.876  0.4427  1.2179  2.2484
   81CHL1    C5 8408   4.978   0.853   7.074 -0.4909  0.1169  0.0867
   81CHL1    C6 8409   5.062   0.936   7.138  0.6382 -0.7620  0.4401
   81CHL1    H6 8410   5.140   0.996   7.088 -0.6152  3.0713  2.6441
   81CHL1    C7 8411   5.046   0.968   7.281  0.3230 -0.2310 -0.7723
   81CHL1   H7A 8412   5.143   0.964   7.335  0.4643  2.6162 -0.6683
   81CHL1   H7B 8413   5.001   1.069   7.292  0.6818 -0.3141  2.4400
   81CHL1    C8 8414   4.966   0.868   7.362 -0.5333 -0.0002 -0.2442
   81CHL1    H8 8415   5.029   0.777   7.373  1.1731  0.9386 -1.7336
   81CHL1   C14 8416   4.927   0.925   7.496  0.2281 -0.0973 -0.6326
   81CHL1   H14 8417   4.864   1.011   7.465 -0.9692 -0.5035  0.5632
   81CHL1   C15 8418   5.033   0.987   7.587 -0.1717  0.3640  0.3008
   81CHL1  H15A 8419   5.128   0.932   7.575 -0.9282 -1.1728  1.0983
   81CHL1  H15B 8420   5.076   1.084   7.554  1.4080 -0.0412  1.0924
   81CHL1   C16 8421   4.973   0.990   7.737  0.6188  0.8039 -0.4967
   81CHL1  H16A 8422   5.040   0.928   7.801 -0.9578  1.1568  1.5953
   81CHL1  H16B 8423   4.969   1.090   7.786 -1.3151  0.7676 -0.5160
   81CHL1   C17 8424   4.837   0.915   7.713  0.5402  0.4699  0.2896
   81CHL1   H17 8425   4.765   0.995   7.684  1.1105  1.2877  1.0816
   81CHL1   C13 8426   4.838   0.833   7.580  0.0181 -0.1770 -0.1220
   81CHL1   C18 8427   4.920   0.697   7.605  0.2737 -1.0804  0.2810
   81CHL1  H18A 8428   5.011   0.717   7.664  1.2806  2.0488 -2.0405
   81CHL1  H18B 8429   4.866   0.631   7.676 -1.3874 -1.1407 -0.9624
   81CHL1  H18C 8430   4.942   0.648   7.508 -0.2639  1.6041 -1.3190
   81CHL1   C12 8431   4.709   0.806   7.514  0.6850  0.5648 -0.2249
   81CHL1  H12A 8432   4.640   0.737   7.566 -0.3329 -0.0144 -2.2264
   81CHL1  H12B 8433   4.641   0.894   7.505 -2.3315 -1.4967  0.7840
   81CHL1   C11 8434   4.733   0.752   7.377  0.4174  0.1510 -0.0994
   81CHL1  H11A 8435   4.777   0.652   7.395  2.8048  1.1016 -0.3319
   81CHL1  H11B 8436   4.640   0.732   7.319  0.9290 -0.6953 -0.6567
   81CHL1    C9 8437   4.840   0.832   7.290  0.8314 -0.2475 -0.1920
   81CHL1    H9 8438   4.789   0.930   7.275  0.6145 -0.1705  0.9885
   81CHL1   C10 8439   4.868   0.776   7.145  0.4825 -0.7149  0.5301
   81CHL1   C19 8440   4.919   0.627   7.156 -0.0813 -0.1420 -0.0323
   81CHL1  H19A 8441   4.925   0.587   7.052 -0.0354 -1.7631  0.5683
   81CHL1  H19B 8442   5.014   0.620   7.212 -1.0594 -0.8556  1.5967
   81CHL1  H19C 8443   4.841   0.566   7.207  2.3749  0.6643  5.2814
   81CHL1    C1 8444   4.738   0.794   7.067  0.3960  0.2596  0.0011
   81CHL1   H1A 8445   4.665   0.716   7.097 -0.1157  0.8705  0.3485
   81CHL1   H1B 8446   4.696   0.889   7.104  0.0222  0.0170  0.1994
   81CHL1    C2 8447   4.741   0.776   6.916 -0.4845  0.8542 -0.4733
   81CHL1   H2A 8448   4.641   0.798   6.873 -0.3480  0.4865 -1.0034
   81CHL1   H2B 8449   4.767   0.669   6.896 -1.5876  0.3797  0.5292
   81CHL1   C20 8450   4.772   0.867   7.836 -0.5612  1.2057  0.6137
   81CHL1   H20 8451   4.690   0.797   7.809  1.2031 -0.5895 -0.3317
   81CHL1   C21 8452   4.722   0.986   7.918 -0.4110 -0.6906 -0.1837
   81CHL1  H21A 8453   4.802   1.059   7.942 -0.7617 -0.4299  0.2224
   81CHL1  H21B 8454   4.692   0.952   8.020  1.7665 -0.5524  0.5538
   81CHL1  H21C 8455   4.648   1.056   7.874  1.0321  2.7522  2.3406
   81CHL1   C22 8456   4.863   0.788   7.934 -0.8960  0.7530 -0.7054
   81CHL1  H22A 8457   4.948   0.734   7.888 -1.2265  0.9530 -1.5594
   81CHL1  H22B 8458   4.907   0.853   8.013  0.2591  1.0163 -1.5532
   81CHL1   C23 8459   4.792   0.677   8.007  0.7784  0.7032  0.2295
   81CHL1  H23A 8460   4.710   0.716   8.071  1.1581  1.3910  0.3136
   81CHL1  H23B 8461   4.744   0.607   7.937  0.3906  1.0149  0.1778
   81CHL1   C24 8462   4.883   0.611   8.107  0.3334 -0.0130  0.1085
   81CHL1  H24A 8463   4.975   0.583   8.051  0.1489  0.5221 -0.4758
   81CHL1  H24B 8464   4.915   0.681   8.187 -0.5653 -0.8662  1.2513
   81CHL1   C25 8465   4.811   0.485   8.162 -0.0254 -0.0349 -0.4045
   81CHL1   H25 8466   4.769   0.429   8.075  1.1389 -0.3491 -0.7777
   81CHL1   C26 8467   4.919   0.391   8.222  0.0850 -0.4346 -0.4597
   81CHL1  H26A 8468   4.993   0.360   8.145 -0.0551 -2.2741  0.1106
   81CHL1  H26B 8469   4.980   0.447   8.296  0.1252 -2.5404  1.1805
   81CHL1  H26C 8470   4.873   0.303   8.271 -0.3851  1.3244  2.4969
   81CHL1   C27 8471   4.703   0.533   8.261  0.1970  0.4023  0.1572
   81CHL1  H27A 8472   4.736   0.617   8.326 -0.5089  0.8579 -0.0574
   81CHL1  H27B 8473   4.616   0.570   8.202  0.4161  0.6773  0.0054
   81CHL1  H27C 8474   4.674   0.438   8.310 -0.0052 -1.1128 -2.6703
   82CHL1    C3 8475   4.791   1.309   6.995  0.2071 -0.6700  0.6948
   82CHL1    H3 8476   4.697   1.264   6.957 -0.9266  1.8744  0.2728
   82CHL1    O3 8477   4.878   1.318   6.882 -0.6410 -0.0410  0.1719
   82CHL1   H3' 8478   4.840   1.380   6.819 -0.0114 -0.2919 -0.4647
   82CHL1    C4 8479   4.760   1.457   7.036  0.1313 -0.0458  0.0459
   82CHL1   H4A 8480   4.852   1.517   7.053 -0.3110  0.1821  1.8027
   82CHL1   H4B 8481   4.704   1.521   6.965  0.7928  0.2385 -0.2291
   82CHL1    C5 8482   4.673   1.448   7.166  0.0799  0.2411  1.2921
   82CHL1    C6 8483   4.562   1.520   7.170  0.6255 -0.8172  0.8088
   82CHL1    H6 8484   4.526   1.580   7.086 -1.2836  1.0140  2.8206
   82CHL1    C7 8485   4.477   1.534   7.298  0.2818 -0.4359 -0.9443
   82CHL1   H7A 8486   4.431   1.634   7.310  1.0183 -0.4074  3.3874
   82CHL1   H7B 8487   4.389   1.467   7.308  0.0240  0.1188  0.9173
   82CHL1    C8 8488   4.557   1.506   7.426  0.5392 -0.5970 -0.1160
   82CHL1    H8 8489   4.626   1.593   7.432  0.6594 -0.7924  2.0367
   82CHL1   C14 8490   4.466   1.496   7.548 -0.0721  0.3600  0.0147
   82CHL1   H14 8491   4.388   1.417   7.536 -1.5175  2.0336 -2.8093
   82CHL1   C15 8492   4.383   1.617   7.585  0.4195  0.6449 -0.3699
   82CHL1  H15A 8493   4.441   1.711   7.574  0.0692  0.9765  0.4934
   82CHL1  H15B 8494   4.295   1.634   7.520 -0.7015 -0.4029  0.8050
   82CHL1   C16 8495   4.349   1.599   7.734 -0.0579  0.0207  0.1335
   82CHL1  H16A 8496   4.372   1.691   7.793  0.5929 -0.6704  0.9765
   82CHL1  H16B 8497   4.242   1.581   7.759  0.6928 -1.2569  2.8397
   82CHL1   C17 8498   4.445   1.485   7.788  0.0937 -0.4529 -0.2143
   82CHL1   H17 8499   4.383   1.393   7.789  0.4708 -0.7551 -1.9955
   82CHL1   C13 8500   4.550   1.472   7.679 -0.0883  1.0122  0.0741
   82CHL1   C18 8501   4.666   1.574   7.710 -0.0490  0.2850 -0.1415
   82CHL1  H18A 8502   4.739   1.593   7.628  0.5152  0.5681  0.4144
   82CHL1  H18B 8503   4.621   1.674   7.730 -0.6496  0.4984 -2.3032
   82CHL1  H18C 8504   4.732   1.539   7.792  1.8417  0.3434 -1.5591
   82CHL1   C12 8505   4.611   1.330   7.664 -0.1474  0.1000 -0.2297
   82CHL1  H12A 8506   4.666   1.308   7.758 -0.2023  1.1209  0.0492
   82CHL1  H12B 8507   4.531   1.254   7.653 -0.4436  0.3508  0.1575
   82CHL1   C11 8508   4.700   1.314   7.535  0.2334  0.6828  0.6540
   82CHL1  H11A 8509   4.795   1.370   7.552 -0.4097  1.7918  0.6778
   82CHL1  H11B 8510   4.716   1.208   7.508  1.1127  0.6364  1.3043
   82CHL1    C9 8511   4.629   1.374   7.409  0.0053 -0.0241 -0.0988
   82CHL1    H9 8512   4.551   1.302   7.377  1.5020 -2.1586  0.7217
   82CHL1   C10 8513   4.730   1.371   7.288 -0.6535 -0.0410 -0.1289
   82CHL1   C19 8514   4.866   1.446   7.325 -0.2857 -0.3715 -0.2374
   82CHL1  H19A 8515   4.936   1.448   7.239  0.0209  0.8653  0.0165
   82CHL1  H19B 8516   4.842   1.545   7.370 -0.9130 -1.5859  2.2310
   82CHL1  H19C 8517   4.927   1.391   7.400  1.9514  0.9841 -0.9563
   82CHL1    C1 8518   4.753   1.222   7.242 -0.7773 -0.3232  0.9854
   82CHL1   H1A 8519   4.813   1.176   7.324  2.0636 -1.7828 -1.6714
   82CHL1   H1B 8520   4.662   1.165   7.216  0.6419 -2.0089 -0.5880
   82CHL1    C2 8521   4.841   1.212   7.103  0.2721 -0.2309  0.3724
   82CHL1   H2A 8522   4.832   1.110   7.060 -1.0023  0.0729 -0.1256
   82CHL1   H2B 8523   4.946   1.236   7.128  0.4245 -2.3160  2.0089
   82CHL1   C20 8524   4.477   1.504   7.937 -0.9010 -0.0854  0.6218
   82CHL1   H20 8525   4.535   1.596   7.960  1.1230 -1.6221  1.9680
   82CHL1   C21 8526   4.551   1.377   7.994  0.1323  0.4415  0.6785
   82CHL1  H21A 8527   4.514   1.288   7.940 -0.4884  1.0698  0.0293
   82CHL1  H21B 8528   4.512   1.382   8.098 -1.8303  0.6803 -0.0169
   82CHL1  H21C 8529   4.658   1.401   7.979  0.1033  0.7289  0.9170
   82CHL1   C22 8530   4.341   1.517   8.017  0.2116 -0.5766  0.3982
   82CHL1  H22A 8531   4.261   1.576   7.969 -1.5569 -2.9390  0.2618
   82CHL1  H22B 8532   4.294   1.417   8.013 -0.3869 -0.2414 -1.6192
   82CHL1   C23 8533   4.350   1.568   8.162  0.3066  0.0303 -0.2623
   82CHL1  H23A 8534   4.447   1.536   8.205 -0.3004 -0.4367  0.7998
   82CHL1  H23B 8535   4.363   1.678   8.163  2.7299 -0.2038 -0.6277
   82CHL1   C24 8536   4.226   1.531   8.240  0.2981  0.3443 -0.5061
   82CHL1  H24A 8537   4.135   1.546   8.178  1.1834 -0.9342 -2.2163
   82CHL1  H24B 8538   4.216   1.421   8.254 -2.7541  0.7056  0.9596
   82CHL1   C25 8539   4.220   1.612   8.369 -0.4632 -0.2406  0.2322
   82CHL1   H25 8540   4.323   1.606   8.410 -0.3700 -2.6302 -0.2236
   82CHL1   C26 8541   4.190   1.758   8.342 -0.4784  0.0909  0.0443
   82CHL1  H26A 8542   4.192   1.813   8.439 -1.4448  0.2776 -0.0332
   82CHL1  H26B 8543   4.256   1.804   8.266  1.9755  0.8962  2.4633
   82CHL1  H26C 8544   4.093   1.766   8.289 -0.9569  1.3240  1.0477
   82CHL1   C27 8545   4.117   1.540   8.450  0.2378  0.6739  0.4606
   82CHL1  H27A 8546   4.014   1.578   8.433  0.7857  1.4774 -1.2095
   82CHL1  H27B 8547   4.113   1.430   8.441  1.1481  0.7770 -1.8458
   82CHL1  H27C 8548   4.134   1.567   8.557  0.4700  1.5668  0.2073
   83CHL1    C3 8549   6.268   0.549   6.920 -0.7433 -0.3129  1.0451
   83CHL1    H3 8550   6.208   0.638   6.945 -0.5515  0.5557 -1.3111
   83CHL1    O3 8551   6.259   0.541   6.781 -0.8379 -0.8162  0.0058
   83CHL1   H3' 8552   6.288   0.627   6.751  2.0527 -0.7354  2.5962
   83CHL1    C4 8553   6.413   0.581   6.958 -0.3794 -0.6154  0.1096
   83CHL1   H4A 8554   6.475   0.504   6.907  1.7140  0.0063  1.5805
   83CHL1   H4B 8555   6.438   0.678   6.912  2.8707 -1.6620 -0.5845
   83CHL1    C5 8556   6.423   0.586   7.110 -0.7659 -0.3739 -0.1187
   83CHL1    C6 8557   6.487   0.689   7.166  0.5267  0.5589  0.0144
   83CHL1    H6 8558   6.538   0.763   7.104  1.1677 -1.7273 -2.3398
   83CHL1    C7 8559   6.497   0.702   7.314 -0.2004 -0.3528 -0.0595
   83CHL1   H7A 8560   6.605   0.727   7.325 -0.9581  2.2971  2.6934
   83CHL1   H7B 8561   6.444   0.793   7.350  3.4180  0.9270  2.6914
   83CHL1    C8 8562   6.460   0.579   7.396  0.5265  1.3139 -0.2274
   83CHL1    H8 8563   6.545   0.507   7.390  1.1404  1.8811  1.1325
   83CHL1   C14 8564   6.438   0.616   7.539 -0.1838 -0.0060  0.3647
   83CHL1   H14 8565   6.349   0.681   7.529  0.5699  1.0713  0.4512
   83CHL1   C15 8566   6.539   0.702   7.608  0.3487  0.0362  0.4866
   83CHL1  H15A 8567   6.640   0.660   7.586 -0.3106 -0.6349 -1.4667
   83CHL1  H15B 8568   6.522   0.809   7.585  0.5741  0.2269  1.1606
   83CHL1   C16 8569   6.503   0.684   7.757  0.0126  0.3833 -0.3339
   83CHL1  H16A 8570   6.598   0.653   7.807 -0.8117 -0.8883  0.5076
   83CHL1  H16B 8571   6.464   0.779   7.798 -0.4402  1.2692 -2.6360
   83CHL1   C17 8572   6.390   0.576   7.773 -0.3842  0.1376 -0.2315
   83CHL1   H17 8573   6.293   0.629   7.764 -0.7739 -0.7590 -1.5396
   83CHL1   C13 8574   6.405   0.498   7.641 -0.0328 -0.3551  0.2872
   83CHL1   C18 8575   6.523   0.411   7.648 -0.0543 -0.4374  0.1089
   83CHL1  H18A 8576   6.605   0.454   7.710  0.4382 -3.8285  2.0622
   83CHL1  H18B 8577   6.498   0.316   7.699 -0.9931 -0.1564  0.1874
   83CHL1  H18C 8578   6.565   0.393   7.547  0.0363  2.7987 -0.5521
   83CHL1   C12 8579   6.290   0.426   7.575  0.5964 -1.2337 -0.9584
   83CHL1  H12A 8580   6.274   0.329   7.627  2.3587 -1.4995 -0.8289
   83CHL1  H12B 8581   6.208   0.500   7.582  0.9638 -0.9386  0.5685
   83CHL1   C11 8582   6.299   0.395   7.425 -0.0803 -0.1935 -0.3347
   83CHL1  H11A 8583   6.377   0.316   7.418 -1.4258 -1.5447 -0.6342
   83CHL1  H11B 8584   6.202   0.351   7.394 -0.0591 -1.6298  1.4966
   83CHL1    C9 8585   6.334   0.512   7.339 -0.0790  0.0851  0.7285
   83CHL1    H9 8586   6.258   0.593   7.337  0.4568  0.7095 -3.6463
   83CHL1   C10 8587   6.352   0.479   7.185 -0.0379  0.3545  0.1906
   83CHL1   C19 8588   6.449   0.358   7.175 -0.0639 -0.3655  0.0746
   83CHL1  H19A 8589   6.390   0.276   7.220 -1.4890  0.8943  0.6030
   83CHL1  H19B 8590   6.476   0.341   7.069  1.3213  1.4072  0.1009
   83CHL1  H19C 8591   6.547   0.374   7.224 -0.3378  0.5401  0.3566
   83CHL1    C1 8592   6.208   0.441   7.133 -1.3569 -0.0064 -0.2418
   83CHL1   H1A 8593   6.189   0.345   7.185  0.5518 -0.1110  0.3337
   83CHL1   H1B 8594   6.145   0.528   7.162 -0.1505  0.1777  2.1016
   83CHL1    C2 8595   6.210   0.430   6.979 -0.0201 -0.1135  0.6214
   83CHL1   H2A 8596   6.103   0.430   6.949 -0.8248 -2.3064  3.1117
   83CHL1   H2B 8597   6.259   0.335   6.947 -1.1519  0.2539 -2.5952
   83CHL1   C20 8598   6.393   0.507   7.909  0.0869 -0.7967  0.0761
   83CHL1   H20 8599   6.489   0.451   7.912  0.7244  0.2428 -0.4634
   83CHL1   C21 8600   6.275   0.408   7.916  0.4937 -0.7487 -0.3916
   83CHL1  H21A 8601   6.289   0.349   8.009  1.9064 -0.3202 -0.3132
   83CHL1  H21B 8602   6.280   0.334   7.833 -0.9604 -0.6089 -0.6315
   83CHL1  H21C 8603   6.178   0.461   7.918  0.5584 -0.6499  1.3934
   83CHL1   C22 8604   6.403   0.611   8.028 -0.1220  0.1000  0.1652
   83CHL1  H22A 8605   6.484   0.684   8.006 -0.4255  0.8252  1.3371
   83CHL1  H22B 8606   6.301   0.652   8.047 -0.2176 -1.0854  2.6637
   83CHL1   C23 8607   6.456   0.546   8.159  0.1540  0.4729  0.2773
   83CHL1  H23A 8608   6.401   0.451   8.176  2.3076 -1.6816 -3.3312
   83CHL1  H23B 8609   6.560   0.510   8.142  0.8267  2.0683  0.8451
   83CHL1   C24 8610   6.466   0.640   8.283  0.4353  0.0020 -0.2691
   83CHL1  H24A 8611   6.525   0.732   8.265  0.7561 -0.4029 -1.4195
   83CHL1  H24B 8612   6.362   0.678   8.294  0.6991  0.2229  1.7441
   83CHL1   C25 8613   6.497   0.565   8.417  0.4650 -0.2442 -0.2931
   83CHL1   H25 8614   6.483   0.629   8.507 -1.1500 -1.1531  0.1508
   83CHL1   C26 8615   6.394   0.444   8.443 -0.1089  0.2534  0.4806
   83CHL1  H26A 8616   6.432   0.404   8.540  1.3970  1.0783  0.2638
   83CHL1  H26B 8617   6.289   0.478   8.453  0.0754  0.5153  1.7667
   83CHL1  H26C 8618   6.408   0.373   8.359  0.0091  0.9830 -0.1185
   83CHL1   C27 8619   6.637   0.501   8.423 -0.6287  0.5352 -0.2246
   83CHL1  H27A 8620   6.654   0.462   8.526  0.8157  2.3844  0.3036
   83CHL1  H27B 8621   6.644   0.417   8.352  3.9512  0.7014 -0.3053
   83CHL1  H27C 8622   6.707   0.587   8.408  1.5063 -1.3259 -1.5269
   84CHL1    C3 8623   0.781   2.574   7.138 -0.6210  0.2434 -0.3959
   84CHL1    H3 8624   0.739   2.677   7.136  0.1548  0.5747 -0.1840
   84CHL1    O3 8625   0.784   2.522   7.006 -0.5790 -0.1345  0.3135
   84CHL1   H3' 8626   0.817   2.432   7.008  2.3699  0.8246 -0.0243
   84CHL1    C4 8627   0.927   2.574   7.200  0.1044  0.1257 -0.5625
   84CHL1   H4A 8628   0.963   2.469   7.194 -0.5221 -0.3255  2.0555
   84CHL1   H4B 8629   0.989   2.632   7.129  1.3111 -2.4276 -1.7025
   84CHL1    C5 8630   0.937   2.616   7.345  0.2117  0.2044  0.1504
   84CHL1    C6 8631   1.017   2.717   7.382 -0.2119  0.1388 -0.0446
   84CHL1    H6 8632   1.071   2.776   7.307 -1.4522  0.2956 -0.8442
   84CHL1    C7 8633   1.040   2.752   7.526  0.1301  0.2109 -0.4678
   84CHL1   H7A 8634   1.145   2.767   7.559 -0.5514 -0.8547  2.5148
   84CHL1   H7B 8635   0.989   2.847   7.552  1.4952  0.3094  2.1849
   84CHL1    C8 8636   0.984   2.633   7.618 -0.4438 -1.1557  0.3644
   84CHL1    H8 8637   1.054   2.547   7.616 -0.2430 -1.0546  1.7442
   84CHL1   C14 8638   0.973   2.687   7.764  0.0071 -0.6982 -0.1408
   84CHL1   H14 8639   0.902   2.772   7.756  1.0455  0.5389  2.6218
   84CHL1   C15 8640   1.105   2.739   7.827 -1.1447 -0.2326  1.6885
   84CHL1  H15A 8641   1.183   2.663   7.805 -1.8076 -0.7197  0.9563
   84CHL1  H15B 8642   1.135   2.841   7.795  1.6357 -1.5314 -0.3117
   84CHL1   C16 8643   1.075   2.733   7.976 -0.2654 -0.6329  0.3337
   84CHL1  H16A 8644   1.161   2.684   8.026 -0.8711 -2.9785 -0.7659
   84CHL1  H16B 8645   1.061   2.834   8.021  0.3875  0.3740 -1.6073
   84CHL1   C17 8646   0.939   2.649   7.998  0.2887 -0.2308 -0.0991
   84CHL1   H17 8647   0.865   2.732   8.000  0.5344  0.1232 -2.4945
   84CHL1   C13 8648   0.912   2.580   7.859 -0.4918 -0.3686 -1.0315
   84CHL1   C18 8649   0.999   2.442   7.859 -0.3780 -0.0198  0.3931
   84CHL1  H18A 8650   1.005   2.390   7.761  3.0033 -1.3565  1.1647
   84CHL1  H18B 8651   1.104   2.468   7.884 -0.1981 -1.8219  1.7441
   84CHL1  H18C 8652   0.947   2.382   7.937 -1.8296 -0.5130 -0.8942
   84CHL1   C12 8653   0.765   2.556   7.828 -0.6113  0.5263  0.1498
   84CHL1  H12A 8654   0.711   2.482   7.891  0.0573 -0.5064 -0.4633
   84CHL1  H12B 8655   0.712   2.653   7.835 -0.7407  0.4363  0.4511
   84CHL1   C11 8656   0.755   2.511   7.687  0.2342  1.1555 -0.4928
   84CHL1  H11A 8657   0.803   2.411   7.697 -0.1792  1.1717  3.2165
   84CHL1  H11B 8658   0.649   2.498   7.657  0.1970  1.1234 -0.3511
   84CHL1    C9 8659   0.839   2.592   7.581  0.2526  0.1846  0.3610
   84CHL1    H9 8660   0.794   2.693   7.569  2.6090  1.4302  1.3027
   84CHL1   C10 8661   0.850   2.535   7.435 -0.3545  0.1373  0.1500
   84CHL1   C19 8662   0.909   2.395   7.451  0.1755 -0.4282  0.5789
   84CHL1  H19A 8663   0.853   2.329   7.520  0.4725 -0.0851  1.1581
   84CHL1  H19B 8664   0.904   2.341   7.355 -2.4064 -0.0790  0.4388
   84CHL1  H19C 8665   1.015   2.399   7.484  0.6969 -0.7325 -1.0203
   84CHL1    C1 8666   0.706   2.519   7.380 -0.4669  0.0316 -0.2525
   84CHL1   H1A 8667   0.655   2.440   7.440 -1.7882  0.8520 -0.2582
   84CHL1   H1B 8668   0.649   2.613   7.395 -0.7595 -0.1546 -0.1827
   84CHL1    C2 8669   0.696   2.490   7.221  0.4869  0.9106 -0.5389
   84CHL1   H2A 8670   0.587   2.494   7.201  0.1065  2.0908  1.5513
   84CHL1   H2B 8671   0.724   2.382   7.227  1.5125  1.2205  0.6703
   84CHL1   C20 8672   0.927   2.556   8.121  0.5266  0.2958  0.3250
   84CHL1   H20 8673   0.867   2.464   8.104  1.8256 -1.2153  3.2319
   84CHL1   C21 8674   0.848   2.633   8.229 -0.3531  0.2815  0.8895
   84CHL1  H21A 8675   0.742   2.660   8.208 -0.3346  0.3362  0.8651
   84CHL1  H21B 8676   0.901   2.730   8.244 -1.3371  1.2364 -1.2521
   84CHL1  H21C 8677   0.845   2.580   8.326  0.0364  1.2375  1.4329
   84CHL1   C22 8678   1.064   2.507   8.167  0.2236  0.7782 -0.5334
   84CHL1  H22A 8679   1.141   2.489   8.089 -0.2122 -1.2491 -0.5474
   84CHL1  H22B 8680   1.098   2.587   8.237 -0.6532  0.2938  0.4714
   84CHL1   C23 8681   1.051   2.388   8.268  0.1256  0.0252 -0.2251
   84CHL1  H23A 8682   0.979   2.421   8.346  0.6074  0.6424 -0.0309
   84CHL1  H23B 8683   1.015   2.296   8.218  2.5412 -1.3573  0.4408
   84CHL1   C24 8684   1.182   2.353   8.332 -0.2801  0.1029  0.3112
   84CHL1  H24A 8685   1.245   2.318   8.247  1.4926 -0.7032  1.8760
   84CHL1  H24B 8686   1.217   2.449   8.376 -3.0414  1.9850 -1.2946
   84CHL1   C25 8687   1.182   2.237   8.438 -0.0932 -0.0858  0.2441
   84CHL1   H25 8688   1.128   2.156   8.386  1.1122 -0.0028 -1.2196
   84CHL1   C26 8689   1.320   2.187   8.466  0.3033 -0.5210  0.1028
   84CHL1  H26A 8690   1.385   2.260   8.518 -1.1490  0.0312  1.1970
   84CHL1  H26B 8691   1.310   2.096   8.529 -0.6878  1.0371  2.3323
   84CHL1  H26C 8692   1.368   2.167   8.368 -1.0594  1.9860 -1.1651
   84CHL1   C27 8693   1.111   2.282   8.567  0.4831  0.5740 -0.1030
   84CHL1  H27A 8694   1.113   2.201   8.643 -0.2172  2.0353  1.5505
   84CHL1  H27B 8695   1.173   2.364   8.608 -0.5777  1.5227 -0.3554
   84CHL1  H27C 8696   1.012   2.333   8.557  0.0932  0.3621  2.0665
   85CHL1    C3 8697   2.512   3.527   6.632 -0.3032  0.4187 -0.6577
   85CHL1    H3 8698   2.574   3.437   6.648  1.4703  1.8451  0.8895
   85CHL1    O3 8699   2.534   3.564   6.499 -0.0358  0.0063  0.2901
   85CHL1   H3' 8700   2.535   3.660   6.494 -0.6569 -0.0161 -0.3237
   85CHL1    C4 8701   2.362   3.507   6.656  0.3374 -0.2501 -0.0684
   85CHL1   H4A 8702   2.307   3.600   6.634 -1.0692 -1.2496 -0.9179
   85CHL1   H4B 8703   2.321   3.438   6.580 -2.6996  1.5563 -0.2115
   85CHL1    C5 8704   2.340   3.458   6.798  0.2740 -0.1058 -0.2430
   85CHL1    C6 8705   2.288   3.340   6.823 -0.0386  0.3053  0.6778
   85CHL1    H6 8706   2.252   3.271   6.744  0.9618 -0.7347  1.1011
   85CHL1    C7 8707   2.252   3.285   6.959  0.4548  0.1646  0.6595
   85CHL1   H7A 8708   2.155   3.233   6.946 -0.0483  1.5318 -1.5920
   85CHL1   H7B 8709   2.325   3.209   6.992  1.3460  0.9210  0.4878
   85CHL1    C8 8710   2.253   3.405   7.062 -0.4119  0.2464 -0.0137
   85CHL1    H8 8711   2.157   3.461   7.053 -1.0040 -0.6522  0.5490
   85CHL1   C14 8712   2.248   3.347   7.206  0.0752 -0.1866  0.6641
   85CHL1   H14 8713   2.339   3.286   7.220 -0.3002 -0.6326  1.2039
   85CHL1   C15 8714   2.142   3.237   7.236 -0.4280 -0.2434  0.0245
   85CHL1  H15A 8715   2.048   3.276   7.192  0.9409  0.6458 -2.2838
   85CHL1  H15B 8716   2.170   3.140   7.191  2.2216  0.7365 -0.6253
   85CHL1   C16 8717   2.148   3.237   7.389  0.4651  0.0266  0.0322
   85CHL1  H16A 8718   2.046   3.265   7.422  0.1704  0.3847 -1.1471
   85CHL1  H16B 8719   2.185   3.140   7.428  1.3226 -0.0852 -1.0126
   85CHL1   C17 8720   2.251   3.344   7.438  0.0086 -0.2779 -0.3043
   85CHL1   H17 8721   2.348   3.291   7.452 -0.5743 -0.8203  2.0658
   85CHL1   C13 8722   2.260   3.442   7.319 -0.1767 -0.9340 -0.1357
   85CHL1   C18 8723   2.136   3.535   7.313 -0.5142 -0.0294  0.6064
   85CHL1  H18A 8724   2.040   3.484   7.292 -0.5317 -0.3327  1.3816
   85CHL1  H18B 8725   2.134   3.584   7.413 -2.0786 -1.4098  1.2906
   85CHL1  H18C 8726   2.143   3.615   7.236 -0.0327 -0.1134  0.5602
   85CHL1   C12 8727   2.391   3.519   7.308 -0.2243 -0.4926  0.1229
   85CHL1  H12A 8728   2.408   3.596   7.387 -2.0634  1.0314 -0.8758
   85CHL1  H12B 8729   2.479   3.452   7.314 -0.6590 -1.0697  0.2090
   85CHL1   C11 8730   2.398   3.589   7.166 -0.1051  0.3157 -0.2073
   85CHL1  H11A 8731   2.328   3.675   7.156  1.6702  1.6246 -2.3337
   85CHL1  H11B 8732   2.503   3.624   7.157 -0.7576  2.0754 -1.4690
   85CHL1    C9 8733   2.372   3.495   7.049 -0.5434 -0.7122  0.5776
   85CHL1    H9 8734   2.459   3.426   7.051  2.5886  2.8301 -0.5610
   85CHL1   C10 8735   2.391   3.556   6.902  0.3485 -0.4151  0.1447
   85CHL1   C19 8736   2.311   3.684   6.901  0.1034 -0.0519  0.5522
   85CHL1  H19A 8737   2.365   3.755   6.967 -0.7376  2.3095 -1.1458
   85CHL1  H19B 8738   2.307   3.732   6.801  2.6385  1.0043  0.8918
   85CHL1  H19C 8739   2.208   3.665   6.939 -0.0977 -2.7566 -1.0878
   85CHL1    C1 8740   2.534   3.594   6.876 -0.1615  0.5808  0.1583
   85CHL1   H1A 8741   2.567   3.681   6.938  0.1129  0.1516  0.6313
   85CHL1   H1B 8742   2.597   3.505   6.901 -0.8736 -0.9087 -2.9366
   85CHL1    C2 8743   2.570   3.635   6.732 -0.0648 -0.2676  0.6097
   85CHL1   H2A 8744   2.680   3.650   6.728 -0.2765  1.8676  1.4224
   85CHL1   H2B 8745   2.530   3.735   6.706  0.9003 -0.0429 -0.0707
   85CHL1   C20 8746   2.213   3.410   7.579  0.3154  0.3782  0.3335
   85CHL1   H20 8747   2.125   3.476   7.568 -0.5450 -0.7344  0.3832
   85CHL1   C21 8748   2.334   3.487   7.627  0.2180  0.3300  0.1990
   85CHL1  H21A 8749   2.326   3.508   7.736 -1.9797  0.7453  0.0180
   85CHL1  H21B 8750   2.344   3.585   7.576  1.3566  0.2265  0.1985
   85CHL1  H21C 8751   2.425   3.428   7.605  1.5337  0.9557  3.4293
   85CHL1   C22 8752   2.178   3.301   7.688 -0.0256  0.2959 -0.9339
   85CHL1  H22A 8753   2.088   3.258   7.637  0.4805 -0.5952 -1.0966
   85CHL1  H22B 8754   2.252   3.219   7.699 -0.6126  0.0165  1.4675
   85CHL1   C23 8755   2.135   3.338   7.823  0.3746 -0.6996  0.5047
   85CHL1  H23A 8756   2.229   3.372   7.871  1.0989 -0.7171 -0.8546
   85CHL1  H23B 8757   2.067   3.425   7.829  1.1046 -0.1418  0.7305
   85CHL1   C24 8758   2.062   3.225   7.900  0.0608 -0.2637  0.1372
   85CHL1  H24A 8759   1.960   3.211   7.860 -0.0926 -0.2710  0.5236
   85CHL1  H24B 8760   2.119   3.130   7.899  0.1481 -0.2096 -0.3037
   85CHL1   C25 8761   2.036   3.263   8.048 -0.0896 -0.1532 -0.1802
   85CHL1   H25 8762   1.975   3.356   8.049 -1.7563 -1.2017  0.7148
   85CHL1   C26 8763   1.957   3.151   8.119  0.1281  0.6719  0.1278
   85CHL1  H26A 8764   1.865   3.131   8.061 -0.6027  0.9634  1.1629
   85CHL1  H26B 8765   2.013   3.056   8.130  0.1113  0.8813  2.5224
   85CHL1  H26C 8766   1.936   3.179   8.225  3.3792 -1.2031  1.4138
   85CHL1   C27 8767   2.167   3.282   8.125 -0.1634  0.1322 -0.0746
   85CHL1  H27A 8768   2.224   3.187   8.118  1.5342  1.0828  0.3375
   85CHL1  H27B 8769   2.224   3.365   8.079 -0.6577 -0.7240 -2.3545
   85CHL1  H27C 8770   2.156   3.305   8.233 -0.7307 -1.9143  0.3564
   86CHL1    C3 8771   4.633   6.328   6.992  0.1975  0.2401  0.2307
   86CHL1    H3 8772   4.648   6.226   7.034 -1.4037  0.4085  1.2916
   86CHL1    O3 8773   4.577   6.328   6.865  0.0552 -0.0181 -0.1423
   86CHL1   H3' 8774   4.559   6.420   6.843  0.0262 -0.3066 -1.3986
   86CHL1    C4 8775   4.537   6.383   7.103  0.5211 -0.2252  0.8241
   86CHL1   H4A 8776   4.495   6.473   7.055  0.1585 -0.4026  0.8036
   86CHL1   H4B 8777   4.450   6.314   7.099  0.1505  0.2980 -1.0155
   86CHL1    C5 8778   4.600   6.404   7.232 -0.1909 -0.5367 -0.1348
   86CHL1    C6 8779   4.553   6.351   7.346 -0.1408 -0.2490  0.0746
   86CHL1    H6 8780   4.465   6.285   7.343 -0.7552  0.5436  0.2455
   86CHL1    C7 8781   4.605   6.382   7.487  0.7789  0.4582 -0.0871
   86CHL1   H7A 8782   4.520   6.409   7.553  0.6488 -0.7620  0.2729
   86CHL1   H7B 8783   4.651   6.291   7.530 -1.3302 -0.4059  0.4409
   86CHL1    C8 8784   4.696   6.503   7.486  1.1111 -0.0671 -0.3174
   86CHL1    H8 8785   4.628   6.591   7.489 -1.3443 -1.8847 -0.0059
   86CHL1   C14 8786   4.773   6.511   7.616  0.8957  0.4374 -0.0595
   86CHL1   H14 8787   4.833   6.418   7.620 -2.2050 -1.6621  1.1270
   86CHL1   C15 8788   4.685   6.500   7.747 -0.4915 -0.4471  0.5864
   86CHL1  H15A 8789   4.604   6.576   7.744  1.3126  1.6075  1.7418
   86CHL1  H15B 8790   4.644   6.397   7.756 -0.9602 -0.2227  1.1446
   86CHL1   C16 8791   4.782   6.545   7.855  0.2957  0.2418  0.6497
   86CHL1  H16A 8792   4.734   6.621   7.921 -3.0009 -1.3933  0.3527
   86CHL1  H16B 8793   4.820   6.463   7.920  1.2745  0.9929  1.0428
   86CHL1   C17 8794   4.908   6.594   7.778 -0.5871 -0.3933  0.1919
   86CHL1   H17 8795   4.970   6.502   7.774 -0.8676 -0.5548 -1.3661
   86CHL1   C13 8796   4.868   6.624   7.631  0.1599  0.0673  0.5839
   86CHL1   C18 8797   4.796   6.763   7.630  0.2532  0.1731 -0.7375
   86CHL1  H18A 8798   4.879   6.837   7.630 -1.0780  1.8733  2.5687
   86CHL1  H18B 8799   4.733   6.779   7.540  1.2230 -0.3841 -1.5389
   86CHL1  H18C 8800   4.728   6.783   7.715  3.0341  0.3604  1.5873
   86CHL1   C12 8801   4.967   6.615   7.522 -1.7191  0.8472  0.6090
   86CHL1  H12A 8802   5.054   6.685   7.518 -1.7960  0.9280  0.3095
   86CHL1  H12B 8803   5.013   6.515   7.539 -2.2123  0.4786 -0.1433
   86CHL1   C11 8804   4.900   6.612   7.380  0.4851 -0.4968  0.0197
   86CHL1  H11A 8805   4.856   6.713   7.367 -0.3773 -1.1302 -2.7970
   86CHL1  H11B 8806   4.981   6.607   7.304  0.7170 -0.6537  0.2754
   86CHL1    C9 8807   4.789   6.507   7.363 -0.5255  0.0909  1.7657
   86CHL1    H9 8808   4.845   6.412   7.373 -0.9777 -0.2912  0.7943
   86CHL1   C10 8809   4.721   6.500   7.226 -0.3060 -0.0812 -0.5342
   86CHL1   C19 8810   4.679   6.648   7.193 -0.1601  0.2117  1.0607
   86CHL1  H19A 8811   4.620   6.666   7.100  1.0503 -0.5316  0.1063
   86CHL1  H19B 8812   4.619   6.682   7.280 -0.8389 -0.7537  0.9881
   86CHL1  H19C 8813   4.762   6.722   7.187  0.6286 -0.6495  1.0041
   86CHL1    C1 8814   4.819   6.435   7.119  0.6604 -0.2629 -0.5983
   86CHL1   H1A 8815   4.894   6.515   7.102  2.0333 -1.2078  0.6409
   86CHL1   H1B 8816   4.863   6.347   7.172 -2.6578 -0.1158  2.7632
   86CHL1    C2 8817   4.756   6.414   6.981 -0.3715 -0.2647 -0.1749
   86CHL1   H2A 8818   4.830   6.360   6.918 -0.7326  0.8712 -1.6137
   86CHL1   H2B 8819   4.734   6.511   6.933  4.1097  1.1359  0.0856
   86CHL1   C20 8820   4.989   6.702   7.857  0.1707  0.0749 -0.2824
   86CHL1   H20 8821   4.952   6.806   7.857  0.7216  0.2876  0.9955
   86CHL1   C21 8822   5.127   6.725   7.795  0.0692 -0.2483  0.2429
   86CHL1  H21A 8823   5.111   6.767   7.693 -1.6410  1.0790  1.0126
   86CHL1  H21B 8824   5.173   6.624   7.791  0.9973  0.1662 -0.2141
   86CHL1  H21C 8825   5.176   6.798   7.863 -1.0130 -1.1678  2.0782
   86CHL1   C22 8826   4.997   6.662   8.011  0.9606  0.6288 -0.1939
   86CHL1  H22A 8827   4.896   6.666   8.059  1.1202  0.4077  0.1580
   86CHL1  H22B 8828   5.028   6.556   8.022 -0.4762  0.0448 -1.2609
   86CHL1   C23 8829   5.085   6.749   8.102  0.0387  0.4220 -0.1060
   86CHL1  H23A 8830   5.194   6.747   8.082  0.3612  3.9044  0.5525
   86CHL1  H23B 8831   5.059   6.855   8.081 -0.2073  0.2726 -0.5688
   86CHL1   C24 8832   5.059   6.716   8.244 -0.2378 -0.8660 -0.0266
   86CHL1  H24A 8833   4.952   6.732   8.268  0.2169  0.7496  1.1241
   86CHL1  H24B 8834   5.086   6.614   8.277  1.5614  0.1742  2.0154
   86CHL1   C25 8835   5.139   6.804   8.349 -0.7532 -0.5012 -1.0751
   86CHL1   H25 8836   5.248   6.804   8.330 -0.3743  1.2289  0.6817
   86CHL1   C26 8837   5.097   6.949   8.343 -0.4852  0.3557 -0.6805
   86CHL1  H26A 8838   4.990   6.960   8.371 -0.1593  0.1996  0.7049
   86CHL1  H26B 8839   5.150   7.011   8.419  0.6524 -0.6224 -0.6358
   86CHL1  H26C 8840   5.141   6.975   8.245  3.2983 -2.2128  0.1173
   86CHL1   C27 8841   5.118   6.747   8.489  0.1524  0.4128 -0.8045
   86CHL1  H27A 8842   5.159   6.645   8.505 -4.9951 -1.9682 -0.7526
   86CHL1  H27B 8843   5.172   6.815   8.558  1.0210  1.7956 -2.7538
   86CHL1  H27C 8844   5.013   6.734   8.524 -0.1857  0.4883 -1.7445
   87CHL1    C3 8845   6.011   3.299   6.987 -0.2153 -0.2303 -0.0528
   87CHL1    H3 8846   5.911   3.341   6.961 -0.1154  2.0133  2.7216
   87CHL1    O3 8847   6.062   3.263   6.861 -0.2762  0.4796 -0.1907
   87CHL1   H3' 8848   6.148   3.222   6.873  0.6151  1.6149 -2.1709
   87CHL1    C4 8849   6.103   3.401   7.060  0.1467 -0.2854  0.1825
   87CHL1   H4A 8850   6.206   3.360   7.063  0.1325 -0.3401 -0.0525
   87CHL1   H4B 8851   6.113   3.492   6.995  2.3091 -0.2417  0.4997
   87CHL1    C5 8852   6.052   3.430   7.197 -1.6552  0.4851 -0.4264
   87CHL1    C6 8853   6.019   3.546   7.248  0.1922 -0.1907 -0.4156
   87CHL1    H6 8854   6.021   3.637   7.186 -3.0892  1.3602  1.4628
   87CHL1    C7 8855   5.974   3.567   7.398 -0.2740 -0.1592  0.7776
   87CHL1   H7A 8856   6.018   3.665   7.424 -1.9685  1.1847 -1.0545
   87CHL1   H7B 8857   5.864   3.582   7.400 -0.1159  1.5809 -0.8706
   87CHL1    C8 8858   6.011   3.453   7.483 -0.1968 -0.2490 -0.0786
   87CHL1    H8 8859   6.122   3.449   7.489 -0.2279 -2.5228 -0.1376
   87CHL1   C14 8860   5.943   3.460   7.621  0.3029 -0.1656  0.5735
   87CHL1   H14 8861   5.834   3.454   7.604  0.4184  0.4502 -0.5104
   87CHL1   C15 8862   5.955   3.592   7.700  0.1313 -0.6243  0.9276
   87CHL1  H15A 8863   6.062   3.622   7.695 -0.4122  1.2578 -1.2889
   87CHL1  H15B 8864   5.902   3.682   7.660  2.3509 -0.5882 -2.3561
   87CHL1   C16 8865   5.930   3.555   7.848  0.1125 -0.2775 -0.2276
   87CHL1  H16A 8866   6.019   3.571   7.912  0.7835 -2.8434 -0.4336
   87CHL1  H16B 8867   5.834   3.597   7.885 -1.7769 -2.0571 -2.7323
   87CHL1   C17 8868   5.904   3.398   7.842  0.1397  0.4538 -0.7210
   87CHL1   H17 8869   5.795   3.397   7.822 -1.0770  0.8525  4.3523
   87CHL1   C13 8870   5.979   3.346   7.714 -0.4433  0.3733  0.1558
   87CHL1   C18 8871   6.132   3.342   7.737  0.3346  0.3919 -0.4467
   87CHL1  H18A 8872   6.153   3.442   7.781 -2.2409  1.2228 -0.9008
   87CHL1  H18B 8873   6.166   3.277   7.820  0.5512  2.1457  0.9107
   87CHL1  H18C 8874   6.194   3.315   7.650  0.2598  0.3228 -0.4782
   87CHL1   C12 8875   5.927   3.216   7.651  0.3015  0.1931  0.2708
   87CHL1  H12A 8876   5.931   3.128   7.718 -2.2905 -0.4580 -0.2956
   87CHL1  H12B 8877   5.817   3.221   7.631  0.5068 -1.1846 -1.4668
   87CHL1   C11 8878   5.989   3.194   7.515  0.3680 -1.3712  0.9914
   87CHL1  H11A 8879   6.095   3.161   7.523  1.0444  0.2293 -0.7290
   87CHL1  H11B 8880   5.937   3.106   7.471 -2.0380  1.0281 -1.3548
   87CHL1    C9 8881   5.978   3.314   7.416 -0.7931  0.2442  0.2223
   87CHL1    H9 8882   5.867   3.321   7.411 -1.1518 -0.4633  4.2515
   87CHL1   C10 8883   6.047   3.296   7.278  0.1015 -0.2239  0.5475
   87CHL1   C19 8884   6.190   3.232   7.300 -0.5230  0.8696  0.0021
   87CHL1  H19A 8885   6.239   3.291   7.380 -2.1242 -0.2646  1.9148
   87CHL1  H19B 8886   6.189   3.133   7.351  0.9232  0.4892 -0.6562
   87CHL1  H19C 8887   6.260   3.220   7.215  0.0909 -0.9873  0.7031
   87CHL1    C1 8888   5.949   3.200   7.204 -0.1437 -0.1231 -0.3320
   87CHL1   H1A 8889   5.942   3.108   7.265  1.4053 -0.1264 -0.1169
   87CHL1   H1B 8890   5.850   3.251   7.204  0.4553  1.0863  0.3306
   87CHL1    C2 8891   5.981   3.172   7.059 -0.5891  0.4991 -0.3348
   87CHL1   H2A 8892   5.908   3.105   7.009  0.7957 -0.3646 -1.2796
   87CHL1   H2B 8893   6.070   3.106   7.058  0.5900  2.0076 -2.0628
   87CHL1   C20 8894   5.923   3.315   7.971  0.1514  0.3786 -0.0346
   87CHL1   H20 8895   5.958   3.215   7.940  3.3610  0.6485  2.2405
   87CHL1   C21 8896   5.774   3.312   8.032  0.1924 -0.3853  0.1267
   87CHL1  H21A 8897   5.769   3.241   8.117  4.1580  1.3509  2.0746
   87CHL1  H21B 8898   5.705   3.278   7.952  0.6800  1.1907 -1.0154
   87CHL1  H21C 8899   5.749   3.417   8.060  1.7631  0.4433 -1.4163
   87CHL1   C22 8900   6.022   3.357   8.079 -0.4067 -0.8171  0.0144
   87CHL1  H22A 8901   6.122   3.370   8.032 -0.5392 -1.5388 -0.4715
   87CHL1  H22B 8902   5.987   3.460   8.101 -0.2982 -0.8733  0.4711
   87CHL1   C23 8903   6.035   3.258   8.197  0.0995 -0.2816  0.8357
   87CHL1  H23A 8904   5.936   3.249   8.246  0.0074  2.2629  1.2264
   87CHL1  H23B 8905   6.085   3.164   8.163  1.4446  1.3014 -1.9453
   87CHL1   C24 8906   6.129   3.299   8.309  0.0926  0.1174  0.1003
   87CHL1  H24A 8907   6.223   3.310   8.250  1.7503  0.6160  2.6615
   87CHL1  H24B 8908   6.098   3.403   8.333  0.0046  0.6637 -2.1479
   87CHL1   C25 8909   6.144   3.209   8.435 -0.0188  0.2119 -0.3046
   87CHL1   H25 8910   6.045   3.172   8.470 -0.8603  1.5822 -1.1295
   87CHL1   C26 8911   6.238   3.086   8.413  0.2339  0.2389  0.0024
   87CHL1  H26A 8912   6.194   3.003   8.353  0.4926  1.3490 -1.8013
   87CHL1  H26B 8913   6.327   3.114   8.353 -0.4138 -0.0278 -1.1200
   87CHL1  H26C 8914   6.273   3.031   8.503  0.6060 -2.8418 -1.8943
   87CHL1   C27 8915   6.199   3.273   8.554 -0.0629  0.2091 -0.3599
   87CHL1  H27A 8916   6.225   3.192   8.626 -0.2939  0.0075 -0.5049
   87CHL1  H27B 8917   6.291   3.333   8.540 -0.0054  0.2713  0.2242
   87CHL1  H27C 8918   6.127   3.339   8.606  0.0255 -0.8437  1.1822
   88CHL1    C3 8919   1.184   4.148   6.910  0.0241  0.5947  0.2210
   88CHL1    H3 8920   1.078   4.174   6.891 -0.2267 -1.8666 -2.4499
   88CHL1    O3 8921   1.217   4.146   6.769 -0.7887 -0.3525  0.0202
   88CHL1   H3' 8922   1.200   4.056   6.740 -1.8506 -0.7886  1.8473
   88CHL1    C4 8923   1.265   4.259   6.995  0.5686  0.2732  0.8263
   88CHL1   H4A 8924   1.372   4.243   6.971  0.3266 -0.2311 -0.0064
   88CHL1   H4B 8925   1.236   4.355   6.947  0.9872 -0.6918 -1.5279
   88CHL1    C5 8926   1.248   4.248   7.145 -0.1977  0.5735 -0.4474
   88CHL1    C6 8927   1.205   4.348   7.226 -0.6646  0.4092  0.5066
   88CHL1    H6 8928   1.178   4.444   7.181  1.8459  0.8652 -0.2091
   88CHL1    C7 8929   1.208   4.348   7.378 -0.1339  0.0282 -0.1779
   88CHL1   H7A 8930   1.257   4.439   7.419  0.2275 -0.5769  0.7755
   88CHL1   H7B 8931   1.107   4.346   7.424 -0.4791 -0.1087 -0.9251
   88CHL1    C8 8932   1.282   4.222   7.434  0.1362 -0.0621  0.2481
   88CHL1    H8 8933   1.390   4.241   7.415  0.8787 -3.6295  0.2298
   88CHL1   C14 8934   1.266   4.207   7.587 -0.1894  0.6260 -0.6299
   88CHL1   H14 8935   1.159   4.180   7.596  0.5166 -1.8366  1.5105
   88CHL1   C15 8936   1.298   4.323   7.672 -0.3573 -0.4490 -0.8230
   88CHL1  H15A 8937   1.397   4.372   7.660  1.4559 -3.9935 -1.8434
   88CHL1  H15B 8938   1.214   4.396   7.660  0.0454  0.2392  0.4608
   88CHL1   C16 8939   1.307   4.261   7.812 -0.4522  0.5198 -0.1174
   88CHL1  H16A 8940   1.407   4.289   7.851 -0.4494 -0.3442  0.5260
   88CHL1  H16B 8941   1.227   4.291   7.883 -0.5472  0.5854 -0.2545
   88CHL1   C17 8942   1.307   4.106   7.799 -0.2333 -0.0604 -0.4236
   88CHL1   H17 8943   1.204   4.063   7.800  0.4936 -2.0865 -2.6704
   88CHL1   C13 8944   1.344   4.086   7.648  0.4910  0.3846  0.1891
   88CHL1   C18 8945   1.500   4.111   7.625  0.1168  0.1284  0.7723
   88CHL1  H18A 8946   1.552   4.013   7.636 -0.0248  0.1010  1.2333
   88CHL1  H18B 8947   1.529   4.146   7.523 -3.1499  3.1883  0.6941
   88CHL1  H18C 8948   1.545   4.178   7.702 -0.2577 -0.3992  1.4631
   88CHL1   C12 8949   1.287   3.962   7.575  0.4275 -0.2955 -0.0087
   88CHL1  H12A 8950   1.336   3.865   7.602 -1.5143 -1.9641 -2.0622
   88CHL1  H12B 8951   1.181   3.960   7.606  0.5498 -0.2214  0.4212
   88CHL1   C11 8952   1.298   3.961   7.419  0.2848 -0.2564  0.3395
   88CHL1  H11A 8953   1.407   3.960   7.399  0.3063  1.3949  0.1698
   88CHL1  H11B 8954   1.250   3.872   7.373  0.3725  0.4272 -1.1477
   88CHL1    C9 8955   1.242   4.091   7.355 -0.1909 -0.2779  0.3669
   88CHL1    H9 8956   1.131   4.086   7.354 -0.3302  1.8104  0.0657
   88CHL1   C10 8957   1.282   4.108   7.200 -0.4505 -0.4886 -0.2557
   88CHL1   C19 8958   1.439   4.077   7.189  0.1551  0.2123 -0.5350
   88CHL1  H19A 8959   1.472   3.976   7.222  1.0204  0.3070 -1.0900
   88CHL1  H19B 8960   1.461   4.089   7.081  0.4905 -2.1444 -0.7764
   88CHL1  H19C 8961   1.506   4.146   7.246  1.0331 -1.8958  1.1324
   88CHL1    C1 8962   1.200   4.002   7.124 -0.5062 -0.1567  0.2024
   88CHL1   H1A 8963   1.241   3.903   7.157 -2.9022 -0.6333  2.0384
   88CHL1   H1B 8964   1.095   4.018   7.154 -0.8256  0.1046 -1.0132
   88CHL1    C2 8965   1.209   4.007   6.970  0.2858 -0.1716  0.0606
   88CHL1   H2A 8966   1.135   3.936   6.926 -1.4847  0.9299  1.1595
   88CHL1   H2B 8967   1.313   3.975   6.948 -0.0543 -0.6943 -0.8461
   88CHL1   C20 8968   1.399   4.036   7.904 -0.1638 -0.5857  0.4985
   88CHL1   H20 8969   1.500   4.083   7.904  0.2956 -1.4406 -1.5902
   88CHL1   C21 8970   1.416   3.886   7.875  0.4856  0.3208  0.1168
   88CHL1  H21A 8971   1.325   3.829   7.904  1.0554 -1.1543 -0.8477
   88CHL1  H21B 8972   1.497   3.835   7.932  1.1910 -0.6798 -1.6801
   88CHL1  H21C 8973   1.436   3.870   7.766  1.8341  3.0297 -0.1021
   88CHL1   C22 8974   1.363   4.051   8.050  0.0437 -0.4821  0.0440
   88CHL1  H22A 8975   1.312   4.148   8.065  1.4164  0.3232 -0.3252
   88CHL1  H22B 8976   1.284   3.974   8.064 -0.2636 -0.4906 -1.5820
   88CHL1   C23 8977   1.478   4.037   8.150  0.1747 -0.3380 -0.2272
   88CHL1  H23A 8978   1.535   3.946   8.122 -0.2875 -0.6387 -0.1888
   88CHL1  H23B 8979   1.542   4.127   8.136  0.5618 -0.5748  0.0197
   88CHL1   C24 8980   1.425   4.046   8.295 -0.7196 -0.4377  0.0578
   88CHL1  H24A 8981   1.341   4.118   8.302 -3.2982 -3.2674  0.5457
   88CHL1  H24B 8982   1.375   3.947   8.309 -2.0629  0.0672 -0.9884
   88CHL1   C25 8983   1.530   4.073   8.404 -0.0783  0.3154 -0.3829
   88CHL1   H25 8984   1.587   4.167   8.386  1.4097  0.0823  2.5616
   88CHL1   C26 8985   1.455   4.083   8.532  0.4699  0.7811  0.6484
   88CHL1  H26A 8986   1.378   4.004   8.545 -0.0679  0.8851 -1.5298
   88CHL1  H26B 8987   1.523   4.089   8.620  2.5529 -0.8213 -0.7733
   88CHL1  H26C 8988   1.405   4.182   8.541  1.1213  1.1311  0.4271
   88CHL1   C27 8989   1.627   3.961   8.418  0.1533  0.1094 -0.0087
   88CHL1  H27A 8990   1.696   3.970   8.505 -0.2685  0.5695  0.2801
   88CHL1  H27B 8991   1.577   3.863   8.423 -0.6636  0.5717  2.7409
   88CHL1  H27C 8992   1.692   3.952   8.328 -0.2199  0.3255 -0.2994
   89CHL1    C3 8993   0.325   5.511   6.935  0.0604  0.6448 -0.5638
   89CHL1    H3 8994   0.241   5.565   6.984 -1.2823 -2.6079  1.0380
   89CHL1    O3 8995   0.291   5.478   6.800  0.1597 -0.4724  0.1961
   89CHL1   H3' 8996   0.342   5.401   6.777  0.1924 -0.5422  0.4957
   89CHL1    C4 8997   0.462   5.574   6.937 -0.8744 -0.2764  0.2938
   89CHL1   H4A 8998   0.507   5.485   6.889 -1.3478 -0.0180 -0.6483
   89CHL1   H4B 8999   0.463   5.664   6.872 -1.4662  0.2845  1.0389
   89CHL1    C5 9000   0.497   5.608   7.080 -0.4009 -0.1448  0.3219
   89CHL1    C6 9001   0.515   5.733   7.128  0.3679  0.2648  0.4799
   89CHL1    H6 9002   0.512   5.811   7.051 -0.3446 -1.3535 -1.2213
   89CHL1    C7 9003   0.552   5.767   7.271  0.6584 -0.4118 -0.6007
   89CHL1   H7A 9004   0.626   5.849   7.267  0.9980 -0.6189  0.9221
   89CHL1   H7B 9005   0.463   5.810   7.321  0.1552  0.2272 -1.9965
   89CHL1    C8 9006   0.594   5.647   7.357 -0.3713  0.8463  0.7152
   89CHL1    H8 9007   0.694   5.623   7.315 -1.3762  0.9330 -1.8891
   89CHL1   C14 9008   0.590   5.676   7.508 -0.2391 -0.1835  0.8749
   89CHL1   H14 9009   0.481   5.686   7.524 -0.9772 -3.4306 -1.1182
   89CHL1   C15 9010   0.677   5.795   7.553  0.4670  0.0175 -0.3100
   89CHL1  H15A 9011   0.782   5.796   7.516  0.8991  2.6500  0.7801
   89CHL1  H15B 9012   0.627   5.887   7.516 -1.1718 -1.3246 -1.6401
   89CHL1   C16 9013   0.690   5.769   7.706 -0.0588 -0.4046  0.0701
   89CHL1  H16A 9014   0.800   5.761   7.719  0.0923  0.8541 -0.2906
   89CHL1  H16B 9015   0.650   5.857   7.760  1.2506  1.8957 -2.4584
   89CHL1   C17 9016   0.627   5.635   7.737  0.8395  0.6828  0.2189
   89CHL1   H17 9017   0.523   5.661   7.765 -0.4090 -0.8869 -2.5464
   89CHL1   C13 9018   0.622   5.560   7.602 -0.2518  0.2239  0.2026
   89CHL1   C18 9019   0.757   5.506   7.561  0.4333 -0.2019  0.0509
   89CHL1  H18A 9020   0.843   5.569   7.593 -0.7034  1.6682 -0.4217
   89CHL1  H18B 9021   0.765   5.406   7.609 -1.5927  1.4357  4.2474
   89CHL1  H18C 9022   0.767   5.499   7.450 -0.1129  2.8234 -0.2758
   89CHL1   C12 9023   0.522   5.446   7.575  0.3609 -0.4549 -0.1878
   89CHL1  H12A 9024   0.550   5.361   7.640  0.0110 -0.0363  0.5289
   89CHL1  H12B 9025   0.427   5.488   7.616  0.3207 -1.0225  0.3255
   89CHL1   C11 9026   0.512   5.409   7.432  0.0738 -0.0936  0.0943
   89CHL1  H11A 9027   0.597   5.343   7.401  0.1882  0.1045 -0.0173
   89CHL1  H11B 9028   0.423   5.344   7.422  0.0522  0.1831 -1.9435
   89CHL1    C9 9029   0.510   5.527   7.327  1.1089 -0.2429 -0.4646
   89CHL1    H9 9030   0.405   5.564   7.327 -0.3693 -3.8471 -2.9544
   89CHL1   C10 9031   0.507   5.486   7.177 -0.6550 -0.2490 -0.3139
   89CHL1   C19 9032   0.639   5.406   7.138 -0.1429  0.2805  0.2893
   89CHL1  H19A 9033   0.634   5.374   7.032  1.0213  0.5413  0.1360
   89CHL1  H19B 9034   0.734   5.459   7.159 -0.4010  1.9268 -2.2901
   89CHL1  H19C 9035   0.636   5.312   7.197  2.4469  0.5689  1.0255
   89CHL1    C1 9036   0.370   5.401   7.157  0.3683  1.0566 -0.6576
   89CHL1   H1A 9037   0.384   5.302   7.207  3.1768  1.8782  0.3731
   89CHL1   H1B 9038   0.284   5.459   7.196  0.1625  2.0372 -2.4745
   89CHL1    C2 9039   0.336   5.374   7.010  0.2378 -0.2319 -0.3801
   89CHL1   H2A 9040   0.238   5.322   7.016  1.0859 -1.7872  0.8511
   89CHL1   H2B 9041   0.407   5.302   6.963 -1.1418 -0.9640 -1.3984
   89CHL1   C20 9042   0.693   5.558   7.855  0.7156 -0.1275  0.2758
   89CHL1   H20 9043   0.773   5.487   7.825 -1.7312 -2.9805  0.0564
   89CHL1   C21 9044   0.584   5.470   7.912 -0.5378 -0.4591  0.5871
   89CHL1  H21A 9045   0.630   5.403   7.988 -0.0287 -2.3824 -1.3320
   89CHL1  H21B 9046   0.532   5.405   7.839  2.5231 -0.4072 -1.8285
   89CHL1  H21C 9047   0.506   5.532   7.961 -1.3693  0.9582 -2.3252
   89CHL1   C22 9048   0.747   5.657   7.960 -0.2496 -0.0163  0.0353
   89CHL1  H22A 9049   0.833   5.715   7.920 -0.5113 -0.3561 -1.0703
   89CHL1  H22B 9050   0.672   5.732   7.993 -1.5670 -1.0600 -0.4997
   89CHL1   C23 9051   0.805   5.577   8.079 -0.4956  0.6284  0.0316
   89CHL1  H23A 9052   0.724   5.539   8.144 -1.0618  2.0410  0.2001
   89CHL1  H23B 9053   0.860   5.487   8.045  1.1552  1.6252 -0.0683
   89CHL1   C24 9054   0.901   5.658   8.167 -0.4932 -0.1010  1.2699
   89CHL1  H24A 9055   0.988   5.686   8.103 -1.7965  2.0601  0.3458
   89CHL1  H24B 9056   0.852   5.747   8.210 -0.5688  0.4021  0.1841
   89CHL1   C25 9057   0.970   5.582   8.287 -1.3282 -0.7093 -0.4080
   89CHL1   H25 9058   1.021   5.494   8.243  1.1131  0.8312 -0.8377
   89CHL1   C26 9059   1.085   5.668   8.345 -0.1340  0.9123  0.0622
   89CHL1  H26A 9060   1.139   5.618   8.428  0.0227  0.3307 -0.3798
   89CHL1  H26B 9061   1.158   5.687   8.264 -0.7314  0.1978 -0.6615
   89CHL1  H26C 9062   1.040   5.762   8.382 -2.9836 -0.3300  0.0042
   89CHL1   C27 9063   0.869   5.550   8.405  0.0573 -0.2352 -0.3365
   89CHL1  H27A 9064   0.927   5.516   8.493 -0.9526 -1.7356 -0.2178
   89CHL1  H27B 9065   0.823   5.643   8.445  1.0811 -0.6736  2.0107
   89CHL1  H27C 9066   0.793   5.475   8.375 -0.0573 -0.4125  0.3932
   90CHL1    C3 9067   5.647   6.199   7.027  0.8710 -0.1083 -0.4949
   90CHL1    H3 9068   5.753   6.221   7.049  0.6165  1.9880 -1.0891
   90CHL1    O3 9069   5.627   6.201   6.885 -0.0743 -0.4058 -0.4402
   90CHL1   H3' 9070   5.531   6.198   6.881 -0.1403  1.1119 -0.9433
   90CHL1    C4 9071   5.597   6.068   7.080  0.4484  0.6557  0.5340
   90CHL1   H4A 9072   5.499   6.038   7.037  1.3613  0.0995 -1.2484
   90CHL1   H4B 9073   5.667   5.993   7.038 -1.2702 -0.6048 -0.2360
   90CHL1    C5 9074   5.586   6.073   7.229 -0.4445 -0.0856 -0.7937
   90CHL1    C6 9075   5.656   5.980   7.301  0.3271  0.3051  0.4052
   90CHL1    H6 9076   5.710   5.904   7.243 -0.9682 -2.0264  2.0814
   90CHL1    C7 9077   5.664   5.981   7.448 -0.1464 -0.0226 -0.6033
   90CHL1   H7A 9078   5.645   5.877   7.483  1.9465 -0.4628 -0.6238
   90CHL1   H7B 9079   5.768   6.010   7.476  0.0677 -2.2885  1.2694
   90CHL1    C8 9080   5.565   6.080   7.517  0.2769  0.1788 -0.3259
   90CHL1    H8 9081   5.466   6.031   7.508  0.8311 -0.6836 -2.2335
   90CHL1   C14 9082   5.605   6.092   7.662 -0.5975  0.0224  0.3811
   90CHL1   H14 9083   5.705   6.141   7.657 -0.4847 -0.3582 -1.9045
   90CHL1   C15 9084   5.615   5.965   7.749  0.0419  0.0121  0.3654
   90CHL1  H15A 9085   5.519   5.910   7.738 -0.2689  0.5109  0.5451
   90CHL1  H15B 9086   5.694   5.893   7.719 -0.6776 -0.3255 -0.7854
   90CHL1   C16 9087   5.631   6.025   7.895  0.0494  0.3091  0.8857
   90CHL1  H16A 9088   5.548   5.976   7.951 -1.7278 -0.1645 -1.9546
   90CHL1  H16B 9089   5.734   6.006   7.932  0.2311 -0.2204  0.1307
   90CHL1   C17 9090   5.600   6.169   7.887 -0.0927 -0.0443  0.2397
   90CHL1   H17 9091   5.703   6.209   7.874  0.6333 -2.0145 -0.3217
   90CHL1   C13 9092   5.525   6.190   7.745  0.1808 -0.2123 -0.3174
   90CHL1   C18 9093   5.377   6.148   7.765  0.1556  0.6837 -0.0951
   90CHL1  H18A 9094   5.370   6.052   7.820  2.5735  0.0610 -0.7668
   90CHL1  H18B 9095   5.312   6.218   7.822 -1.3102 -0.2786 -0.5535
   90CHL1  H18C 9096   5.327   6.123   7.670 -0.8059 -1.6246  0.9560
   90CHL1   C12 9097   5.537   6.331   7.679 -0.8323 -0.2876 -0.3299
   90CHL1  H12A 9098   5.473   6.407   7.729  1.1561 -0.2094  2.2785
   90CHL1  H12B 9099   5.644   6.359   7.682 -0.3436 -2.1144 -0.0700
   90CHL1   C11 9100   5.486   6.326   7.533 -0.2241  0.0297 -0.0012
   90CHL1  H11A 9101   5.376   6.314   7.531 -0.1129 -1.1956  0.5763
   90CHL1  H11B 9102   5.512   6.420   7.480 -2.4979  1.0156  0.5443
   90CHL1    C9 9103   5.561   6.214   7.448  0.0326  0.3974 -0.0532
   90CHL1    H9 9104   5.668   6.243   7.452  0.0976  0.1064  0.3666
   90CHL1   C10 9105   5.522   6.196   7.302 -0.3021  0.2330  0.0476
   90CHL1   C19 9106   5.371   6.174   7.285  0.0019  0.0787  0.7459
   90CHL1  H19A 9107   5.340   6.068   7.275  0.2514 -0.0168  0.9487
   90CHL1  H19B 9108   5.317   6.219   7.371  0.7596 -1.9851  2.3992
   90CHL1  H19C 9109   5.331   6.223   7.195 -0.1229 -0.2303  0.6314
   90CHL1    C1 9110   5.562   6.330   7.229 -0.1506  0.1580  0.1626
   90CHL1   H1A 9111   5.497   6.414   7.261 -0.2960 -0.5458  1.8358
   90CHL1   H1B 9112   5.663   6.352   7.267  0.1471  1.4367 -1.2873
   90CHL1    C2 9113   5.561   6.316   7.075 -0.0190  0.7724 -0.2419
   90CHL1   H2A 9114   5.603   6.409   7.030  1.6023  0.3065  0.2270
   90CHL1   H2B 9115   5.456   6.313   7.040 -0.1839 -0.8329  0.3048
   90CHL1   C20 9116   5.537   6.222   8.015  0.4300  0.0168  0.0115
   90CHL1   H20 9117   5.449   6.159   8.038  0.1406  1.0925  2.0751
   90CHL1   C21 9118   5.477   6.369   7.994 -0.0733 -0.2744 -0.4827
   90CHL1  H21A 9119   5.427   6.410   8.084 -2.1612  0.9703 -2.0927
   90CHL1  H21B 9120   5.395   6.365   7.918 -1.4548  1.4365  0.8301
   90CHL1  H21C 9121   5.554   6.447   7.976 -0.1017 -0.2299 -0.4109
   90CHL1   C22 9122   5.622   6.204   8.143  0.1147  0.1657 -0.3814
   90CHL1  H22A 9123   5.632   6.097   8.171  0.7701  0.8550  2.3065
   90CHL1  H22B 9124   5.718   6.260   8.140 -0.8357  1.8962 -0.0406
   90CHL1   C23 9125   5.555   6.263   8.271 -0.1198  0.8027  0.0546
   90CHL1  H23A 9126   5.499   6.358   8.259 -0.1233  0.9569  1.1995
   90CHL1  H23B 9127   5.486   6.184   8.307 -0.1862 -0.6516 -2.9532
   90CHL1   C24 9128   5.656   6.289   8.380  0.3423 -0.0251 -0.4740
   90CHL1  H24A 9129   5.716   6.196   8.388 -0.7246 -0.6287  0.8313
   90CHL1  H24B 9130   5.726   6.372   8.356  2.4673 -0.4499  3.3949
   90CHL1   C25 9131   5.604   6.323   8.515  1.0800 -0.0419  0.2260
   90CHL1   H25 9132   5.695   6.345   8.575 -0.0673  2.0030  1.3187
   90CHL1   C26 9133   5.521   6.449   8.519  0.0584  0.4172  0.2047
   90CHL1  H26A 9134   5.516   6.486   8.624 -0.7697 -0.8697  0.6377
   90CHL1  H26B 9135   5.572   6.526   8.456 -0.5645  0.3923 -0.3423
   90CHL1  H26C 9136   5.421   6.429   8.476 -0.1826  1.6796  0.1309
   90CHL1   C27 9137   5.542   6.199   8.584  0.0602  0.4860 -0.3791
   90CHL1  H27A 9138   5.615   6.121   8.615  1.6695  1.9861 -0.2532
   90CHL1  H27B 9139   5.482   6.230   8.672 -2.6847 -2.1585 -1.1094
   90CHL1  H27C 9140   5.467   6.155   8.514  0.3485 -0.5532 -0.0497
   91CHL1    C3 9141   5.760   1.289   7.192 -0.5144  0.4492 -0.1986
   91CHL1    H3 9142   5.664   1.338   7.163 -1.6654 -1.5937 -0.0044
   91CHL1    O3 9143   5.858   1.287   7.088  0.4097  0.6346 -0.3214
   91CHL1   H3' 9144   5.838   1.219   7.024 -1.9082 -0.7103  1.6632
   91CHL1    C4 9145   5.813   1.369   7.316  0.0502 -0.1752 -0.2166
   91CHL1   H4A 9146   5.916   1.339   7.343  0.0322  1.1229  1.4413
   91CHL1   H4B 9147   5.817   1.473   7.278 -0.3361  0.5113  1.5479
   91CHL1    C5 9148   5.729   1.343   7.439 -0.2868 -0.4346 -0.1852
   91CHL1    C6 9149   5.684   1.447   7.518  0.2499  0.2225  0.2502
   91CHL1    H6 9150   5.699   1.551   7.484 -4.2136  0.8547 -0.4419
   91CHL1    C7 9151   5.596   1.429   7.639  0.5184  0.5922 -0.5099
   91CHL1   H7A 9152   5.621   1.506   7.715 -0.1291  0.7355 -0.4365
   91CHL1   H7B 9153   5.486   1.432   7.622  0.4413 -3.5343 -2.1102
   91CHL1    C8 9154   5.610   1.287   7.706  0.1853  0.1098 -0.0712
   91CHL1    H8 9155   5.715   1.275   7.738  0.3073 -0.7227 -0.7335
   91CHL1   C14 9156   5.515   1.269   7.822 -0.0339 -0.8601  0.2553
   91CHL1   H14 9157   5.415   1.283   7.774  0.4798  0.3597 -0.4995
   91CHL1   C15 9158   5.516   1.380   7.935  0.0663 -0.1084  0.7109
   91CHL1  H15A 9159   5.615   1.415   7.973 -0.2124  1.2655  0.1989
   91CHL1  H15B 9160   5.465   1.475   7.911 -0.1524 -0.3148  0.3501
   91CHL1   C16 9161   5.439   1.304   8.044 -0.4651  0.0016  0.2470
   91CHL1  H16A 9162   5.497   1.295   8.139 -3.2517 -3.2666  1.8626
   91CHL1  H16B 9163   5.343   1.354   8.069 -1.6962 -1.1323 -1.9016
   91CHL1   C17 9164   5.407   1.156   7.989 -0.0695  0.1517  0.6005
   91CHL1   H17 9165   5.309   1.161   7.937  0.1087 -2.1807 -0.0385
   91CHL1   C13 9166   5.510   1.129   7.874  0.4728 -0.3490 -0.3327
   91CHL1   C18 9167   5.648   1.085   7.940  0.4011 -0.2810  1.1018
   91CHL1  H18A 9168   5.674   1.161   8.016  4.4528 -0.3071 -0.0151
   91CHL1  H18B 9169   5.648   0.987   7.992  0.6669 -0.9093 -0.0352
   91CHL1  H18C 9170   5.727   1.104   7.863 -2.9364 -0.2202 -2.6161
   91CHL1   C12 9171   5.458   1.032   7.770  0.1252 -0.0065  0.2763
   91CHL1  H12A 9172   5.452   0.931   7.816 -0.8409 -0.1145 -0.0716
   91CHL1  H12B 9173   5.361   1.069   7.733  1.6217  2.0230 -1.9327
   91CHL1   C11 9174   5.552   1.040   7.647 -0.1341  0.2263  0.0422
   91CHL1  H11A 9175   5.647   0.993   7.681  1.0867  1.8159 -1.0114
   91CHL1  H11B 9176   5.510   0.980   7.563 -0.3470 -1.4584  1.3065
   91CHL1    C9 9177   5.586   1.185   7.593  0.0810  0.2587  0.3803
   91CHL1    H9 9178   5.492   1.225   7.550 -0.8825 -0.2166  1.9604
   91CHL1   C10 9179   5.692   1.190   7.475 -0.0865 -0.2537  0.1974
   91CHL1   C19 9180   5.820   1.111   7.531 -0.0183 -0.2616  0.0945
   91CHL1  H19A 9181   5.907   1.123   7.463 -0.2235 -1.1395 -0.3452
   91CHL1  H19B 9182   5.842   1.140   7.635 -1.4836  1.4820 -0.0419
   91CHL1  H19C 9183   5.802   1.002   7.519  0.0186 -0.0173 -3.0509
   91CHL1    C1 9184   5.638   1.122   7.347 -0.1355 -0.2547 -0.0318
   91CHL1   H1A 9185   5.644   1.013   7.369  1.7526 -0.0728  0.5196
   91CHL1   H1B 9186   5.534   1.160   7.339 -0.3677  0.3503  3.9300
   91CHL1    C2 9187   5.731   1.140   7.221  0.5108 -0.0394 -0.0328
   91CHL1   H2A 9188   5.694   1.088   7.130  1.3158 -0.1802 -0.2817
   91CHL1   H2B 9189   5.823   1.095   7.263 -0.2109 -1.5952 -0.0274
   91CHL1   C20 9190   5.391   1.058   8.097 -0.2447 -0.5078  0.0038
   91CHL1   H20 9191   5.389   0.956   8.052  0.3186  0.1180 -1.4829
   91CHL1   C21 9192   5.246   1.077   8.148 -0.0553 -0.3023  0.4122
   91CHL1  H21A 9193   5.169   1.079   8.068  1.2699  0.3321 -0.8950
   91CHL1  H21B 9194   5.230   1.175   8.198  2.4031  0.5600 -0.3742
   91CHL1  H21C 9195   5.215   1.000   8.222 -1.9583  1.0576  1.1025
   91CHL1   C22 9196   5.482   1.070   8.228 -0.4774  0.4945  0.6965
   91CHL1  H22A 9197   5.588   1.099   8.213 -0.1822 -0.4562  0.8261
   91CHL1  H22B 9198   5.440   1.155   8.285  0.0820  0.8221  0.6268
   91CHL1   C23 9199   5.488   0.943   8.320  0.5567  0.2345  0.5336
   91CHL1  H23A 9200   5.387   0.896   8.330  0.2626  0.8643  0.5713
   91CHL1  H23B 9201   5.545   0.867   8.263 -2.3963 -0.9870 -1.0460
   91CHL1   C24 9202   5.538   0.972   8.458 -0.1715  0.9931  0.5819
   91CHL1  H24A 9203   5.506   1.069   8.501 -0.6066  0.3979  1.6384
   91CHL1  H24B 9204   5.488   0.899   8.526 -2.4468  1.3382 -0.6244
   91CHL1   C25 9205   5.689   0.954   8.489 -0.0683 -0.5054  0.0099
   91CHL1   H25 9206   5.744   1.008   8.409  1.4168 -0.6830  0.8615
   91CHL1   C26 9207   5.721   1.014   8.622 -0.3430 -0.7915  0.4509
   91CHL1  H26A 9208   5.704   1.123   8.636 -0.5597 -0.8766  0.8994
   91CHL1  H26B 9209   5.663   0.962   8.702 -0.2611 -0.6363  0.6133
   91CHL1  H26C 9210   5.827   0.998   8.650  1.0419  1.2543 -3.0288
   91CHL1   C27 9211   5.736   0.807   8.491 -0.0144 -0.2926 -0.1811
   91CHL1  H27A 9212   5.700   0.755   8.583  3.0553 -0.1080  1.2731
   91CHL1  H27B 9213   5.706   0.744   8.405  1.7218 -3.5627  1.4351
   91CHL1  H27C 9214   5.846   0.800   8.506 -0.0694 -0.6522  0.0700
   92CHL1    C3 9215   3.276   4.278   6.740  0.7093 -0.0057 -1.3811
   92CHL1    H3 9216   3.165   4.276   6.742  0.7235 -0.0489 -0.0497
   92CHL1    O3 9217   3.321   4.283   6.609 -0.2755  0.0918 -0.2064
   92CHL1   H3' 9218   3.417   4.275   6.615 -0.3913 -0.9189  0.5493
   92CHL1    C4 9219   3.315   4.402   6.811  0.0770 -0.4158  0.1899
   92CHL1   H4A 9220   3.423   4.423   6.801  0.0499  0.2699  1.1512
   92CHL1   H4B 9221   3.273   4.491   6.759  0.2551 -0.3623  0.1372
   92CHL1    C5 9222   3.279   4.412   6.954  0.2475 -0.1216  0.5909
   92CHL1    C6 9223   3.202   4.505   7.007  0.4901  0.2748  0.1648
   92CHL1    H6 9224   3.162   4.591   6.951 -1.8438 -0.7885  0.0500
   92CHL1    C7 9225   3.182   4.520   7.158 -0.0231  0.2665  0.5892
   92CHL1   H7A 9226   3.212   4.622   7.189 -1.9956  1.7449 -1.9986
   92CHL1   H7B 9227   3.074   4.507   7.175 -0.2348 -1.6219 -1.6823
   92CHL1    C8 9228   3.255   4.419   7.242  0.1811  0.7381 -1.2207
   92CHL1    H8 9229   3.356   4.464   7.249  0.8148 -0.6730 -0.8944
   92CHL1   C14 9230   3.194   4.407   7.382 -0.0040  0.6065 -0.2555
   92CHL1   H14 9231   3.088   4.376   7.374 -0.3696  1.8168 -0.2440
   92CHL1   C15 9232   3.180   4.534   7.458  0.2973 -0.3353  0.3012
   92CHL1  H15A 9233   3.280   4.577   7.441  1.0046 -1.4464  1.4668
   92CHL1  H15B 9234   3.100   4.602   7.420  1.3569  0.9945  0.3876
   92CHL1   C16 9235   3.174   4.490   7.604 -0.1842 -0.0532 -0.0303
   92CHL1  H16A 9236   3.244   4.549   7.667 -0.0251  0.5900 -0.7894
   92CHL1  H16B 9237   3.074   4.508   7.649  0.6069  0.5726  1.5515
   92CHL1   C17 9238   3.194   4.336   7.618 -0.0892  0.2775  0.1640
   92CHL1   H17 9239   3.093   4.292   7.605 -0.4089  1.1345 -0.3856
   92CHL1   C13 9240   3.269   4.307   7.486 -0.2073 -0.2523  1.0699
   92CHL1   C18 9241   3.418   4.356   7.501  0.0288 -0.0569  0.6050
   92CHL1  H18A 9242   3.463   4.349   7.399  2.3868 -0.5450  1.6205
   92CHL1  H18B 9243   3.410   4.457   7.544  0.4891 -0.5021  1.7701
   92CHL1  H18C 9244   3.468   4.282   7.567  1.5116 -1.8107 -2.2649
   92CHL1   C12 9245   3.247   4.173   7.423 -0.1201 -0.2155  0.3073
   92CHL1  H12A 9246   3.283   4.080   7.472 -0.8778  0.7185  2.7795
   92CHL1  H12B 9247   3.137   4.159   7.414 -0.1794 -1.0796  1.9609
   92CHL1   C11 9248   3.297   4.162   7.275  0.3362  0.2754 -0.1247
   92CHL1  H11A 9249   3.407   4.168   7.284  0.4169  3.1821 -1.7811
   92CHL1  H11B 9250   3.263   4.062   7.239 -0.4190  0.1341  0.9257
   92CHL1    C9 9251   3.257   4.282   7.182  0.2278 -0.2108 -0.7890
   92CHL1    H9 9252   3.151   4.266   7.155 -0.2003  0.2946  0.4882
   92CHL1   C10 9253   3.327   4.290   7.043 -0.1726  0.4722  0.2889
   92CHL1   C19 9254   3.481   4.295   7.056  0.6544 -0.3099  0.0820
   92CHL1  H19A 9255   3.515   4.384   7.112 -1.0377 -0.2277  1.0570
   92CHL1  H19B 9256   3.520   4.203   7.105  0.0761 -0.6634 -0.1008
   92CHL1  H19C 9257   3.528   4.288   6.956 -0.2098  1.4434 -0.4857
   92CHL1    C1 9258   3.282   4.162   6.953 -0.8508  0.6520 -0.4552
   92CHL1   H1A 9259   3.314   4.069   7.005 -0.8614  0.1849 -1.2780
   92CHL1   H1B 9260   3.172   4.162   6.969 -0.8527 -0.0046 -0.4387
   92CHL1    C2 9261   3.328   4.152   6.811 -0.0222  0.2371 -0.4876
   92CHL1   H2A 9262   3.282   4.063   6.765  0.8684 -0.2462 -0.4519
   92CHL1   H2B 9263   3.438   4.135   6.806 -0.0132 -0.1572  0.6883
   92CHL1   C20 9264   3.244   4.285   7.747  0.4912 -0.3183  0.1842
   92CHL1   H20 9265   3.331   4.348   7.776 -0.1985  1.4108 -1.3050
   92CHL1   C21 9266   3.275   4.141   7.740  0.9121  0.4915  0.0402
   92CHL1  H21A 9267   3.364   4.120   7.676 -0.1897  0.7484 -1.6308
   92CHL1  H21B 9268   3.188   4.078   7.711  1.6064  1.1198 -4.0388
   92CHL1  H21C 9269   3.308   4.100   7.838  0.4698 -0.1575 -0.0768
   92CHL1   C22 9270   3.135   4.326   7.854 -0.2714 -0.1049 -0.4841
   92CHL1  H22A 9271   3.128   4.437   7.852 -2.0700 -0.1653  0.2253
   92CHL1  H22B 9272   3.038   4.287   7.815  0.5154 -3.1218  0.3725
   92CHL1   C23 9273   3.172   4.284   7.999  0.1096  0.3100 -0.4120
   92CHL1  H23A 9274   3.166   4.173   7.999 -1.7097  0.3718  0.3190
   92CHL1  H23B 9275   3.276   4.315   8.022  0.4532 -1.8193  1.1910
   92CHL1   C24 9276   3.080   4.356   8.097 -0.3343  0.7612 -0.2498
   92CHL1  H24A 9277   3.103   4.464   8.099  2.2601  0.2505  0.9761
   92CHL1  H24B 9278   2.983   4.343   8.044 -0.4546  0.3118  0.0706
   92CHL1   C25 9279   3.077   4.296   8.250 -0.2211  0.7402 -0.1866
   92CHL1   H25 9280   3.034   4.194   8.255  0.2556  0.5080 -0.7785
   92CHL1   C26 9281   3.217   4.266   8.306  0.4779  0.3939  0.1508
   92CHL1  H26A 9282   3.200   4.233   8.411  0.6717  0.5377  0.2269
   92CHL1  H26B 9283   3.283   4.191   8.257  1.0913  2.3334 -2.1820
   92CHL1  H26C 9284   3.278   4.359   8.303  0.6417  0.2701 -2.0817
   92CHL1   C27 9285   2.993   4.381   8.336  0.5584 -0.2452 -0.0039
   92CHL1  H27A 9286   2.896   4.415   8.295  0.5353  0.4494  0.6025
   92CHL1  H27B 9287   2.962   4.321   8.425  2.7922  2.0627  2.5227
   92CHL1  H27C 9288   3.061   4.458   8.379  1.5768 -1.2233  0.1810
   93CHL1    C3 9289   1.805   0.821   7.096 -0.2784  0.3774  0.4702
   93CHL1    H3 9290   1.910   0.852   7.112  0.2519 -1.0083 -0.0872
   93CHL1    O3 9291   1.752   0.861   6.971 -0.3538  0.3628  0.1480
   93CHL1   H3' 9292   1.659   0.840   6.984 -0.2889  0.9266  1.7215
   93CHL1    C4 9293   1.795   0.669   7.108 -0.2236  0.1544  0.2172
   93CHL1   H4A 9294   1.690   0.640   7.087  0.1693 -0.0903 -1.5505
   93CHL1   H4B 9295   1.838   0.621   7.018 -0.6992  0.2962 -0.0889
   93CHL1    C5 9296   1.834   0.618   7.247  0.3622  0.1312  0.4140
   93CHL1    C6 9297   1.929   0.527   7.255  0.3515 -0.2194 -0.0369
   93CHL1    H6 9298   1.982   0.497   7.164 -0.2800 -0.3930 -0.3521
   93CHL1    C7 9299   1.974   0.459   7.379  0.2292 -0.1960 -0.2358
   93CHL1   H7A 9300   1.969   0.350   7.360 -0.5907  0.0981 -1.8514
   93CHL1   H7B 9301   2.077   0.496   7.399  0.2121  1.9086 -3.3486
   93CHL1    C8 9302   1.874   0.496   7.500  0.6849 -0.3047 -0.1919
   93CHL1    H8 9303   1.785   0.431   7.486 -0.0356  0.8608 -1.2276
   93CHL1   C14 9304   1.952   0.480   7.634  0.2926  0.3780  0.8502
   93CHL1   H14 9305   2.031   0.558   7.636  0.7077  0.0072 -0.4126
   93CHL1   C15 9306   2.032   0.349   7.643 -0.3047  0.0952 -0.5055
   93CHL1  H15A 9307   1.976   0.262   7.604  0.2373 -0.6669  0.3656
   93CHL1  H15B 9308   2.137   0.357   7.607  0.0396 -1.6251 -0.0096
   93CHL1   C16 9309   2.052   0.331   7.801  0.2661  0.2884  0.0846
   93CHL1  H16A 9310   2.011   0.236   7.843 -0.1944  0.7226  0.6377
   93CHL1  H16B 9311   2.160   0.328   7.826  0.6854 -0.8772 -1.6498
   93CHL1   C17 9312   1.975   0.449   7.865 -1.0430 -0.4102 -0.0418
   93CHL1   H17 9313   2.042   0.538   7.870 -2.6072  0.8707 -0.9942
   93CHL1   C13 9314   1.871   0.491   7.763  0.2357 -0.2553 -0.1127
   93CHL1   C18 9315   1.752   0.384   7.777  0.5640  0.1099 -0.6599
   93CHL1  H18A 9316   1.682   0.427   7.852 -0.1788 -3.2420  0.7260
   93CHL1  H18B 9317   1.691   0.371   7.685  0.2652  0.1148 -0.4656
   93CHL1  H18C 9318   1.789   0.287   7.815  0.9886  1.2849  2.1849
   93CHL1   C12 9319   1.816   0.636   7.762 -0.2787  0.0215  0.1666
   93CHL1  H12A 9320   1.751   0.664   7.847  1.9039 -0.0724  1.9407
   93CHL1  H12B 9321   1.905   0.699   7.778 -0.0148 -0.2936 -0.0425
   93CHL1   C11 9322   1.736   0.671   7.630 -0.2516 -0.0997  0.2682
   93CHL1  H11A 9323   1.640   0.616   7.626 -0.1915 -0.1264 -1.3625
   93CHL1  H11B 9324   1.717   0.780   7.634 -0.4367 -0.1711  1.9047
   93CHL1    C9 9325   1.821   0.637   7.502 -0.3885  0.1989  0.1900
   93CHL1    H9 9326   1.912   0.700   7.511 -0.0266 -0.3018  0.0702
   93CHL1   C10 9327   1.757   0.676   7.368 -0.2785  0.4138 -0.0917
   93CHL1   C19 9328   1.608   0.633   7.365 -0.4417  0.3108 -0.7047
   93CHL1  H19A 9329   1.564   0.655   7.266  0.9026 -0.3807 -1.4783
   93CHL1  H19B 9330   1.606   0.522   7.372 -1.3700  0.3505 -0.2268
   93CHL1  H19C 9331   1.548   0.679   7.447  1.5628 -0.9949  1.6230
   93CHL1    C1 9332   1.763   0.830   7.347  0.3061 -0.6492  0.5541
   93CHL1   H1A 9333   1.715   0.879   7.435  0.5290 -1.4034  1.1084
   93CHL1   H1B 9334   1.872   0.851   7.359  0.4214 -0.2409 -1.0178
   93CHL1    C2 9335   1.718   0.882   7.210 -0.5538 -0.3021  0.0933
   93CHL1   H2A 9336   1.733   0.991   7.221  1.7080 -0.6515  0.9649
   93CHL1   H2B 9337   1.613   0.848   7.192 -0.0633 -1.8931  0.0780
   93CHL1   C20 9338   1.943   0.425   8.018 -0.1998 -0.8739  0.8612
   93CHL1   H20 9339   1.880   0.334   8.029 -1.3443 -0.0497  1.3175
   93CHL1   C21 9340   1.871   0.557   8.064  0.3115  0.2112 -0.5765
   93CHL1  H21A 9341   1.933   0.646   8.039  1.1333 -0.2815 -0.3502
   93CHL1  H21B 9342   1.863   0.551   8.174  1.1108 -0.9321 -0.5644
   93CHL1  H21C 9343   1.775   0.559   8.009  0.3434  0.3748 -0.6271
   93CHL1   C22 9344   2.070   0.408   8.095  0.1139 -0.2929 -0.2426
   93CHL1  H22A 9345   2.141   0.339   8.044 -0.9440 -1.9673  0.4831
   93CHL1  H22B 9346   2.118   0.508   8.101 -2.6127  1.0746  0.3939
   93CHL1   C23 9347   2.060   0.351   8.240 -0.3550  0.2898 -0.0324
   93CHL1  H23A 9348   2.151   0.376   8.300 -0.9927  1.1160  0.6153
   93CHL1  H23B 9349   1.982   0.413   8.290  1.8101  3.2774 -0.0660
   93CHL1   C24 9350   2.033   0.201   8.262 -0.1797  0.3952 -0.2006
   93CHL1  H24A 9351   2.028   0.186   8.372 -4.7990 -1.4345 -0.4475
   93CHL1  H24B 9352   1.931   0.195   8.220 -0.7710  0.0340  1.2098
   93CHL1   C25 9353   2.133   0.103   8.199  0.1026  0.1423 -0.0486
   93CHL1   H25 9354   2.121   0.110   8.089 -2.9673  2.9898  0.3281
   93CHL1   C26 9355   2.283   0.134   8.217 -0.1831 -0.2265 -0.0974
   93CHL1  H26A 9356   2.349   0.073   8.152 -1.5052 -0.3144 -1.4239
   93CHL1  H26B 9357   2.305   0.239   8.188 -0.0465 -0.3357 -0.3927
   93CHL1  H26C 9358   2.317   0.113   8.321  0.7184 -0.2319 -0.3853
   93CHL1   C27 9359   2.104  -0.044   8.237  0.3217  0.2418 -0.2758
   93CHL1  H27A 9360   2.172  -0.113   8.183  2.0237  0.3996  1.5659
   93CHL1  H27B 9361   2.111  -0.046   8.347  0.0793  0.7772 -0.2446
   93CHL1  H27C 9362   2.000  -0.068   8.206  0.5305  0.0116 -0.8120
   94CHL1    C3 9363   4.347   4.832   6.931  0.1809 -0.1183 -0.6771
   94CHL1    H3 9364   4.274   4.748   6.923 -0.2716  0.3710 -2.1274
   94CHL1    O3 9365   4.400   4.838   6.799 -0.3851 -1.0082 -0.2478
   94CHL1   H3' 9366   4.346   4.900   6.749 -0.5451 -0.0225  1.0901
   94CHL1    C4 9367   4.284   4.967   6.975  0.2758 -1.0692  0.7689
   94CHL1   H4A 9368   4.371   5.036   6.967  1.3050 -2.3538  0.4470
   94CHL1   H4B 9369   4.229   5.005   6.886  0.7675 -0.1645  0.8334
   94CHL1    C5 9370   4.215   4.962   7.109 -0.6119 -0.3501  0.6966
   94CHL1    C6 9371   4.084   4.982   7.129 -0.3517  0.1981 -0.2651
   94CHL1    H6 9372   4.024   5.015   7.043  0.4369 -1.7098 -1.6303
   94CHL1    C7 9373   4.014   4.972   7.265 -0.7110  0.2848 -0.6103
   94CHL1   H7A 9374   3.967   5.073   7.277  1.7616  1.3871  0.5397
   94CHL1   H7B 9375   3.946   4.884   7.267  1.1707 -1.2544  1.8119
   94CHL1    C8 9376   4.118   4.961   7.387  0.4183  0.6750  0.4923
   94CHL1    H8 9377   4.164   5.061   7.400 -0.4299  1.7239 -3.2625
   94CHL1   C14 9378   4.040   4.909   7.504  0.3979 -0.3432 -1.1015
   94CHL1   H14 9379   4.009   4.809   7.469  1.3727 -1.2474  0.4772
   94CHL1   C15 9380   3.921   4.990   7.553 -0.5177 -0.3090  0.4760
   94CHL1  H15A 9381   3.959   5.094   7.548 -2.2510  0.2903 -2.3238
   94CHL1  H15B 9382   3.831   4.982   7.488  0.3642  3.1040 -1.3856
   94CHL1   C16 9383   3.900   4.952   7.700  0.2790  0.2319  0.3062
   94CHL1  H16A 9384   3.879   5.041   7.763 -0.8969  1.7600 -2.1198
   94CHL1  H16B 9385   3.798   4.909   7.698 -1.1097  3.2603 -1.2834
   94CHL1   C17 9386   4.017   4.851   7.734  0.0886  0.0783 -0.1374
   94CHL1   H17 9387   3.964   4.756   7.710  0.0909  0.0138  0.1059
   94CHL1   C13 9388   4.124   4.895   7.628 -0.2739 -0.3617 -0.8426
   94CHL1   C18 9389   4.198   5.031   7.668  0.4172 -0.3607 -0.1808
   94CHL1  H18A 9390   4.129   5.118   7.674  2.1126  1.0605 -0.5326
   94CHL1  H18B 9391   4.249   5.018   7.765 -0.0682 -0.2487  0.0953
   94CHL1  H18C 9392   4.285   5.045   7.601 -0.0613  1.0216 -0.5538
   94CHL1   C12 9393   4.228   4.785   7.601  0.4547  0.4035 -0.6557
   94CHL1  H12A 9394   4.297   4.776   7.688  0.7810 -3.9495 -1.1664
   94CHL1  H12B 9395   4.171   4.690   7.593 -2.0683  1.8514 -0.9234
   94CHL1   C11 9396   4.295   4.792   7.464  0.0698 -0.0434 -0.3569
   94CHL1  H11A 9397   4.379   4.862   7.486  0.2911 -0.3585 -0.1809
   94CHL1  H11B 9398   4.333   4.693   7.431  0.5381 -0.2231  0.6681
   94CHL1    C9 9399   4.218   4.859   7.345  0.3683  0.7688 -0.5226
   94CHL1    H9 9400   4.151   4.777   7.309  0.0570  1.2285 -1.0025
   94CHL1   C10 9401   4.302   4.896   7.222 -0.4033 -0.0721 -0.0215
   94CHL1   C19 9402   4.408   5.010   7.265  0.0488 -0.2481  0.3259
   94CHL1  H19A 9403   4.348   5.093   7.307 -0.8629 -0.4333 -0.5844
   94CHL1  H19B 9404   4.485   4.974   7.337  2.0695  0.5925 -1.3313
   94CHL1  H19C 9405   4.465   5.045   7.177  0.4311  0.6612  0.9152
   94CHL1    C1 9406   4.377   4.772   7.170  0.0406 -0.3250  0.3289
   94CHL1   H1A 9407   4.464   4.743   7.233  0.0674  0.1881  0.5343
   94CHL1   H1B 9408   4.318   4.678   7.170 -0.8055  0.1973  0.9883
   94CHL1    C2 9409   4.451   4.792   7.035 -0.3978 -0.3922 -0.6464
   94CHL1   H2A 9410   4.503   4.700   7.003  0.7373  0.2253 -0.6013
   94CHL1   H2B 9411   4.524   4.875   7.037  0.1009 -0.8389  0.3265
   94CHL1   C20 9412   4.066   4.844   7.880  0.2168 -0.3859 -0.4407
   94CHL1   H20 9413   4.166   4.891   7.893 -0.1736  0.0380  1.2994
   94CHL1   C21 9414   4.084   4.701   7.916 -0.4122  0.7022  0.8225
   94CHL1  H21A 9415   4.145   4.682   8.007 -0.0288 -0.1955  0.3859
   94CHL1  H21B 9416   4.131   4.648   7.830 -0.7714  2.2241 -0.3428
   94CHL1  H21C 9417   3.982   4.661   7.932  0.1170 -1.3778 -0.5952
   94CHL1   C22 9418   3.957   4.900   7.976 -0.3292 -0.1510 -0.1503
   94CHL1  H22A 9419   3.921   5.004   7.958 -0.9684 -0.7127 -2.5387
   94CHL1  H22B 9420   3.866   4.841   7.951 -0.0076 -0.4796 -0.5672
   94CHL1   C23 9421   3.996   4.893   8.126 -1.4282  0.2666 -0.5009
   94CHL1  H23A 9422   3.997   4.789   8.165 -0.3835 -0.0433 -1.3394
   94CHL1  H23B 9423   4.102   4.922   8.142 -1.0444 -0.1215 -2.2265
   94CHL1   C24 9424   3.915   4.988   8.223 -0.1446  0.7330  0.1140
   94CHL1  H24A 9425   3.978   5.004   8.313 -0.0078 -0.0725  0.1651
   94CHL1  H24B 9426   3.925   5.076   8.156 -0.3880  1.1370  0.6066
   94CHL1   C25 9427   3.764   4.957   8.241 -0.9978  0.0437  0.4551
   94CHL1   H25 9428   3.727   4.962   8.136 -1.7373  0.7869  0.7396
   94CHL1   C26 9429   3.742   4.822   8.301 -0.0381  0.2543  0.8075
   94CHL1  H26A 9430   3.639   4.784   8.287  0.4174 -0.8900  0.4301
   94CHL1  H26B 9431   3.807   4.750   8.246  0.4378  0.0289  1.6581
   94CHL1  H26C 9432   3.767   4.802   8.407 -1.5370 -0.5491  1.0282
   94CHL1   C27 9433   3.702   5.074   8.319  0.2000 -0.0823 -0.0116
   94CHL1  H27A 9434   3.764   5.096   8.409  0.8554 -0.8092 -0.2704
   94CHL1  H27B 9435   3.695   5.163   8.253 -1.0991  0.7539  1.1965
   94CHL1  H27C 9436   3.597   5.054   8.350  1.0206 -1.1523  2.3584
   95CHL1    C3 9437   5.056   3.427   6.706 -0.1313  0.1754  0.4220
   95CHL1    H3 9438   4.945   3.428   6.716 -0.1015 -0.8891  1.0905
   95CHL1    O3 9439   5.085   3.412   6.565  0.1544 -0.0670 -0.2956
   95CHL1   H3' 9440   5.101   3.318   6.554 -2.2983 -0.7968  1.6125
   95CHL1    C4 9441   5.118   3.555   6.768 -0.8818 -0.0814 -0.0757
   95CHL1   H4A 9442   5.227   3.553   6.744 -0.5581  2.9500  0.7662
   95CHL1   H4B 9443   5.079   3.636   6.703 -0.0957  0.5276  0.1827
   95CHL1    C5 9444   5.079   3.572   6.916 -0.1938 -0.0985 -0.2016
   95CHL1    C6 9445   5.012   3.682   6.956 -0.5808  0.8533  0.7823
   95CHL1    H6 9446   4.993   3.763   6.883  0.7568 -0.3150 -0.9371
   95CHL1    C7 9447   4.966   3.706   7.096 -0.1976  0.3205 -0.9533
   95CHL1   H7A 9448   5.000   3.804   7.137  1.4590 -1.6019  2.7911
   95CHL1   H7B 9449   4.856   3.695   7.111  0.1109 -2.4421 -0.0873
   95CHL1    C8 9450   5.029   3.609   7.199 -0.1213 -0.2752  0.6048
   95CHL1    H8 9451   5.130   3.650   7.220 -0.5639  2.6111 -2.2046
   95CHL1   C14 9452   4.954   3.606   7.331 -0.3569  0.6069  0.0891
   95CHL1   H14 9453   4.854   3.566   7.303  0.5757 -2.1095  0.3037
   95CHL1   C15 9454   4.924   3.738   7.405 -0.1393 -0.0860 -0.1320
   95CHL1  H15A 9455   5.009   3.804   7.431 -0.7567 -0.5351  3.4890
   95CHL1  H15B 9456   4.841   3.785   7.348  0.3972 -1.3717 -2.0932
   95CHL1   C16 9457   4.854   3.683   7.534 -0.0786  0.2402  0.3763
   95CHL1  H16A 9458   4.878   3.744   7.624  1.5556 -0.2145  0.2722
   95CHL1  H16B 9459   4.744   3.698   7.524  0.1988  3.0475  0.7639
   95CHL1   C17 9460   4.897   3.534   7.548  0.0511 -0.2851 -0.4667
   95CHL1   H17 9461   4.808   3.479   7.512  0.5758 -1.4626 -0.0034
   95CHL1   C13 9462   5.003   3.510   7.438 -0.1650 -0.2671 -0.3495
   95CHL1   C18 9463   5.132   3.568   7.496  0.4270  0.3290  0.2813
   95CHL1  H18A 9464   5.189   3.494   7.557 -0.0208 -0.2166  0.0466
   95CHL1  H18B 9465   5.207   3.590   7.417 -0.6310  0.9583 -0.5732
   95CHL1  H18C 9466   5.125   3.663   7.553  0.4832  0.2176  0.4743
   95CHL1   C12 9467   5.013   3.368   7.377  1.2027  0.1368 -0.3313
   95CHL1  H12A 9468   5.032   3.290   7.453 -2.8950 -2.1326 -1.3337
   95CHL1  H12B 9469   4.908   3.341   7.352  1.1581  0.4600 -0.5093
   95CHL1   C11 9470   5.093   3.361   7.256 -0.8464  0.2218  0.5000
   95CHL1  H11A 9471   5.200   3.378   7.280 -0.3632 -0.2564 -1.1459
   95CHL1  H11B 9472   5.082   3.260   7.210 -0.5497 -0.1614  1.2480
   95CHL1    C9 9473   5.044   3.460   7.145 -0.7535  1.7798  0.0527
   95CHL1    H9 9474   4.941   3.427   7.122  0.3610  0.2597 -3.5458
   95CHL1   C10 9475   5.121   3.441   7.006 -0.1233 -0.1179 -0.5693
   95CHL1   C19 9476   5.275   3.457   7.020  0.1272  0.5335  1.3105
   95CHL1  H19A 9477   5.299   3.564   7.039  1.3312  0.8155 -1.3799
   95CHL1  H19B 9478   5.313   3.375   7.084 -0.7644 -0.3026  0.7962
   95CHL1  H19C 9479   5.309   3.429   6.918  0.4786 -0.1075  1.6030
   95CHL1    C1 9480   5.078   3.310   6.931  1.0422 -0.6471 -0.0395
   95CHL1   H1A 9481   5.142   3.236   6.983  0.4568 -2.1920 -1.4334
   95CHL1   H1B 9482   4.970   3.292   6.951  0.6754  1.7170  0.5225
   95CHL1    C2 9483   5.109   3.304   6.782  0.2940  0.6911  0.0172
   95CHL1   H2A 9484   5.092   3.202   6.743  1.3543  0.4070  0.2504
   95CHL1   H2B 9485   5.219   3.307   6.767  0.3097  0.2048  0.0202
   95CHL1   C20 9486   4.915   3.494   7.698 -0.9255 -0.4563 -0.3249
   95CHL1   H20 9487   4.994   3.556   7.745 -1.4702  0.0898 -0.1161
   95CHL1   C21 9488   4.953   3.348   7.698 -0.2757 -0.2505  0.2656
   95CHL1  H21A 9489   5.055   3.325   7.659 -0.4634  1.5368 -1.4388
   95CHL1  H21B 9490   4.869   3.299   7.645  0.0825 -0.4700 -0.1012
   95CHL1  H21C 9491   4.956   3.320   7.806  0.3826 -1.2236  0.0117
   95CHL1   C22 9492   4.792   3.517   7.790  0.0818  0.1502  0.4527
   95CHL1  H22A 9493   4.756   3.622   7.781  1.5106  0.5705 -0.7232
   95CHL1  H22B 9494   4.709   3.449   7.762  1.0946 -1.8902  2.1048
   95CHL1   C23 9495   4.807   3.500   7.943 -0.0448  0.1418 -0.0672
   95CHL1  H23A 9496   4.710   3.501   7.997  0.0065 -2.3738  0.1976
   95CHL1  H23B 9497   4.838   3.395   7.962 -2.7150 -0.5407  1.0189
   95CHL1   C24 9498   4.920   3.595   7.999  0.1527  0.0011  0.1542
   95CHL1  H24A 9499   5.024   3.562   7.974  2.0356  2.6753  3.5492
   95CHL1  H24B 9500   4.913   3.699   7.961 -0.9235 -0.5243 -1.1536
   95CHL1   C25 9501   4.918   3.606   8.153 -0.0752  1.2951  0.2263
   95CHL1   H25 9502   4.818   3.650   8.173 -0.3755  0.9389 -0.4738
   95CHL1   C26 9503   4.931   3.476   8.228 -0.1447  0.2792 -0.1344
   95CHL1  H26A 9504   4.925   3.499   8.337  0.3728 -0.4621  0.0576
   95CHL1  H26B 9505   4.844   3.408   8.212 -0.0986 -0.1866  1.3902
   95CHL1  H26C 9506   5.029   3.425   8.224  0.1737  0.7010  1.4587
   95CHL1   C27 9507   5.026   3.708   8.205  0.3011 -0.0457  0.6183
   95CHL1  H27A 9508   5.129   3.682   8.171  1.2094  3.3724  0.3784
   95CHL1  H27B 9509   4.993   3.804   8.159 -1.3838 -0.3461  1.1479
   95CHL1  H27C 9510   5.016   3.710   8.316 -2.3802  1.2272  0.4377
   96CHL1    C3 9511   2.939   3.764   6.666  0.1059  0.5001  0.0679
   96CHL1    H3 9512   2.864   3.683   6.653  0.1217  0.4368  0.3637
   96CHL1    O3 9513   2.972   3.832   6.548  0.1140  0.5285 -0.0160
   96CHL1   H3' 9514   3.045   3.889   6.576 -0.2344  1.2151 -0.4720
   96CHL1    C4 9515   2.912   3.873   6.768  0.3145 -0.4734  0.2524
   96CHL1   H4A 9516   3.006   3.932   6.770 -0.0657  0.2045 -0.9217
   96CHL1   H4B 9517   2.843   3.948   6.725  1.4710  0.8029  0.5267
   96CHL1    C5 9518   2.873   3.837   6.906 -0.4015 -0.2758 -0.8604
   96CHL1    C6 9519   2.761   3.880   6.972  0.1009  0.7557 -0.1720
   96CHL1    H6 9520   2.689   3.941   6.917 -1.1154  0.1403  0.6946
   96CHL1    C7 9521   2.732   3.838   7.111  0.7171  0.7965 -0.1773
   96CHL1   H7A 9522   2.690   3.918   7.175 -1.0584  0.9474 -1.4583
   96CHL1   H7B 9523   2.647   3.766   7.108  2.1980 -1.0555  0.1756
   96CHL1    C8 9524   2.848   3.763   7.183  0.3183 -0.4535  0.9919
   96CHL1    H8 9525   2.919   3.833   7.233  1.6904 -2.4643  1.9873
   96CHL1   C14 9526   2.800   3.682   7.307  0.1699  0.0010  0.5613
   96CHL1   H14 9527   2.761   3.585   7.269  0.5622 -0.3717  1.0836
   96CHL1   C15 9528   2.696   3.747   7.407  0.0273 -0.1943  0.8544
   96CHL1  H15A 9529   2.722   3.855   7.412  0.2570 -0.0282 -2.2050
   96CHL1  H15B 9530   2.593   3.730   7.371  0.1212 -0.7083  0.8155
   96CHL1   C16 9531   2.720   3.660   7.537 -0.3251  0.2666  0.2862
   96CHL1  H16A 9532   2.725   3.725   7.627 -0.8778  2.9060 -1.4777
   96CHL1  H16B 9533   2.638   3.588   7.552  0.5553 -1.0245 -0.8944
   96CHL1   C17 9534   2.837   3.557   7.511 -0.8067  0.2483 -0.1907
   96CHL1   H17 9535   2.792   3.463   7.472 -2.2476  1.0444 -0.5277
   96CHL1   C13 9536   2.912   3.622   7.393 -0.3589 -0.2522  0.5456
   96CHL1   C18 9537   2.997   3.740   7.458 -0.3375 -0.1686  0.3435
   96CHL1  H18A 9538   3.078   3.693   7.518  1.6168  0.9062 -1.3347
   96CHL1  H18B 9539   3.043   3.796   7.375  0.9517 -1.5629  0.0860
   96CHL1  H18C 9540   2.945   3.807   7.531  0.4464 -0.4232  1.1592
   96CHL1   C12 9541   2.997   3.527   7.304  0.3685  0.1712 -0.1839
   96CHL1  H12A 9542   3.088   3.485   7.351  2.6723  5.1463  0.5199
   96CHL1  H12B 9543   2.932   3.439   7.284  0.5766 -0.6089  2.3061
   96CHL1   C11 9544   3.038   3.593   7.167 -0.2213  0.0187 -0.6796
   96CHL1  H11A 9545   3.109   3.673   7.200 -1.8001  0.8872  0.7776
   96CHL1  H11B 9546   3.084   3.520   7.097 -1.6611  2.2039 -4.1572
   96CHL1    C9 9547   2.925   3.671   7.093 -0.5753  0.5382  0.7995
   96CHL1    H9 9548   2.849   3.594   7.068 -0.8503  0.0911  2.8226
   96CHL1   C10 9549   2.979   3.742   6.970 -0.5757  0.4040  0.3207
   96CHL1   C19 9550   3.105   3.823   7.002 -0.7228 -0.4016  0.0462
   96CHL1  H19A 9551   3.144   3.882   6.916  1.7017 -2.2333 -0.2366
   96CHL1  H19B 9552   3.093   3.887   7.092  3.5119 -0.7948  1.1345
   96CHL1  H19C 9553   3.189   3.755   7.028 -2.3172 -1.5626  2.6231
   96CHL1    C1 9554   3.006   3.630   6.859 -0.3876 -0.8365 -0.3267
   96CHL1   H1A 9555   3.082   3.567   6.909 -1.6235 -0.8827  1.5846
   96CHL1   H1B 9556   2.911   3.572   6.849  0.6970 -2.8905  0.6423
   96CHL1    C2 9557   3.053   3.687   6.722  0.0397 -0.0798  0.0352
   96CHL1   H2A 9558   3.077   3.598   6.660 -0.2398 -0.7781  0.9060
   96CHL1   H2B 9559   3.146   3.747   6.729  0.2911 -0.3177 -1.0348
   96CHL1   C20 9560   2.900   3.520   7.642  0.0593 -0.4762 -0.5521
   96CHL1   H20 9561   2.938   3.606   7.701 -0.1795 -1.0048  0.4028
   96CHL1   C21 9562   3.017   3.423   7.624 -0.4476 -0.2086 -0.4674
   96CHL1  H21A 9563   3.105   3.467   7.572 -1.0810  1.5115 -0.1505
   96CHL1  H21B 9564   2.991   3.336   7.560 -1.3873 -0.1076 -0.2365
   96CHL1  H21C 9565   3.061   3.375   7.713  1.6267 -0.0328 -1.3310
   96CHL1   C22 9566   2.795   3.459   7.743 -0.4532  0.6003  0.2834
   96CHL1  H22A 9567   2.858   3.429   7.830  0.3039  1.0398 -0.1059
   96CHL1  H22B 9568   2.715   3.522   7.788 -0.9226 -0.1193  0.4922
   96CHL1   C23 9569   2.725   3.331   7.693 -0.4619  0.7539 -0.7435
   96CHL1  H23A 9570   2.663   3.361   7.607 -2.1366 -0.8371 -0.1539
   96CHL1  H23B 9571   2.798   3.255   7.656 -2.4933 -1.0919 -1.1522
   96CHL1   C24 9572   2.627   3.272   7.794  0.5548 -0.1895  0.2058
   96CHL1  H24A 9573   2.658   3.282   7.900 -0.3750  1.0899  0.3898
   96CHL1  H24B 9574   2.534   3.331   7.775 -0.9274 -2.1666  0.9499
   96CHL1   C25 9575   2.609   3.119   7.771 -0.5399  0.1543 -0.1508
   96CHL1   H25 9576   2.602   3.110   7.661  1.9524 -0.1344 -0.3345
   96CHL1   C26 9577   2.729   3.039   7.818 -0.4526  0.0825 -0.0195
   96CHL1  H26A 9578   2.749   3.062   7.925 -0.3823 -0.6924  0.1441
   96CHL1  H26B 9579   2.723   2.928   7.804  3.7874 -0.2536 -0.4346
   96CHL1  H26C 9580   2.817   3.068   7.757 -0.1908  4.2545  2.0332
   96CHL1   C27 9581   2.485   3.064   7.838  0.5059  0.5670  0.1551
   96CHL1  H27A 9582   2.472   2.960   7.802  1.4729  0.3526  0.3854
   96CHL1  H27B 9583   2.494   3.067   7.949  0.8470  2.5281  0.1117
   96CHL1  H27C 9584   2.399   3.129   7.810 -0.5250  0.8569  3.5895
   97OSM      N 9585   0.862   2.146  10.996  0.4255 -0.7712 -0.3838
   97OSM    C15 9586   0.914   2.117  10.863  0.3368  0.6795  0.6492
   97OSM   H15A 9587   0.860   2.173  10.789  0.7326  0.0143 -0.1600
   97OSM   H15B 9588   0.895   2.012  10.844  1.5571 -0.1282  3.3295
   97OSM   H15C 9589   1.019   2.143  10.863  0.5406 -0.1155  0.3765
   97OSM    C14 9590   0.938   2.269  11.044 -0.2824  0.3997 -0.6834
   97OSM   H14A 9591   0.894   2.318  11.129 -1.5178  1.5227 -1.8981
   97OSM   H14B 9592   0.944   2.350  10.972  0.1411 -0.2844 -1.4299
   97OSM   H14C 9593   1.042   2.249  11.063 -0.7014 -0.8515  0.3649
   97OSM    C13 9594   0.715   2.177  10.990  0.4194 -0.2105 -0.2423
   97OSM   H13A 9595   0.673   2.114  10.914 -0.6413  0.4676 -0.2391
   97OSM   H13B 9596   0.711   2.275  10.945  0.0512 -2.0040 -4.5605
   97OSM   H13C 9597   0.666   2.167  11.086 -0.1752 -0.6577 -0.5897
   97OSM    C12 9598   0.892   2.033  11.094  0.5125 -1.2306 -0.4214
   97OSM   H12A 9599   0.852   2.061  11.191  0.3725  0.0162 -0.8261
   97OSM   H12B 9600   0.999   2.029  11.098  0.6592  1.1246 -0.4377
   97OSM    C11 9601   0.841   1.894  11.043 -0.0848  0.2693 -1.7072
   97OSM   H11A 9602   0.746   1.911  10.988 -0.2781 -2.5257 -2.3778
   97OSM   H11B 9603   0.816   1.830  11.131 -1.2249  1.6287 -0.9914
   97OSM      P 9604   1.068   1.762  10.998  0.5039  0.1434  0.0839
   97OSM    O13 9605   1.145   1.865  11.073  0.5928 -0.1462  0.2340
   97OSM    O14 9606   1.039   1.637  11.071  0.2217 -0.3937 -0.1815
   97OSM    O11 9607   1.137   1.736  10.857 -0.6191  0.3455  0.7182
   97OSM    O12 9608   0.921   1.818  10.958 -0.0470  0.8507 -0.3979
   97OSM    C1S 9609   1.087   1.797  10.743 -0.0893  0.3528  0.6729
   97OSM    H1S 9610   1.098   1.907  10.755 -0.6557  0.6011 -0.8773
   97OSM    H1T 9611   0.982   1.766  10.723  0.8315 -1.4654 -1.7564
   97OSM     NF 9612   1.139   1.846  10.512 -0.2359  0.7150 -0.5561
   97OSM    HNF 9613   1.073   1.814  10.445 -0.6247  0.4564 -0.0562
   97OSM    C2S 9614   1.172   1.757  10.625  0.5462  0.2078  0.3506
   97OSM    H2S 9615   1.277   1.768  10.659  0.2645 -0.7794  1.6000
   97OSM    C3S 9616   1.161   1.603  10.588 -0.3574 -0.8931 -0.7515
   97OSM    H3S 9617   1.058   1.572  10.561  0.1202 -1.9386 -1.4245
   97OSM     O3 9618   1.198   1.511  10.685 -0.5103  0.1506 -0.0667
   97OSM    HO3 9619   1.182   1.559  10.767  0.0539 -2.1202  1.4658
   97OSM    C4S 9620   1.241   1.587  10.458  0.3688  0.1215 -0.0292
   97OSM    H4S 9621   1.190   1.639  10.376  1.1500  0.2717 -0.4318
   97OSM    C5S 9622   1.360   1.526  10.441 -0.0246 -0.6096 -0.0876
   97OSM    H5S 9623   1.403   1.486  10.534 -1.6299  0.0226  0.9791
   97OSM    C6S 9624   1.441   1.512  10.318 -0.4501 -0.3578  0.8770
   97OSM    H6S 9625   1.495   1.415  10.316  0.4288  0.1162  0.9225
   97OSM    H6T 9626   1.534   1.569  10.338 -0.3512 -0.2683  0.1927
   97OSM    C7S 9627   1.388   1.543  10.177  0.1055  0.1295  0.2876
   97OSM    H7S 9628   1.350   1.648  10.178  2.2557  0.9652  1.5770
   97OSM    H7T 9629   1.297   1.482  10.161 -0.1077  0.8648 -1.5050
   97OSM    C8S 9630   1.495   1.516  10.070  0.0124 -0.3562  0.1013
   97OSM    H8S 9631   1.531   1.411  10.070  2.3473  0.3407 -1.2411
   97OSM    H8T 9632   1.583   1.581  10.091  1.3423 -0.7190 -3.5481
   97OSM    C9S 9633   1.440   1.562   9.928 -0.2746  0.4303 -0.2527
   97OSM    H9S 9634   1.391   1.661   9.924 -1.1699 -0.0271 -3.2786
   97OSM    H9T 9635   1.354   1.497   9.900 -0.4999 -0.2383  1.8527
   97OSM   C10S 9636   1.539   1.533   9.816  0.4015 -0.0944 -1.1782
   97OSM   H10S 9637   1.602   1.448   9.851 -0.1720  0.9242  2.8299
   97OSM   H10T 9638   1.615   1.614   9.820  0.4138 -0.1552  1.3872
   97OSM   C11S 9639   1.468   1.514   9.685 -0.3101 -0.0780 -0.2468
   97OSM   H11S 9640   1.390   1.593   9.691  1.4244  1.5887  1.2930
   97OSM   H11T 9641   1.425   1.411   9.690 -1.4819  0.2875 -2.0703
   97OSM   C12S 9642   1.544   1.549   9.560 -0.1914  0.6636  0.1853
   97OSM   H12S 9643   1.630   1.483   9.535 -1.3037 -0.3284 -1.1966
   97OSM   H12T 9644   1.578   1.655   9.565 -0.7310  0.7810  2.4606
   97OSM   C13S 9645   1.454   1.547   9.432  0.2543 -0.2722 -0.1038
   97OSM   H13S 9646   1.367   1.615   9.445 -1.0444 -1.4420 -2.1768
   97OSM   H13T 9647   1.409   1.446   9.423  0.5199 -0.3394 -0.7327
   97OSM   C14S 9648   1.539   1.579   9.310 -0.3049  0.2609 -0.1886
   97OSM   H14S 9649   1.629   1.515   9.299  0.7183  1.8826 -1.9516
   97OSM   H14T 9650   1.579   1.682   9.320  3.1424 -1.0515  1.2134
   97OSM   C15S 9651   1.447   1.565   9.180 -0.1989  0.2453 -0.3857
   97OSM   H15S 9652   1.345   1.599   9.209 -0.0992 -0.3810  0.7166
   97OSM   H15T 9653   1.448   1.455   9.171 -2.2131  0.0049  1.5058
   97OSM   C16S 9654   1.504   1.647   9.063 -0.2706  0.6139 -0.1914
   97OSM   H16S 9655   1.615   1.655   9.063 -0.3005  1.4791 -1.4129
   97OSM   H16T 9656   1.481   1.755   9.077 -0.8868  0.4192  0.3302
   97OSM   C17S 9657   1.462   1.610   8.920  0.0107  0.3471 -0.5955
   97OSM   H17S 9658   1.355   1.581   8.924 -0.0312  0.4562 -0.9237
   97OSM   H17T 9659   1.503   1.510   8.896 -1.3275 -0.2103 -0.6142
   97OSM   C18S 9660   1.496   1.708   8.813 -0.6722  0.1631  0.7398
   97OSM   H18S 9661   1.434   1.800   8.816 -0.7490  0.1259  0.2892
   97OSM   H18T 9662   1.485   1.666   8.711 -1.1325 -0.8240  1.1785
   97OSM   H18U 9663   1.602   1.742   8.815 -0.7349  0.8601 -2.6195
   97OSM    C1F 9664   1.174   1.972  10.513 -0.1579  0.2480 -0.4890
   97OSM     OF 9665   1.258   2.006  10.595 -0.0287  0.2280  0.0942
   97OSM    C2F 9666   1.100   2.079  10.431 -0.6606 -0.6445 -0.0627
   97OSM    H2F 9667   1.040   2.146  10.497 -2.2734 -2.7016  0.6395
   97OSM    H2G 9668   1.016   2.024  10.383 -1.2567  0.6294 -0.5471
   97OSM    C3F 9669   1.194   2.163  10.337 -0.0564  0.3037 -0.0204
   97OSM    H3F 9670   1.287   2.103  10.326  0.8202  1.6686 -0.2522
   97OSM    H3G 9671   1.221   2.261  10.380 -0.4819  0.1280  0.6603
   97OSM    C4F 9672   1.145   2.180  10.189 -0.2369  0.0639 -0.7078
   97OSM    H4F 9673   1.038   2.208  10.197 -0.3943 -0.7512  0.1489
   97OSM    H4G 9674   1.155   2.082  10.138  1.5450  0.2181 -0.7073
   97OSM    C5F 9675   1.220   2.289  10.115 -0.6463 -0.2462  0.0719
   97OSM    H5F 9676   1.319   2.243  10.093 -0.2888  0.7912 -0.5931
   97OSM    H5G 9677   1.238   2.371  10.188 -0.7046 -1.1819  1.1740
   97OSM    C6F 9678   1.153   2.342   9.991  0.3332 -0.6305 -0.0562
   97OSM    H6F 9679   1.212   2.419   9.937 -0.2531 -0.0797  0.0906
   97OSM    H6G 9680   1.063   2.395  10.026 -0.2565  0.9188 -3.5345
   97OSM    C7F 9681   1.110   2.228   9.898  0.6410 -0.2746  0.5792
   97OSM    H7F 9682   1.035   2.158   9.940 -0.3873  0.5042  0.0900
   97OSM    H7G 9683   1.205   2.178   9.867  0.9382  0.2075  0.7015
   97OSM    C8F 9684   1.048   2.270   9.763 -0.1446 -0.0344 -0.4419
   97OSM    H8F 9685   1.036   2.177   9.704  0.8134 -1.2350  1.1747
   97OSM    H8G 9686   1.127   2.327   9.709 -0.5804  0.2610 -0.7793
   97OSM    C9F 9687   0.923   2.354   9.787 -0.9296  0.2459 -0.6498
   97OSM    H9F 9688   0.936   2.448   9.843 -0.4233 -0.1656 -0.0634
   97OSM   C10F 9689   0.804   2.316   9.739  0.3182 -0.4172 -0.0919
   97OSM   H10F 9690   0.717   2.383   9.747 -1.7374 -2.7506 -1.1807
   97OSM   C11F 9691   0.776   2.194   9.644  0.0301 -0.0687 -0.3390
   97OSM   H11F 9692   0.705   2.126   9.694  0.9841  0.0571  1.2703
   97OSM   H11G 9693   0.864   2.131   9.619 -0.5095 -1.3673  0.9034
   97OSM   C12F 9694   0.707   2.212   9.507  0.3039  0.1987 -0.2893
   97OSM   H12F 9695   0.603   2.249   9.518  0.3975  0.6709 -0.9531
   97OSM   H12G 9696   0.693   2.118   9.451 -1.1285  0.9030 -1.1478
   97OSM   C13F 9697   0.794   2.300   9.418  0.2372  0.1231  0.4177
   97OSM   H13F 9698   0.881   2.251   9.370  1.0754 -1.0874  2.9740
   97OSM   H13G 9699   0.837   2.365   9.498  4.4303 -1.5445 -0.2315
   97OSM   C14F 9700   0.722   2.395   9.320  0.2916  0.0903  0.2430
   97OSM   H14F 9701   0.790   2.478   9.291  0.2589 -0.0038 -0.1087
   97OSM   H14G 9702   0.632   2.437   9.371  0.9524  0.9397  0.7274
   97OSM   C15F 9703   0.670   2.315   9.193  0.3202 -0.2632 -0.3320
   97OSM   H15F 9704   0.627   2.388   9.121 -0.4286 -1.2193 -0.8748
   97OSM   H15G 9705   0.592   2.244   9.227  2.1218 -2.1740  0.0141
   97OSM   C16F 9706   0.774   2.216   9.125 -0.3414  0.5526 -0.1713
   97OSM   H16F 9707   0.814   2.128   9.179  1.9536  1.4276 -0.3518
   97OSM   H16G 9708   0.869   2.271   9.106  3.3264 -4.1036  2.5602
   97OSM   C17F 9709   0.738   2.162   8.987  0.1994 -0.8131 -1.0738
   97OSM   H17F 9710   0.827   2.103   8.960  0.1907 -1.1647 -0.3439
   97OSM   H17G 9711   0.721   2.250   8.921 -1.1748 -1.3524 -1.4847
   97OSM   C18F 9712   0.612   2.072   8.988 -0.0873  0.4534  0.5487
   97OSM   H18F 9713   0.624   1.992   8.912 -2.5237 -1.5331  2.1165
   97OSM   H18G 9714   0.517   2.130   8.976 -1.3395 -1.4273  0.9946
   97OSM   H18H 9715   0.607   2.009   9.079 -2.2688 -0.8893 -0.4165
   98OSM      N 9716   1.505   1.804  10.943  0.1109  0.5893 -0.1442
   98OSM    C15 9717   1.448   1.664  10.950  0.5653  1.3320 -0.1579
   98OSM   H15A 9718   1.340   1.660  10.948  0.5392  1.5152  0.6433
   98OSM   H15B 9719   1.488   1.607  11.033 -1.5894 -1.3479 -0.8099
   98OSM   H15C 9720   1.492   1.604  10.871 -0.0894  0.9129 -0.2081
   98OSM    C14 9721   1.460   1.878  11.069  0.9474 -0.3922 -0.7174
   98OSM   H14A 9722   1.493   1.980  11.059 -0.1584  0.1508  0.8282
   98OSM   H14B 9723   1.494   1.839  11.163  0.1585 -2.7593 -1.3416
   98OSM   H14C 9724   1.352   1.884  11.066  0.8076  0.6385  2.7319
   98OSM    C13 9725   1.651   1.791  10.956  0.2214 -0.1286 -0.3615
   98OSM   H13A 9726   1.696   1.749  10.868  2.3329 -0.3549  0.7676
   98OSM   H13B 9727   1.671   1.728  11.042 -0.8487 -1.5506 -1.1115
   98OSM   H13C 9728   1.692   1.887  10.984  1.6639 -0.1141 -2.3407
   98OSM    C12 9729   1.456   1.879  10.823  0.5752  0.9208 -0.6567
   98OSM   H12A 9730   1.349   1.883  10.828  0.5675  1.0045  3.9969
   98OSM   H12B 9731   1.480   1.817  10.738 -0.1251 -0.1234 -0.1136
   98OSM    C11 9732   1.525   2.014  10.793  0.0821 -1.2425 -0.4305
   98OSM   H11A 9733   1.479   2.061  10.703 -0.3775 -1.4547 -0.3132
   98OSM   H11B 9734   1.630   1.986  10.771  0.8957  0.7810  0.5913
   98OSM      P 9735   1.602   2.214  10.933  0.0013  0.0756 -0.2056
   98OSM    O13 9736   1.558   2.275  11.067 -0.3773 -0.9370 -1.0765
   98OSM    O14 9737   1.737   2.153  10.935  0.1693 -0.0356 -0.2347
   98OSM    O11 9738   1.605   2.313  10.817 -0.1441 -0.6553  0.2509
   98OSM    O12 9739   1.500   2.106  10.900 -0.6431  0.3487  0.3658
   98OSM    C1S 9740   1.494   2.371  10.745 -0.2633  0.4339  0.1636
   98OSM    H1S 9741   1.406   2.385  10.811 -1.4368  0.6956 -1.3966
   98OSM    H1T 9742   1.456   2.305  10.664 -2.0429  0.0749  1.2301
   98OSM     NF 9743   1.417   2.584  10.635  0.5965  0.0134 -0.7273
   98OSM    HNF 9744   1.413   2.612  10.540 -0.7876 -3.0988 -1.7260
   98OSM    C2S 9745   1.538   2.509  10.683 -0.0778 -0.4665 -0.2678
   98OSM    H2S 9746   1.587   2.567  10.764  0.2512  0.6624 -1.2482
   98OSM    C3S 9747   1.629   2.480  10.571 -0.8788  0.6775  0.1158
   98OSM    H3S 9748   1.562   2.426  10.501 -2.3399  1.9664  0.4470
   98OSM     O3 9749   1.742   2.408  10.604 -0.0382  0.4289  0.2000
   98OSM    HO3 9750   1.719   2.362  10.685  0.9171 -2.2531 -0.8990
   98OSM    C4S 9751   1.686   2.610  10.509 -0.2719 -0.2027 -0.1169
   98OSM    H4S 9752   1.729   2.678  10.583  0.3484 -1.4536  0.7080
   98OSM    C5S 9753   1.663   2.650  10.382 -0.1802 -0.4371  0.6178
   98OSM    H5S 9754   1.606   2.584  10.316  2.5984 -1.4125 -0.9704
   98OSM    C6S 9755   1.707   2.781  10.319 -0.1827 -0.4583  0.0913
   98OSM    H6S 9756   1.740   2.847  10.402 -0.5856 -0.6413  0.4037
   98OSM    H6T 9757   1.619   2.835  10.278  0.6930  0.0615 -1.1800
   98OSM    C7S 9758   1.811   2.752  10.212  0.2676  0.2197  0.5538
   98OSM    H7S 9759   1.894   2.698  10.261  1.2171  0.0513 -1.1395
   98OSM    H7T 9760   1.861   2.848  10.185 -2.7592  1.7195 -0.1188
   98OSM    C8S 9761   1.759   2.681  10.091 -0.3132 -0.3845  0.7226
   98OSM    H8S 9762   1.681   2.752  10.055 -0.6198 -0.8582  0.4445
   98OSM    H8T 9763   1.708   2.589  10.126 -0.1595 -0.6065  0.3643
   98OSM    C9S 9764   1.866   2.640   9.990 -0.3014  0.1773 -1.3525
   98OSM    H9S 9765   1.927   2.557  10.031  2.5098  2.4978 -0.5171
   98OSM    H9T 9766   1.933   2.728   9.979 -0.6694  0.8364  1.0270
   98OSM   C10S 9767   1.802   2.611   9.851  0.1589 -0.1756 -0.7821
   98OSM   H10S 9768   1.767   2.711   9.817  0.0440  0.0491 -0.0194
   98OSM   H10T 9769   1.711   2.550   9.869  0.2302 -0.1454 -0.3031
   98OSM   C11S 9770   1.907   2.556   9.753  0.2380  0.0186 -0.0778
   98OSM   H11S 9771   1.930   2.450   9.779  1.1279 -0.9491 -4.1279
   98OSM   H11T 9772   2.004   2.609   9.766 -0.0453 -0.2369  4.9709
   98OSM   C12S 9773   1.845   2.556   9.617 -0.3961 -0.5125  0.6587
   98OSM   H12S 9774   1.738   2.528   9.620 -0.0904 -1.8727 -0.1605
   98OSM   H12T 9775   1.907   2.482   9.562 -0.7204 -2.3992  2.7126
   98OSM   C13S 9776   1.859   2.698   9.547  0.2228  0.0108 -0.3877
   98OSM   H13S 9777   1.963   2.721   9.517  0.3261 -0.4572 -0.3918
   98OSM   H13T 9778   1.837   2.775   9.624  1.7231  0.0093  0.0617
   98OSM   C14S 9779   1.761   2.716   9.428  0.8171 -0.7947  0.1569
   98OSM   H14S 9780   1.757   2.825   9.411  0.2545 -0.5904  1.4659
   98OSM   H14T 9781   1.657   2.694   9.461  0.7211  0.7411  0.9697
   98OSM   C15S 9782   1.794   2.632   9.302 -0.0009 -0.4831  0.0822
   98OSM   H15S 9783   1.793   2.525   9.332 -1.6053 -0.6647 -0.4916
   98OSM   H15T 9784   1.897   2.669   9.285 -0.7006  1.1382 -0.8405
   98OSM   C16S 9785   1.699   2.656   9.185  0.5745  0.2645  0.1878
   98OSM   H16S 9786   1.731   2.605   9.092 -1.0967  0.4900 -0.5382
   98OSM   H16T 9787   1.691   2.764   9.158  1.9291  0.3139 -0.1147
   98OSM   C17S 9788   1.560   2.605   9.215  0.2834 -0.0857 -0.3825
   98OSM   H17S 9789   1.516   2.642   9.310  0.7723 -1.1482  0.2744
   98OSM   H17T 9790   1.581   2.496   9.224 -0.6846 -0.1688  1.5591
   98OSM   C18S 9791   1.459   2.643   9.103  0.5786  0.3841 -0.1045
   98OSM   H18S 9792   1.489   2.611   9.002 -2.5198  0.2169 -1.0853
   98OSM   H18T 9793   1.420   2.747   9.110  1.4004  0.6258  1.4263
   98OSM   H18U 9794   1.369   2.582   9.128  0.8203  0.0944  0.0680
   98OSM    C1F 9795   1.324   2.632  10.721 -0.7226  0.1228 -0.2658
   98OSM     OF 9796   1.345   2.647  10.845 -0.4127 -0.3380  0.1908
   98OSM    C2F 9797   1.202   2.681  10.652 -0.6724  0.7909  0.0233
   98OSM    H2F 9798   1.195   2.635  10.551 -0.7919  1.9121 -0.5055
   98OSM    H2G 9799   1.214   2.788  10.621  2.0970 -0.2270 -3.0493
   98OSM    C3F 9800   1.077   2.663  10.748 -0.2288  0.4227 -0.1191
   98OSM    H3F 9801   1.003   2.727  10.695 -0.0342  1.1421  0.4572
   98OSM    H3G 9802   1.090   2.701  10.852  0.6501 -2.7689  1.0647
   98OSM    C4F 9803   1.022   2.523  10.761  0.3124  0.2377 -0.1584
   98OSM    H4F 9804   0.920   2.528  10.805 -0.1382 -0.1256 -1.1426
   98OSM    H4G 9805   1.075   2.466  10.841  0.1442 -2.7680 -2.0623
   98OSM    C5F 9806   1.026   2.442  10.632 -0.0829 -0.4723  0.4992
   98OSM    H5F 9807   1.000   2.337  10.658  1.1849 -1.2458 -1.1103
   98OSM    H5G 9808   1.128   2.437  10.587 -0.3048 -0.6122 -0.0009
   98OSM    C6F 9809   0.936   2.494  10.520 -0.7257  0.5655 -0.5414
   98OSM    H6F 9810   0.939   2.604  10.505  0.9860  0.4940 -0.9266
   98OSM    H6G 9811   0.834   2.471  10.558 -0.1201  0.0276  0.8519
   98OSM    C7F 9812   0.971   2.439  10.385 -0.2303 -0.1746  0.4725
   98OSM    H7F 9813   0.980   2.329  10.398  1.1243 -0.0275  0.9623
   98OSM    H7G 9814   1.074   2.473  10.360  0.0547 -0.9722  0.5081
   98OSM    C8F 9815   0.874   2.472  10.265  0.1501 -0.1838 -0.8931
   98OSM    H8F 9816   0.923   2.421  10.179 -0.3437 -1.9456 -0.1683
   98OSM    H8G 9817   0.870   2.582  10.249 -1.0281 -0.4723 -3.0041
   98OSM    C9F 9818   0.735   2.421  10.297 -0.8879  0.1175 -0.2058
   98OSM    H9F 9819   0.695   2.479  10.381  0.4886  1.7563 -0.6084
   98OSM   C10F 9820   0.669   2.324  10.238 -0.1885  0.2506 -0.7659
   98OSM   H10F 9821   0.565   2.302  10.266  0.3165 -0.4656  0.6273
   98OSM   C11F 9822   0.730   2.231  10.132  0.1713 -0.1217 -0.3029
   98OSM   H11F 9823   0.808   2.169  10.181 -0.4242 -1.4169 -0.9475
   98OSM   H11G 9824   0.772   2.290  10.047 -0.0674  2.5034  1.2855
   98OSM   C12F 9825   0.637   2.127  10.057  0.2948 -0.8288  0.1277
   98OSM   H12F 9826   0.595   2.066  10.140 -0.1107  2.6138  2.6650
   98OSM   H12G 9827   0.707   2.070   9.992  0.6313  2.5544 -2.7710
   98OSM   C13F 9828   0.530   2.178   9.959  0.3959 -0.5643  0.4100
   98OSM   H13F 9829   0.587   2.240   9.885  1.0522  0.5317  1.7763
   98OSM   H13G 9830   0.453   2.243  10.007  1.3962  1.9857 -1.1825
   98OSM   C14F 9831   0.468   2.060   9.879  0.4399 -0.0299  0.1865
   98OSM   H14F 9832   0.396   2.004   9.942 -2.8138  1.1617 -2.1935
   98OSM   H14G 9833   0.559   1.998   9.874  0.8564  0.1512  3.2226
   98OSM   C15F 9834   0.407   2.097   9.749  0.2753  0.6841 -0.2094
   98OSM   H15F 9835   0.484   2.131   9.677 -1.7407  0.0529 -2.8549
   98OSM   H15G 9836   0.337   2.182   9.762  1.6533  1.6730  1.0739
   98OSM   C16F 9837   0.333   1.980   9.684  0.0896  0.6429  0.6947
   98OSM   H16F 9838   0.255   1.944   9.754 -1.5104 -0.4872 -1.5602
   98OSM   H16G 9839   0.400   1.892   9.676 -1.6775 -0.7964  1.0565
   98OSM   C17F 9840   0.268   2.012   9.550 -0.1461  1.2028  0.2187
   98OSM   H17F 9841   0.190   2.087   9.576  0.6531  1.9758  0.4563
   98OSM   H17G 9842   0.219   1.922   9.506 -1.5342  1.2304  1.6069
   98OSM   C18F 9843   0.361   2.072   9.437  0.3415 -0.0386 -0.4625
   98OSM   H18F 9844   0.291   2.091   9.352 -0.0165  3.6010  0.4418
   98OSM   H18G 9845   0.440   2.001   9.407  1.1192  0.5605  0.1065
   98OSM   H18H 9846   0.414   2.162   9.475 -0.6569 -0.5653  2.4098
   99OSM      N 9847   1.711   4.805  11.274  0.2370 -0.3406 -0.6285
   99OSM    C15 9848   1.679   4.755  11.418 -0.0061  0.5018 -0.3644
   99OSM   H15A 9849   1.704   4.651  11.430 -0.3607  0.4394 -0.1547
   99OSM   H15B 9850   1.573   4.776  11.426  0.0151  0.8472 -0.9217
   99OSM   H15C 9851   1.737   4.801  11.496  0.0913  0.9752 -0.7063
   99OSM    C14 9852   1.688   4.957  11.297 -0.8897 -0.0665  0.1434
   99OSM   H14A 9853   1.592   5.003  11.311 -1.6352 -1.5009 -0.0560
   99OSM   H14B 9854   1.738   5.011  11.217 -1.1776  0.2228  0.1567
   99OSM   H14C 9855   1.736   4.983  11.390  1.9974  1.1678 -1.5323
   99OSM    C13 9856   1.857   4.786  11.249 -0.0564 -0.0541  0.3888
   99OSM   H13A 9857   1.918   4.833  11.325  1.0629 -1.0915  0.1535
   99OSM   H13B 9858   1.880   4.831  11.153 -0.6718 -2.9221 -1.2256
   99OSM   H13C 9859   1.885   4.683  11.243  3.2628  0.6495  1.8311
   99OSM    C12 9860   1.615   4.746  11.174  0.0717  0.6898 -0.2743
   99OSM   H12A 9861   1.519   4.785  11.204 -0.1355  1.1179 -1.4343
   99OSM   H12B 9862   1.619   4.639  11.184  1.0995  0.8363  1.3250
   99OSM    C11 9863   1.640   4.797  11.027  0.0889 -0.0226 -0.0926
   99OSM   H11A 9864   1.643   4.908  11.023 -1.2188  0.0286 -0.1489
   99OSM   H11B 9865   1.552   4.760  10.970  1.3648  0.4541 -2.5301
   99OSM      P 9866   1.782   4.599  10.932 -0.3924  0.0589 -0.4073
   99OSM    O13 9867   1.931   4.572  10.920  0.1568 -0.2520 -0.5769
   99OSM    O14 9868   1.702   4.514  11.023  0.2837 -0.0449 -0.2105
   99OSM    O11 9869   1.722   4.587  10.788  0.2644 -0.5675 -0.0426
   99OSM    O12 9870   1.761   4.745  10.966 -0.1751  0.1275  0.2623
   99OSM    C1S 9871   1.782   4.662  10.677  0.7626  0.2437 -0.1059
   99OSM    H1S 9872   1.862   4.594  10.641  0.2445 -0.8963  0.8292
   99OSM    H1T 9873   1.820   4.762  10.706 -1.1326  0.6103  1.3168
   99OSM     NF 9874   1.728   4.742  10.441  0.4982  0.5140  0.3979
   99OSM    HNF 9875   1.716   4.837  10.416 -1.2393  0.7830  2.0117
   99OSM    C2S 9876   1.673   4.686  10.566 -0.6352  0.2596 -0.4064
   99OSM    H2S 9877   1.634   4.583  10.551  0.4996 -0.5167  1.5578
   99OSM    C3S 9878   1.558   4.773  10.623 -0.2027  0.0339 -0.2419
   99OSM    H3S 9879   1.594   4.875  10.646  1.6721 -0.9105  1.3071
   99OSM     O3 9880   1.486   4.717  10.734 -0.3714  0.4326 -0.3727
   99OSM    HO3 9881   1.544   4.641  10.748  0.8161  1.5693  1.2676
   99OSM    C4S 9882   1.462   4.786  10.509  0.4897 -0.0675 -0.3662
   99OSM    H4S 9883   1.475   4.886  10.463  1.3693  1.0996  2.2040
   99OSM    C5S 9884   1.372   4.695  10.463 -0.1863  0.0119  0.6055
   99OSM    H5S 9885   1.351   4.606  10.524 -0.3752  0.4674  1.2064
   99OSM    C6S 9886   1.300   4.713  10.324  0.4880 -1.0180  0.1665
   99OSM    H6S 9887   1.205   4.772  10.324  1.2832  0.4163 -2.7880
   99OSM    H6T 9888   1.279   4.615  10.276  0.9666 -0.5353 -1.0492
   99OSM    C7S 9889   1.404   4.781  10.225  0.1571 -0.0106  0.4191
   99OSM    H7S 9890   1.506   4.736  10.232  0.9247  1.8569  2.4048
   99OSM    H7T 9891   1.421   4.882  10.268  1.2136  0.4009 -0.9053
   99OSM    C8S 9892   1.333   4.786  10.092  0.0776  0.1658 -0.3120
   99OSM    H8S 9893   1.223   4.802  10.100 -0.5010 -3.6365  3.3157
   99OSM    H8T 9894   1.327   4.682  10.054  3.1217 -0.6935  1.1879
   99OSM    C9S 9895   1.406   4.881  10.000 -0.5915 -0.4437  0.4753
   99OSM    H9S 9896   1.508   4.843   9.975 -0.6321 -0.5951  0.5419
   99OSM    H9T 9897   1.425   4.976  10.054  2.1673 -0.1561 -0.7961
   99OSM   C10S 9898   1.318   4.902   9.873 -0.5691 -0.1021  0.2231
   99OSM   H10S 9899   1.239   4.976   9.896  2.5614  2.9998  1.9148
   99OSM   H10T 9900   1.278   4.805   9.838 -0.6982  0.5134 -1.4026
   99OSM   C11S 9901   1.396   4.974   9.767 -0.7851 -0.5108 -0.6477
   99OSM   H11S 9902   1.493   4.920   9.759 -0.9280 -1.6987  3.2882
   99OSM   H11T 9903   1.416   5.077   9.801 -0.5529 -0.9753  0.6921
   99OSM   C12S 9904   1.323   4.974   9.633 -1.0893  0.3727  0.1057
   99OSM   H12S 9905   1.332   4.869   9.597  0.2571  0.4560  0.1326
   99OSM   H12T 9906   1.214   4.990   9.646 -1.6646 -0.2203 -3.1236
   99OSM   C13S 9907   1.380   5.075   9.534  0.8679 -0.0368 -0.0253
   99OSM   H13S 9908   1.490   5.066   9.541  1.0690  0.9849 -1.4774
   99OSM   H13T 9909   1.351   5.177   9.569 -1.7680 -0.0494 -1.8851
   99OSM   C14S 9910   1.315   5.051   9.397  0.1127 -0.3436  0.0601
   99OSM   H14S 9911   1.206   5.054   9.419  0.3397 -1.2668  1.4257
   99OSM   H14T 9912   1.349   4.956   9.349 -0.1796 -0.0376 -0.7658
   99OSM   C15S 9913   1.351   5.171   9.316  0.4555  0.8455  1.0582
   99OSM   H15S 9914   1.462   5.180   9.325  0.9367 -2.0892 -0.5653
   99OSM   H15T 9915   1.317   5.258   9.376  2.8343  1.7730  1.1637
   99OSM   C16S 9916   1.299   5.167   9.171  0.2468  0.5315  0.0509
   99OSM   H16S 9917   1.319   5.269   9.131 -1.7967  1.2070  0.6623
   99OSM   H16T 9918   1.189   5.155   9.168  0.4344 -1.4937 -2.2944
   99OSM   C17S 9919   1.365   5.064   9.081 -0.2769  0.0489 -0.6172
   99OSM   H17S 9920   1.328   4.963   9.110 -0.2821  0.6130  1.5315
   99OSM   H17T 9921   1.473   5.067   9.105 -0.6373  0.5868  1.0869
   99OSM   C18S 9922   1.342   5.080   8.931 -0.6646  0.0820 -0.8447
   99OSM   H18S 9923   1.402   5.170   8.907 -1.5437  1.3795  1.4513
   99OSM   H18T 9924   1.232   5.091   8.920 -1.5791  0.2396  5.0449
   99OSM   H18U 9925   1.368   4.987   8.876 -1.1583  0.0502 -1.0266
   99OSM    C1F 9926   1.801   4.674  10.357 -0.0531 -0.4848 -0.1133
   99OSM     OF 9927   1.820   4.556  10.389  1.0138 -0.6371 -0.0105
   99OSM    C2F 9928   1.863   4.758  10.247 -0.4034  0.3095 -0.2383
   99OSM    H2F 9929   1.951   4.810  10.291 -1.6539  2.5839 -0.2618
   99OSM    H2G 9930   1.795   4.835  10.205 -0.6028  0.1262 -0.2526
   99OSM    C3F 9931   1.910   4.670  10.131  0.5460 -0.0256  0.4774
   99OSM    H3F 9932   1.981   4.723  10.064  1.4057 -2.3920 -0.6149
   99OSM    H3G 9933   1.952   4.573  10.165  0.3988 -0.7855 -1.3767
   99OSM    C4F 9934   1.794   4.625  10.040 -0.0507 -0.6639 -0.5586
   99OSM    H4F 9935   1.701   4.652  10.096  1.0371 -1.0969  1.5838
   99OSM    H4G 9936   1.787   4.515  10.024  0.6753 -0.4051 -2.9790
   99OSM    C5F 9937   1.784   4.711   9.908  0.3731  0.0879  0.7264
   99OSM    H5F 9938   1.890   4.718   9.873 -0.0702  2.5838 -0.3894
   99OSM    H5G 9939   1.769   4.817   9.939  1.0034 -0.2631  2.3407
   99OSM    C6F 9940   1.700   4.672   9.788 -0.7298  0.2310 -0.0882
   99OSM    H6F 9941   1.594   4.688   9.820 -0.5638  0.0318  0.5669
   99OSM    H6G 9942   1.706   4.564   9.766 -1.5628  0.9016 -4.4050
   99OSM    C7F 9943   1.733   4.753   9.668 -0.1622  0.4661  0.3805
   99OSM    H7F 9944   1.838   4.753   9.632 -0.5775  0.4369 -0.8823
   99OSM    H7G 9945   1.727   4.862   9.690  2.9074  0.9833 -0.8446
   99OSM    C8F 9946   1.638   4.729   9.549  0.4105  0.2778 -0.2654
   99OSM    H8F 9947   1.536   4.725   9.592  0.0854  0.6334 -1.0012
   99OSM    H8G 9948   1.650   4.625   9.511  0.1135  0.1371  0.0170
   99OSM    C9F 9949   1.646   4.827   9.440  0.2515 -0.3103  0.1905
   99OSM    H9F 9950   1.637   4.932   9.470 -1.3459 -0.5870  0.8296
   99OSM   C10F 9951   1.685   4.809   9.313  0.5317 -0.2863  0.2605
   99OSM   H10F 9952   1.700   4.889   9.239 -0.8692 -0.7871 -0.5946
   99OSM   C11F 9953   1.716   4.673   9.254 -0.2781 -0.1106 -0.2128
   99OSM   H11F 9954   1.633   4.601   9.265 -0.6221 -0.0369 -1.9577
   99OSM   H11G 9955   1.802   4.621   9.303  0.3589 -0.3362 -1.5153
   99OSM   C12F 9956   1.736   4.686   9.101  0.3017 -0.0633  0.2700
   99OSM   H12F 9957   1.761   4.591   9.048 -0.2449  1.6576 -3.3843
   99OSM   H12G 9958   1.822   4.754   9.084  2.1579 -2.0394  1.2598
   99OSM   C13F 9959   1.615   4.736   9.020 -0.1488 -0.1484  0.0106
   99OSM   H13F 9960   1.582   4.831   9.068 -0.0627 -0.7619  1.3476
   99OSM   H13G 9961   1.529   4.665   9.020 -0.3015 -0.0708  2.7517
   99OSM   C14F 9962   1.671   4.769   8.882 -0.1272  0.3339 -0.5693
   99OSM   H14F 9963   1.702   4.672   8.839  1.5221  0.5225  0.1346
   99OSM   H14G 9964   1.751   4.846   8.892 -0.8840  1.1535 -0.6565
   99OSM   C15F 9965   1.566   4.834   8.787 -0.2379 -0.4095 -0.0229
   99OSM   H15F 9966   1.543   4.938   8.816 -2.3581 -0.2722 -1.8624
   99OSM   H15G 9967   1.464   4.789   8.788  0.4547 -2.0351  0.7857
   99OSM   C16F 9968   1.617   4.840   8.638  0.6975  0.7655 -0.3666
   99OSM   H16F 9969   1.724   4.868   8.628  0.5413  0.6948 -3.3400
   99OSM   H16G 9970   1.547   4.918   8.602 -2.2043 -0.7438  1.6295
   99OSM   C17F 9971   1.584   4.724   8.551  0.6816  0.3904  0.2898
   99OSM   H17F 9972   1.612   4.634   8.610 -1.0507  1.4047  2.8143
   99OSM   H17G 9973   1.624   4.722   8.447 -3.6435 -0.9436 -1.5486
   99OSM   C18F 9974   1.429   4.701   8.543  0.3138  0.0412  0.5806
   99OSM   H18F 9975   1.416   4.597   8.509 -2.3481 -0.3629  2.4533
   99OSM   H18G 9976   1.385   4.768   8.466 -0.5279  0.0425  1.0459
   99OSM   H18H 9977   1.370   4.698   8.638 -0.4779 -0.7504  0.0743
  100OSM      N 9978   6.225   4.692  11.016  0.3523 -0.4068  0.1945
  100OSM    C15 9979   6.188   4.554  11.024  0.3522 -0.1507 -0.1297
  100OSM   H15A 9980   6.223   4.508  11.115 -1.7338  0.0172  0.7998
  100OSM   H15B 9981   6.215   4.494  10.938 -2.9604 -0.6495 -0.9617
  100OSM   H15C 9982   6.082   4.536  11.023  0.0524  1.4516  0.4185
  100OSM    C14 9983   6.173   4.726  10.877 -1.1085 -0.4395 -0.0786
  100OSM   H14A 9984   6.220   4.817  10.842 -0.2790  0.0273  2.0550
  100OSM   H14B 9985   6.066   4.737  10.870 -0.9935 -0.0605 -1.4717
  100OSM   H14C 9986   6.201   4.650  10.806 -1.2171  0.2967 -0.9215
  100OSM    C13 9987   6.157   4.778  11.117 -0.0349  0.0673 -0.0429
  100OSM   H13A 9988   6.174   4.734  11.214  0.1988  1.2880  0.4846
  100OSM   H13B 9989   6.050   4.775  11.098 -0.1362 -0.5659  0.5927
  100OSM   H13C 9990   6.198   4.878  11.116  0.9091 -0.3122  0.0358
  100OSM    C12 9991   6.381   4.710  11.014  0.0607  0.0601 -0.0341
  100OSM   H12A 9992   6.409   4.614  10.973 -2.1376 -0.7871  0.3070
  100OSM   H12B 9993   6.424   4.714  11.113  3.4144 -0.0740 -1.3652
  100OSM    C11 9994   6.451   4.815  10.934 -0.3365 -0.1605  0.8158
  100OSM   H11A 9995   6.548   4.838  10.983 -1.3757  4.4047  1.1836
  100OSM   H11B 9996   6.394   4.910  10.930  0.3222  0.2196  0.2070
  100OSM      P 9997   6.558   4.661  10.738 -0.1425  0.2425  0.0679
  100OSM    O13 9998   6.703   4.702  10.755  0.9114 -0.8616  0.0482
  100OSM    O14 9999   6.524   4.522  10.781  0.1903 -0.1435 -0.6092
  100OSM    O1110000   6.524   4.670  10.582 -0.4346 -0.2367  0.0409
  100OSM    O1210001   6.464   4.769  10.799  0.0784 -0.3714 -0.2693
  100OSM    C1S10002   6.393   4.710  10.541  0.6882  0.0151  0.1969
  100OSM    H1S10003   6.379   4.817  10.568 -1.9837  0.1440 -1.4074
  100OSM    H1T10004   6.318   4.656  10.602  1.4851 -0.9570  0.3540
  100OSM     NF10005   6.269   4.747  10.327 -0.3722  0.3572 -0.1534
  100OSM    HNF10006   6.185   4.692  10.329 -0.8228  1.0481  0.1601
  100OSM    C2S10007   6.381   4.679  10.388  0.8649 -0.8730 -0.6517
  100OSM    H2S10008   6.471   4.720  10.337  1.9421 -1.8696  0.3576
  100OSM    C3S10009   6.388   4.523  10.373 -0.4491  0.3220  0.0088
  100OSM    H3S10010   6.310   4.481  10.441 -2.7121 -0.1484 -2.6824
  100OSM     O310011   6.517   4.465  10.412 -0.0217 -0.7055  0.1361
  100OSM    HO310012   6.547   4.541  10.462  0.5018 -0.2529 -0.8267
  100OSM    C4S10013   6.362   4.494  10.228 -0.5460  0.5136 -0.2061
  100OSM    H4S10014   6.263   4.453  10.201 -0.1082  0.3098 -1.5686
  100OSM    C5S10015   6.461   4.497  10.131  0.6324 -0.5208  0.1705
  100OSM    H5S10016   6.565   4.515  10.164  0.1647 -0.1323  1.5012
  100OSM    C6S10017   6.427   4.472   9.985 -0.7316  0.1546  1.0124
  100OSM    H6S10018   6.354   4.548   9.951 -1.2150  0.0338  1.7638
  100OSM    H6T10019   6.365   4.381   9.982 -1.3844  0.5898  1.0446
  100OSM    C7S10020   6.547   4.483   9.892 -0.4110  0.5682 -0.1051
  100OSM    H7S10021   6.627   4.411   9.921 -0.4554  0.4559 -0.2576
  100OSM    H7T10022   6.594   4.582   9.908  2.1772 -0.7634  0.9512
  100OSM    C8S10023   6.507   4.483   9.740  0.0340 -0.2518 -0.5480
  100OSM    H8S10024   6.436   4.568   9.738  0.4602  0.1644  0.7730
  100OSM    H8T10025   6.449   4.389   9.727 -0.6922  0.1932 -0.5350
  100OSM    C9S10026   6.624   4.497   9.647  0.3117 -0.1650 -0.0883
  100OSM    H9S10027   6.699   4.418   9.669 -1.5571 -1.5830  1.6092
  100OSM    H9T10028   6.664   4.599   9.665  0.9066 -0.7978  2.6125
  100OSM   C10S10029   6.575   4.488   9.507  0.2323  0.2975 -0.0144
  100OSM   H10S10030   6.504   4.571   9.490  0.4757  0.2805 -1.2018
  100OSM   H10T10031   6.517   4.396   9.484 -2.3864  0.9838  3.1926
  100OSM   C11S10032   6.695   4.516   9.408 -0.5738  0.6215  0.2440
  100OSM   H11S10033   6.789   4.464   9.433 -0.3021  0.1796 -1.5704
  100OSM   H11T10034   6.699   4.627   9.413 -1.2435  0.6159  1.1737
  100OSM   C12S10035   6.667   4.469   9.265  0.1905  0.3333  0.3880
  100OSM   H12S10036   6.751   4.503   9.200 -0.0326 -0.3469 -0.2784
  100OSM   H12T10037   6.572   4.518   9.235 -1.2038 -2.0503  0.6696
  100OSM   C13S10038   6.666   4.313   9.250 -0.4038 -0.6169  0.1429
  100OSM   H13S10039   6.574   4.268   9.294 -0.3844 -0.4507  0.3602
  100OSM   H13T10040   6.752   4.270   9.305 -0.0806  0.8501  0.8341
  100OSM   C14S10041   6.669   4.269   9.100  0.7186 -0.0424 -0.4853
  100OSM   H14S10042   6.768   4.298   9.058 -0.0585  0.0143 -2.3563
  100OSM   H14T10043   6.602   4.327   9.033 -0.5240 -0.2148  0.5665
  100OSM   C15S10044   6.657   4.118   9.080  0.8415 -0.3104  0.0754
  100OSM   H15S10045   6.725   4.059   9.144  2.3879  2.8767  1.6040
  100OSM   H15T10046   6.686   4.113   8.973 -1.0776  2.3876 -0.6931
  100OSM   C16S10047   6.512   4.063   9.104 -0.5762  0.0498 -0.6179
  100OSM   H16S10048   6.440   4.131   9.053 -0.7455  0.5316  0.2497
  100OSM   H16T10049   6.500   4.059   9.214  2.5628 -0.2418 -0.1806
  100OSM   C17S10050   6.512   3.924   9.054  0.4434 -0.0089  0.0301
  100OSM   H17S10051   6.577   3.863   9.120  2.3014  0.3167 -1.4187
  100OSM   H17T10052   6.557   3.919   8.953  1.1144 -0.2058  0.3351
  100OSM   C18S10053   6.367   3.869   9.051  0.0798 -0.0072  0.3445
  100OSM   H18S10054   6.299   3.931   8.989  1.6359 -0.7032 -2.2262
  100OSM   H18T10055   6.325   3.865   9.154  0.2198 -0.2821  0.3911
  100OSM   H18U10056   6.361   3.762   9.022  1.9320 -0.2640  0.7685
  100OSM    C1F10057   6.262   4.884  10.304 -0.1479 -0.0766 -0.0638
  100OSM     OF10058   6.356   4.954  10.348 -0.0104 -0.7193 -0.1763
  100OSM    C2F10059   6.135   4.942  10.241  0.1211  0.0826 -0.1959
  100OSM    H2F10060   6.095   5.016  10.313  0.4702  0.5824 -0.5122
  100OSM    H2G10061   6.056   4.865  10.226  0.6027 -0.9286  2.0681
  100OSM    C3F10062   6.167   5.006  10.106 -0.3344 -0.2872  0.2762
  100OSM    H3F10063   6.231   4.938  10.046 -0.5444 -1.8632  1.7350
  100OSM    H3G10064   6.227   5.096  10.133 -1.3325 -0.3307  3.0257
  100OSM    C4F10065   6.047   5.046  10.021  0.5528 -0.6312  0.4533
  100OSM    H4F10066   5.986   5.120  10.077  0.6545 -1.8581  2.3041
  100OSM    H4G10067   5.978   4.959  10.009  0.3926 -0.5520  0.7653
  100OSM    C5F10068   6.091   5.081   9.883 -0.5314 -0.5311  1.7848
  100OSM    H5F10069   6.146   5.002   9.829  1.6236  1.7207  0.4384
  100OSM    H5G10070   6.167   5.163   9.889 -0.8056 -0.2873  1.9816
  100OSM    C6F10071   5.988   5.143   9.786  0.1773 -0.5985  0.1039
  100OSM    H6F10072   5.937   5.231   9.830 -0.5685 -0.3621 -1.1691
  100OSM    H6G10073   5.910   5.065   9.780  1.0253 -1.5642  1.2536
  100OSM    C7F10074   6.041   5.192   9.654 -0.1942  0.6187  0.6103
  100OSM    H7F10075   6.136   5.245   9.677 -1.2476  3.6602 -1.4750
  100OSM    H7G10076   5.974   5.273   9.618  0.6528  0.0376 -2.5458
  100OSM    C8F10077   6.067   5.085   9.545  1.3955  0.0373  0.8225
  100OSM    H8F10078   6.139   5.009   9.583 -0.0705 -2.2527 -0.7317
  100OSM    H8G10079   6.127   5.134   9.466 -0.3049  3.4174  1.4462
  100OSM    C9F10080   5.951   4.989   9.494  0.1869 -0.3793  0.2902
  100OSM    H9F10081   5.895   4.931   9.569  1.1570 -1.4975  0.1795
  100OSM   C10F10082   5.910   4.988   9.370 -0.4919 -0.1332 -0.4619
  100OSM   H10F10083   5.817   4.933   9.347 -1.8676  1.8585  0.0502
  100OSM   C11F10084   5.967   5.070   9.256  0.4229 -0.9674 -0.9993
  100OSM   H11F10085   6.048   5.140   9.286 -1.0511  0.9947 -1.3452
  100OSM   H11G10086   5.893   5.143   9.218 -0.8186 -0.6089  1.7961
  100OSM   C12F10087   6.028   4.980   9.151  0.5774  0.2837  0.3164
  100OSM   H12F10088   6.091   4.898   9.191 -1.2677 -0.6698  1.3957
  100OSM   H12G10089   6.091   5.047   9.089 -0.4423 -0.5125 -1.6792
  100OSM   C13F10090   5.931   4.911   9.055  0.2810 -0.2186 -0.7513
  100OSM   H13F10091   5.843   4.976   9.035  0.3592  0.9884  2.2190
  100OSM   H13G10092   5.879   4.826   9.104  2.0338 -0.6815  0.4154
  100OSM   C14F10093   6.000   4.869   8.925 -0.1296 -0.3224 -0.0759
  100OSM   H14F10094   5.941   4.785   8.880 -1.1657  0.0493  0.5442
  100OSM   H14G10095   6.103   4.837   8.951  1.6225  1.2685 -4.1657
  100OSM   C15F10096   6.009   4.990   8.823 -0.4937  0.1780 -0.2496
  100OSM   H15F10097   6.051   5.073   8.884 -0.5750 -0.5534  0.8179
  100OSM   H15G10098   5.901   5.014   8.811 -0.1316  1.4737 -1.1787
  100OSM   C16F10099   6.088   4.962   8.695 -0.2237 -0.4635 -0.5438
  100OSM   H16F10100   6.064   5.044   8.624 -0.9349  0.8389  1.1338
  100OSM   H16G10101   6.057   4.862   8.657 -0.7549 -0.4363 -0.1891
  100OSM   C17F10102   6.246   4.960   8.719 -0.1702  0.4478  0.1389
  100OSM   H17F10103   6.257   4.877   8.792 -1.7203  0.1883  0.0967
  100OSM   H17G10104   6.277   5.060   8.757 -2.6349  1.9837 -1.5539
  100OSM   C18F10105   6.329   4.936   8.587 -0.0671 -0.0138  0.0089
  100OSM   H18F10106   6.307   5.019   8.518  1.7978 -0.0213 -0.6605
  100OSM   H18G10107   6.297   4.837   8.547  0.7587  0.1201 -1.0150
  100OSM   H18H10108   6.439   4.940   8.607 -0.5090  3.2279  2.7626
  101OSM      N10109   6.768   2.969  10.921  0.7273 -0.1990 -0.6988
  101OSM    C1510110   6.771   2.851  10.826  0.1027  0.0504  0.1165
  101OSM   H15A10111   6.707   2.871  10.741 -1.8284  0.7626  1.6593
  101OSM   H15B10112   6.731   2.765  10.877  0.3777  0.3592  0.8562
  101OSM   H15C10113   6.868   2.833  10.783  0.4863  1.8759  0.1496
  101OSM    C1410114   6.635   2.974  10.987 -0.3996 -0.8225  0.5575
  101OSM   H14A10115   6.556   2.987  10.915 -1.0250 -0.8279  1.2198
  101OSM   H14B10116   6.632   3.060  11.054  2.1505 -1.1811  1.2433
  101OSM   H14C10117   6.605   2.885  11.040 -0.0149 -2.4558 -1.8453
  101OSM    C1310118   6.871   2.953  11.024 -0.0625  0.7072 -0.1806
  101OSM   H13A10119   6.858   2.863  11.083  1.3756  0.1052 -0.7267
  101OSM   H13B10120   6.870   3.040  11.088  1.2194  0.2842  0.4405
  101OSM   H13C10121   6.963   2.927  10.974 -0.7190 -1.7289 -0.2333
  101OSM    C1210122   6.791   3.097  10.844  0.0653  0.2340  0.2710
  101OSM   H12A10123   6.732   3.088  10.754 -2.2835  0.5619  1.7025
  101OSM   H12B10124   6.897   3.097  10.823  0.1262  0.4526  0.5718
  101OSM    C1110125   6.760   3.228  10.915 -0.3178 -0.2236  0.4445
  101OSM   H11A10126   6.652   3.228  10.944  0.2791  0.0856  2.8950
  101OSM   H11B10127   6.776   3.316  10.849  4.9175 -0.9141  0.3756
  101OSM      P10128   6.977   3.314  11.034  0.1878  0.0278 -0.1064
  101OSM    O1310129   6.981   3.430  11.129  0.0990  0.2014  0.2675
  101OSM    O1410130   7.073   3.197  11.057  0.2442 -0.0072 -0.3618
  101OSM    O1110131   6.992   3.368  10.883  0.4569  0.2312 -0.0545
  101OSM    O1210132   6.828   3.255  11.041  0.6503 -0.0552  0.1217
  101OSM    C1S10133   7.054   3.271  10.794  0.2665  0.8037  0.4643
  101OSM    H1S10134   7.026   3.165  10.811 -1.9307  1.2749  0.0489
  101OSM    H1T10135   7.164   3.275  10.808  0.3416 -0.7961  0.5487
  101OSM     NF10136   7.093   3.195  10.565 -0.3395 -0.1789 -0.0316
  101OSM    HNF10137   7.165   3.222  10.501 -2.0825  1.9382 -1.2195
  101OSM    C2S10138   7.015   3.296  10.644 -0.4608  0.1583  0.0082
  101OSM    H2S10139   6.905   3.288  10.632 -0.5002  2.2620 -1.8127
  101OSM    C3S10140   7.052   3.440  10.604  0.7143  0.3219  0.1596
  101OSM    H3S10141   7.163   3.446  10.610  0.6856  1.1091 -0.0305
  101OSM     O310142   6.997   3.535  10.699 -0.7835 -0.5788  0.3681
  101OSM    HO310143   7.002   3.476  10.774  1.9174 -1.7662 -0.6128
  101OSM    C4S10144   7.011   3.467  10.461  0.0510  0.0665 -0.2774
  101OSM    H4S10145   7.095   3.465  10.391  1.7934 -1.3151  1.7193
  101OSM    C5S10146   6.887   3.495  10.413  0.3370  0.6909  0.4217
  101OSM    H5S10147   6.801   3.514  10.479 -1.1394 -2.0703 -0.5435
  101OSM    C6S10148   6.845   3.525  10.274 -0.2656 -0.1738  0.0423
  101OSM    H6S10149   6.861   3.630  10.243 -0.2722 -0.1255  0.2066
  101OSM    H6T10150   6.737   3.500  10.267  0.1714 -2.2815 -0.0066
  101OSM    C7S10151   6.925   3.462  10.158 -0.2741  0.1019 -0.4694
  101OSM    H7S10152   6.916   3.354  10.180 -1.5664  0.1522 -0.6178
  101OSM    H7T10153   7.032   3.483  10.177 -0.2393 -0.8804  0.4584
  101OSM    C8S10154   6.865   3.496  10.020 -0.1130 -0.5206  0.2071
  101OSM    H8S10155   6.883   3.603   9.995 -0.8553 -0.6531 -0.9478
  101OSM    H8T10156   6.756   3.489  10.040  0.0601 -1.1594  0.9531
  101OSM    C9S10157   6.922   3.404   9.906 -0.3194  0.5515  0.0500
  101OSM    H9S10158   6.884   3.301   9.922  1.1075  0.1960  1.4124
  101OSM    H9T10159   7.031   3.401   9.930  0.0808 -0.1195 -1.6336
  101OSM   C10S10160   6.905   3.450   9.759 -0.4293 -0.3495  0.4946
  101OSM   H10S10161   6.935   3.356   9.707  1.4043 -0.3094  1.3985
  101OSM   H10T10162   6.969   3.531   9.719 -0.6070 -0.8516 -0.8903
  101OSM   C11S10163   6.768   3.484   9.717  0.3726  0.0832 -0.1541
  101OSM   H11S10164   6.760   3.593   9.736  1.2887  0.2530 -0.6486
  101OSM   H11T10165   6.708   3.424   9.789  1.9745 -0.1070  1.0873
  101OSM   C12S10166   6.725   3.456   9.573 -0.1341 -0.1323 -0.1155
  101OSM   H12S10167   6.756   3.352   9.551 -0.8428 -0.2935 -0.3762
  101OSM   H12T10168   6.779   3.520   9.500  0.9885 -0.9451 -0.0235
  101OSM   C13S10169   6.572   3.469   9.544 -0.4958 -0.5820  0.2691
  101OSM   H13S10170   6.543   3.575   9.559  1.2007 -0.0597  0.0663
  101OSM   H13T10171   6.517   3.416   9.624 -0.8013 -0.7617 -0.0610
  101OSM   C14S10172   6.518   3.423   9.408 -0.2084  0.2918 -0.9843
  101OSM   H14S10173   6.407   3.425   9.408 -0.2565  2.1621  1.6738
  101OSM   H14T10174   6.560   3.320   9.400  1.8135  0.8015  1.5545
  101OSM   C15S10175   6.572   3.509   9.299 -0.7826  0.1452  0.3038
  101OSM   H15S10176   6.683   3.498   9.297 -0.7181 -0.2055  2.9950
  101OSM   H15T10177   6.548   3.615   9.319  1.3502  0.6087  0.7105
  101OSM   C16S10178   6.512   3.469   9.156  0.3543  0.3765  0.7126
  101OSM   H16S10179   6.401   3.471   9.160  0.1970 -2.4919  0.3604
  101OSM   H16T10180   6.526   3.362   9.127  1.3001  0.4248  0.9710
  101OSM   C17S10181   6.574   3.542   9.037  0.1140 -0.1815  0.4907
  101OSM   H17S10182   6.679   3.508   9.023  0.4535 -0.1789  2.7424
  101OSM   H17T10183   6.568   3.652   9.052 -0.4009  0.0956 -1.4610
  101OSM   C18S10184   6.505   3.506   8.897  0.6365  0.4340  0.0478
  101OSM   H18S10185   6.516   3.401   8.865 -0.7108  0.9846 -2.5055
  101OSM   H18T10186   6.562   3.557   8.816  1.8878 -2.3521 -0.9555
  101OSM   H18U10187   6.397   3.533   8.896  0.9786  1.9350  0.5926
  101OSM    C1F10188   7.078   3.066  10.572  0.1949  0.7988 -0.2576
  101OSM     OF10189   6.976   3.005  10.617 -0.0664 -0.2901  0.5712
  101OSM    C2F10190   7.185   2.992  10.503  0.7657 -0.5035  0.5154
  101OSM    H2F10191   7.243   2.939  10.582  0.8689 -1.9097 -0.4697
  101OSM    H2G10192   7.256   3.057  10.449  0.2615 -1.3262 -1.2081
  101OSM    C3F10193   7.134   2.886  10.404 -0.1803 -0.4664  0.1669
  101OSM    H3F10194   7.103   2.792  10.455  1.2589 -1.5158 -0.8210
  101OSM    H3G10195   7.220   2.862  10.338 -0.1347  1.5530 -0.5764
  101OSM    C4F10196   7.013   2.940  10.325  0.1878 -0.3957 -0.1470
  101OSM    H4F10197   6.930   2.964  10.394  0.6628  1.7154 -0.2198
  101OSM    H4G10198   6.968   2.859  10.264  0.3999  0.0220 -0.8804
  101OSM    C5F10199   7.037   3.054  10.224 -0.3017  0.5696  0.0531
  101OSM    H5F10200   7.054   3.146  10.284 -3.2929  0.8226  0.6630
  101OSM    H5G10201   6.940   3.079  10.177 -1.7553 -2.7429  1.0159
  101OSM    C6F10202   7.145   3.037  10.113  0.3728  0.3158  1.0560
  101OSM    H6F10203   7.239   3.000  10.160  0.2369 -0.1671  0.9499
  101OSM    H6G10204   7.104   2.962  10.043  0.4510  0.6692  0.6276
  101OSM    C7F10205   7.173   3.167  10.031  0.4244  0.1989  0.7868
  101OSM    H7F10206   7.210   3.246  10.099  1.1140 -0.1750  0.8464
  101OSM    H7G10207   7.076   3.208   9.994  1.3342  2.8378  1.0895
  101OSM    C8F10208   7.275   3.149   9.913  0.4713  0.0160 -0.3891
  101OSM    H8F10209   7.371   3.110   9.953  1.1362  0.7339 -1.2410
  101OSM    H8G10210   7.298   3.245   9.862 -1.1768  1.0986  0.7922
  101OSM    C9F10211   7.217   3.075   9.792 -0.0279 -1.2224 -0.4698
  101OSM    H9F10212   7.188   2.971   9.814 -1.4458 -0.7117  0.1477
  101OSM   C10F10213   7.191   3.124   9.667  0.2977 -0.1450  0.2298
  101OSM   H10F10214   7.145   3.060   9.590  3.1221  0.7639 -2.3764
  101OSM   C11F10215   7.214   3.267   9.619 -0.0625  0.3828 -0.5918
  101OSM   H11F10216   7.323   3.287   9.628 -0.2953  0.8589  3.2972
  101OSM   H11G10217   7.176   3.347   9.687 -0.9785  0.3802 -1.0845
  101OSM   C12F10218   7.171   3.279   9.470  0.2572  0.1232 -0.0328
  101OSM   H12F10219   7.061   3.283   9.450  0.4711  0.1183 -1.2637
  101OSM   H12G10220   7.195   3.193   9.405 -2.2566  0.1340 -1.0969
  101OSM   C13F10221   7.242   3.399   9.400 -0.3967 -0.4349  1.0014
  101OSM   H13F10222   7.346   3.390   9.437 -0.3044  0.8443  1.0938
  101OSM   H13G10223   7.183   3.490   9.423 -1.9671  0.2444 -4.2743
  101OSM   C14F10224   7.228   3.386   9.246 -0.4916  0.2761 -0.4485
  101OSM   H14F10225   7.119   3.368   9.229 -0.2317 -2.1948  0.1667
  101OSM   H14G10226   7.276   3.295   9.206  0.6254  0.3609  0.6564
  101OSM   C15F10227   7.284   3.513   9.168  0.2519 -0.1388 -0.0939
  101OSM   H15F10228   7.391   3.516   9.196  0.0556 -2.5768  1.2219
  101OSM   H15G10229   7.243   3.602   9.219  0.8253  0.9975 -1.5464
  101OSM   C16F10230   7.248   3.514   9.021 -0.1024 -0.6763 -0.3612
  101OSM   H16F10231   7.275   3.608   8.969 -3.6417  1.1893  0.8498
  101OSM   H16G10232   7.137   3.516   9.022 -0.1987  2.8035  2.7199
  101OSM   C17F10233   7.294   3.393   8.934 -0.9091  0.4534 -0.7289
  101OSM   H17F10234   7.252   3.295   8.964  1.8462 -0.7176 -0.3197
  101OSM   H17G10235   7.405   3.388   8.932 -0.9460 -1.1471 -0.0980
  101OSM   C18F10236   7.249   3.415   8.790  0.4834 -0.4792  0.9390
  101OSM   H18F10237   7.298   3.337   8.728  1.2774  0.1048  0.8047
  101OSM   H18G10238   7.295   3.510   8.756  1.9355 -0.5567  2.5502
  101OSM   H18H10239   7.142   3.436   8.768  0.4606 -1.7745 -0.3521
  102OSM      N10240   3.255   6.177  10.579  0.0015 -0.0902  0.0361
  102OSM    C1510241   3.192   6.044  10.582 -0.5141  0.1861 -0.1930
  102OSM   H15A10242   3.242   5.984  10.656 -0.0026  0.3310 -0.4200
  102OSM   H15B10243   3.205   5.983  10.494  1.1912 -0.9291  0.7747
  102OSM   H15C10244   3.084   6.047  10.588 -0.5480 -0.6288 -0.3146
  102OSM    C1410245   3.403   6.172  10.568  0.4630  0.3184 -0.7079
  102OSM   H14A10246   3.437   6.274  10.577  1.4428  0.0018 -0.6907
  102OSM   H14B10247   3.426   6.138  10.468 -1.5936  3.0053 -2.2178
  102OSM   H14C10248   3.445   6.110  10.646  1.3718  1.8875  0.1016
  102OSM    C1310249   3.202   6.250  10.451  0.3557 -0.6157 -0.1592
  102OSM   H13A10250   3.249   6.347  10.465  0.9701 -0.8150 -0.7921
  102OSM   H13B10251   3.096   6.265  10.464 -0.1779 -4.5414  1.1530
  102OSM   H13C10252   3.233   6.218  10.353  1.9726 -0.7164  0.3482
  102OSM    C1210253   3.212   6.264  10.703  0.4410  0.9533  0.0851
  102OSM   H12A10254   3.230   6.207  10.793 -0.9134  3.0542  1.7772
  102OSM   H12B10255   3.105   6.277  10.699  0.7282  3.5855 -0.8940
  102OSM    C1110256   3.276   6.404  10.728 -0.5029  0.8970 -0.4308
  102OSM   H11A10257   3.384   6.390  10.749 -0.6149  0.1720 -0.2820
  102OSM   H11B10258   3.241   6.444  10.825  1.1034 -0.2302  0.6640
  102OSM      P10259   3.247   6.639  10.625  0.3858  0.2288 -0.0426
  102OSM    O1310260   3.139   6.674  10.723 -0.6251 -0.6882  0.7199
  102OSM    O1410261   3.385   6.685  10.646  0.2695 -0.3777 -0.0937
  102OSM    O1110262   3.198   6.681  10.482  0.7178 -0.3818 -0.8211
  102OSM    O1210263   3.252   6.487  10.617  0.3047 -0.2347 -0.1599
  102OSM    C1S10264   3.168   6.584  10.384 -0.3785  0.1128 -1.4208
  102OSM    H1S10265   3.077   6.527  10.414 -0.4704  0.3186 -1.3055
  102OSM    H1T10266   3.257   6.518  10.370  1.4288  2.4139 -1.3659
  102OSM     NF10267   3.086   6.541  10.156  0.1502  0.3336  0.6757
  102OSM    HNF10268   3.152   6.494  10.098  0.2462 -0.4038  1.3721
  102OSM    C2S10269   3.143   6.640  10.250 -0.1512  0.9847  0.2811
  102OSM    H2S10270   3.064   6.717  10.263 -1.0922  0.0774  0.0307
  102OSM    C3S10271   3.269   6.720  10.198  0.6496  1.0784 -0.0824
  102OSM    H3S10272   3.359   6.656  10.192 -0.7196 -0.9124 -0.7281
  102OSM     O310273   3.310   6.832  10.279  0.1572 -0.5358  0.4075
  102OSM    HO310274   3.266   6.822  10.363  0.4063 -0.4717  0.5443
  102OSM    C4S10275   3.239   6.767  10.059  0.1771  0.2548 -0.1734
  102OSM    H4S10276   3.257   6.684   9.989  2.0545  0.7139 -0.2834
  102OSM    C5S10277   3.206   6.887  10.011  0.2250 -0.7917 -0.7652
  102OSM    H5S10278   3.185   6.965  10.085 -1.2746 -0.2893 -1.6755
  102OSM    C6S10279   3.180   6.925   9.870 -0.5585 -0.0416  0.4963
  102OSM    H6S10280   3.231   7.021   9.848 -1.8145  0.9956  1.9381
  102OSM    H6T10281   3.073   6.948   9.852 -0.6206 -1.4608 -1.2538
  102OSM    C7S10282   3.227   6.821   9.773  0.2870  0.5778  0.0795
  102OSM    H7S10283   3.164   6.730   9.787  0.2495  1.0624  3.9938
  102OSM    H7T10284   3.333   6.789   9.786  0.0640 -0.7335 -1.0129
  102OSM    C8S10285   3.222   6.862   9.623  0.5555 -0.1106  0.4658
  102OSM    H8S10286   3.279   6.956   9.606  0.0400  0.1061 -0.0931
  102OSM    H8T10287   3.120   6.879   9.584  0.9313 -0.9345 -0.9609
  102OSM    C9S10288   3.286   6.762   9.522 -0.4285 -0.4313 -0.5176
  102OSM    H9S10289   3.237   6.663   9.528 -3.0080  0.8027  0.2338
  102OSM    H9T10290   3.391   6.743   9.553 -0.5457 -0.0785  0.1273
  102OSM   C10S10291   3.281   6.815   9.379 -0.4503  0.1485  0.6268
  102OSM   H10S10292   3.176   6.825   9.345 -0.2922 -0.2136 -0.0021
  102OSM   H10T10293   3.340   6.747   9.313 -0.7695 -0.3918  0.8877
  102OSM   C11S10294   3.349   6.953   9.345 -0.0213  0.1623 -0.0214
  102OSM   H11S10295   3.429   6.967   9.420 -0.3953  2.4202  0.0173
  102OSM   H11T10296   3.277   7.035   9.366  0.1509  0.2456  0.2460
  102OSM   C12S10297   3.407   6.976   9.205 -0.1540 -0.1533 -0.5766
  102OSM   H12S10298   3.500   6.918   9.187 -0.2322 -0.4265 -0.1118
  102OSM   H12T10299   3.429   7.085   9.201 -2.4972  0.4084  0.3932
  102OSM   C13S10300   3.306   6.937   9.095  0.2916  0.1693 -0.3538
  102OSM   H13S10301   3.209   6.983   9.121 -1.4974 -2.9660 -0.9251
  102OSM   H13T10302   3.305   6.826   9.092  1.3110  0.1139  0.9017
  102OSM   C14S10303   3.345   6.990   8.956 -0.2188 -0.2565  0.0864
  102OSM   H14S10304   3.448   6.962   8.925 -0.4792  0.0537 -1.1069
  102OSM   H14T10305   3.332   7.101   8.951  0.4920 -0.2337 -2.3393
  102OSM   C15S10306   3.247   6.927   8.856  0.1153 -0.6896  0.8276
  102OSM   H15S10307   3.144   6.966   8.869 -0.7243 -2.3288 -0.4813
  102OSM   H15T10308   3.250   6.818   8.875  1.1709 -0.4181  2.3461
  102OSM   C16S10309   3.292   6.953   8.708 -0.3442  0.1730 -0.3376
  102OSM   H16S10310   3.402   6.935   8.708 -0.1159  1.2007 -2.9007
  102OSM   H16T10311   3.292   7.061   8.685  0.5865  0.9049  2.6390
  102OSM   C17S10312   3.237   6.859   8.611 -0.6033  0.3883 -0.3555
  102OSM   H17S10313   3.255   6.755   8.645  1.1899 -0.0214 -2.3855
  102OSM   H17T10314   3.287   6.876   8.513  2.0392  2.4645  1.2134
  102OSM   C18S10315   3.081   6.871   8.606 -0.1991  0.7141  0.1484
  102OSM   H18S10316   3.057   6.823   8.509 -0.4407 -0.8375  0.9421
  102OSM   H18T10317   3.053   6.978   8.599 -2.0796  0.1688 -1.3289
  102OSM   H18U10318   3.033   6.822   8.694 -0.1879  1.0199  0.3235
  102OSM    C1F10319   2.968   6.484  10.157  0.0366  0.6892  0.4660
  102OSM     OF10320   2.887   6.533  10.234  0.5504  0.5608 -0.0829
  102OSM    C2F10321   2.937   6.372  10.064 -1.1593 -0.1600 -1.4590
  102OSM    H2F10322   2.920   6.283  10.129  1.2312  1.2689  1.3529
  102OSM    H2G10323   3.022   6.361   9.994 -0.5168  0.1668 -0.7462
  102OSM    C3F10324   2.801   6.380   9.991 -0.3338 -0.5630  0.1361
  102OSM    H3F10325   2.725   6.397  10.069 -0.8269 -0.6014 -0.3313
  102OSM    H3G10326   2.786   6.286   9.934  1.0724 -1.4250  1.1083
  102OSM    C4F10327   2.772   6.507   9.900 -0.2650  0.8784 -0.3268
  102OSM    H4F10328   2.768   6.593   9.970 -2.1454 -0.8090  1.7734
  102OSM    H4G10329   2.666   6.491   9.874 -0.0857  0.3250 -0.7419
  102OSM    C5F10330   2.876   6.533   9.794  0.2579  0.0507 -0.0857
  102OSM    H5F10331   2.979   6.495   9.815  1.4675  1.7220 -2.4420
  102OSM    H5G10332   2.882   6.642   9.775 -1.3812 -0.0839 -1.6729
  102OSM    C6F10333   2.843   6.447   9.673 -0.1034  1.6538  0.0094
  102OSM    H6F10334   2.737   6.461   9.644  0.4294 -0.0926 -3.2526
  102OSM    H6G10335   2.843   6.340   9.704 -3.2104  1.4802 -0.2924
  102OSM    C7F10336   2.914   6.489   9.548 -0.1171 -0.5545  0.2703
  102OSM    H7F10337   2.922   6.600   9.551  0.9018 -0.6264  0.9547
  102OSM    H7G10338   2.863   6.460   9.454  0.2448  1.8441 -0.7376
  102OSM    C8F10339   3.072   6.460   9.531 -0.0469  0.3656 -0.6761
  102OSM    H8F10340   3.117   6.499   9.624 -2.4736  0.4899  0.5304
  102OSM    H8G10341   3.114   6.518   9.446  2.3366  0.1102  0.2491
  102OSM    C9F10342   3.103   6.312   9.515 -0.3272  0.1422 -0.6106
  102OSM    H9F10343   3.076   6.244   9.598 -1.4052 -0.8029 -1.6992
  102OSM   C10F10344   3.167   6.256   9.409  0.6458  0.0934 -0.2039
  102OSM   H10F10345   3.185   6.148   9.404  1.3634  0.1562  0.7536
  102OSM   C11F10346   3.211   6.330   9.285  0.3150 -0.1609  0.0294
  102OSM   H11F10347   3.301   6.395   9.297  0.2139  0.4031 -1.9930
  102OSM   H11G10348   3.131   6.404   9.264 -0.1427 -0.9148 -0.9782
  102OSM   C12F10349   3.242   6.239   9.165 -0.5504 -0.2052 -0.7116
  102OSM   H12F10350   3.311   6.164   9.209 -4.0350 -2.1367  1.9524
  102OSM   H12G10351   3.295   6.300   9.088  0.1364 -0.4943 -0.4788
  102OSM   C13F10352   3.125   6.177   9.098 -0.2156  0.0113 -0.3853
  102OSM   H13F10353   3.050   6.252   9.065 -0.4065 -0.4015 -0.9087
  102OSM   H13G10354   3.068   6.108   9.164 -3.2124 -0.0913 -2.8665
  102OSM   C14F10355   3.164   6.090   8.974 -0.0183  0.0862  0.3987
  102OSM   H14F10356   3.252   6.028   9.004  1.1188  0.9920 -0.9569
  102OSM   H14G10357   3.207   6.159   8.899  1.6660 -1.6227 -0.3018
  102OSM   C15F10358   3.062   5.994   8.912 -0.2737  0.1720  0.4866
  102OSM   H15F10359   3.006   5.954   9.000  0.4417  1.0430  1.3648
  102OSM   H15G10360   3.106   5.908   8.858 -1.4211 -0.5299  0.6327
  102OSM   C16F10361   2.964   6.053   8.811  0.9016 -0.2883  0.9202
  102OSM   H16F10362   3.016   6.086   8.719 -0.5623 -0.3544  0.0307
  102OSM   H16G10363   2.922   6.145   8.857 -1.0886 -0.4517 -0.4464
  102OSM   C17F10364   2.852   5.950   8.781  0.5820 -0.4356 -0.2569
  102OSM   H17F10365   2.812   5.922   8.880  1.2262  0.8018  0.3816
  102OSM   H17G10366   2.891   5.872   8.712 -0.4415 -0.5301 -0.7381
  102OSM   C18F10367   2.732   6.013   8.708 -0.2065 -0.1530  0.1264
  102OSM   H18F10368   2.693   6.083   8.785 -0.0467 -0.6882  0.7084
  102OSM   H18G10369   2.662   5.935   8.669 -0.9098  1.0824 -1.1610
  102OSM   H18H10370   2.780   6.066   8.623  0.1746 -0.1244  0.3566
  103OSM      N10371   0.921   3.185  11.288 -0.8132 -0.3217  0.1412
  103OSM    C1510372   1.062   3.240  11.257 -0.3815 -0.2796  0.5071
  103OSM   H15A10373   1.143   3.181  11.298  0.1656 -0.6604 -1.0346
  103OSM   H15B10374   1.070   3.347  11.263 -0.1592 -0.3532  1.7460
  103OSM   H15C10375   1.068   3.227  11.150  1.0807 -0.3062  0.5710
  103OSM    C1410376   0.918   3.148  11.430  0.0142 -0.0823 -0.0483
  103OSM   H14A10377   0.822   3.105  11.453  0.0735  0.3862  1.1686
  103OSM   H14B10378   0.918   3.223  11.509 -0.5050 -0.0787 -0.0522
  103OSM   H14C10379   0.989   3.069  11.446 -1.9547 -2.2209 -1.3995
  103OSM    C1310380   0.823   3.289  11.264  0.2118  0.3430 -0.1527
  103OSM   H13A10381   0.815   3.321  11.161 -0.8908  1.1265  0.1526
  103OSM   H13B10382   0.828   3.374  11.329 -0.4932  1.6052 -1.6909
  103OSM   H13C10383   0.726   3.248  11.291  0.8367 -0.5537  0.8314
  103OSM    C1210384   0.881   3.076  11.195  0.3205  0.1255 -0.7376
  103OSM   H12A10385   0.777   3.055  11.216  0.4339  1.3760  1.2200
  103OSM   H12B10386   0.935   2.985  11.217 -0.6739 -0.2457  0.2791
  103OSM    C1110387   0.893   3.105  11.042  0.6725 -0.0500 -0.2805
  103OSM   H11A10388   0.838   3.199  11.019  2.4923  0.8531 -1.1056
  103OSM   H11B10389   0.839   3.026  10.985  0.4624 -1.1708  1.3847
  103OSM      P10390   1.108   3.003  10.962  0.0543 -0.9384 -0.0246
  103OSM    O1310391   1.248   3.047  10.965  0.5090 -0.1010 -0.0933
  103OSM    O1410392   1.061   2.896  11.055  0.1723 -0.2496  0.3294
  103OSM    O1110393   1.056   2.979  10.817 -0.4167  0.2142 -0.3839
  103OSM    O1210394   1.025   3.138  10.997  0.5007  0.1295  0.3879
  103OSM    C1S10395   1.121   3.049  10.707  0.6191  0.0996  0.1422
  103OSM    H1S10396   1.227   3.021  10.691  0.0038 -0.9224 -2.6404
  103OSM    H1T10397   1.125   3.159  10.719  2.6447 -0.0608  1.4462
  103OSM     NF10398   1.110   3.092  10.459 -1.0425 -0.2684  0.0940
  103OSM    HNF10399   1.067   3.173  10.421 -5.2033 -1.5630  1.5511
  103OSM    C2S10400   1.047   3.023  10.569  0.6229  0.0636  0.2633
  103OSM    H2S10401   1.060   2.916  10.543  1.1009 -0.6195  3.0037
  103OSM    C3S10402   0.896   3.058  10.577 -0.5887  0.3908  0.2611
  103OSM    H3S10403   0.893   3.167  10.600  2.2482  0.3413  1.2993
  103OSM     O310404   0.830   3.010  10.691  0.1703 -0.5266 -0.3670
  103OSM    HO310405   0.897   2.977  10.752 -0.4371 -0.2704  0.4534
  103OSM    C4S10406   0.821   3.018  10.455  0.5651  0.9969 -0.7276
  103OSM    H4S10407   0.823   2.908  10.451  0.9947  0.9322  0.7423
  103OSM    C5S10408   0.748   3.085  10.370 -0.7877  0.8566  0.9054
  103OSM    H5S10409   0.730   3.189  10.398 -0.5772  1.2410 -0.3114
  103OSM    C6S10410   0.670   3.032  10.253 -0.0557  0.3827  0.1466
  103OSM    H6S10411   0.663   3.108  10.173  1.2364  1.1952  0.7735
  103OSM    H6T10412   0.561   3.017  10.272 -0.1723  1.5921  0.4962
  103OSM    C7S10413   0.720   2.902  10.202  0.5553  0.2428 -0.4440
  103OSM    H7S10414   0.707   2.841  10.294 -1.6745  2.3840  0.8021
  103OSM    H7T10415   0.827   2.898  10.174 -0.0723 -1.5185 -3.0070
  103OSM    C8S10416   0.641   2.848  10.081  0.4477  0.3971  0.3017
  103OSM    H8S10417   0.660   2.913   9.993  2.8709 -0.5345  0.0409
  103OSM    H8T10418   0.532   2.866  10.094  0.4559 -0.6710  2.2686
  103OSM    C9S10419   0.670   2.698  10.044 -1.0844 -0.8805 -0.2987
  103OSM    H9S10420   0.636   2.641  10.133 -1.0590  2.9062  2.3437
  103OSM    H9T10421   0.777   2.688  10.016 -1.2504 -1.5325 -0.7318
  103OSM   C10S10422   0.581   2.646   9.930 -0.3384 -0.0256  0.8312
  103OSM   H10S10423   0.478   2.672   9.961 -0.6389 -1.4630  1.1253
  103OSM   H10T10424   0.584   2.536   9.912  1.9493  0.0254  0.5534
  103OSM   C11S10425   0.621   2.685   9.787  0.0658  0.2431 -0.2118
  103OSM   H11S10426   0.720   2.640   9.764 -1.0112 -1.6861 -1.2937
  103OSM   H11T10427   0.624   2.796   9.784  0.1716  0.2516  0.1158
  103OSM   C12S10428   0.510   2.648   9.696  0.4089 -0.3497  1.0057
  103OSM   H12S10429   0.417   2.693   9.736 -0.7804  0.1238 -2.0258
  103OSM   H12T10430   0.494   2.538   9.691 -0.4902 -0.1923 -2.8278
  103OSM   C13S10431   0.533   2.720   9.558  0.1718  0.2841 -0.6445
  103OSM   H13S10432   0.623   2.678   9.507  0.4115  1.2184 -1.0179
  103OSM   H13T10433   0.550   2.829   9.576  1.2425 -0.2084  1.8261
  103OSM   C14S10434   0.399   2.719   9.475  0.7279 -0.0430  0.9903
  103OSM   H14S10435   0.319   2.703   9.550 -2.1032  0.7216 -1.6344
  103OSM   H14T10436   0.387   2.628   9.412  1.0523 -0.1838  1.1273
  103OSM   C15S10437   0.373   2.843   9.391  0.7842 -0.5431 -0.2774
  103OSM   H15S10438   0.405   2.933   9.447  1.5609 -1.1388  0.2537
  103OSM   H15T10439   0.266   2.872   9.385  0.9330  0.1563  0.2398
  103OSM   C16S10440   0.456   2.836   9.266  0.3970  0.3014 -0.6930
  103OSM   H16S10441   0.433   2.742   9.212 -0.0772  0.1467 -0.2316
  103OSM   H16T10442   0.562   2.826   9.298  1.1682  1.5686 -2.6801
  103OSM   C17S10443   0.452   2.964   9.179  0.0169 -0.4267  0.1617
  103OSM   H17S10444   0.465   3.056   9.241  0.3761  0.1403 -0.7398
  103OSM   H17T10445   0.347   2.979   9.145  0.7220  2.1159 -1.1720
  103OSM   C18S10446   0.555   2.962   9.060 -0.5095  0.2385 -0.0800
  103OSM   H18S10447   0.535   3.035   8.979  1.5059 -0.5933 -1.3857
  103OSM   H18T10448   0.556   2.860   9.017 -1.6370 -1.8615  4.2710
  103OSM   H18U10449   0.657   2.976   9.101 -0.0753  0.6386 -1.2481
  103OSM    C1F10450   1.231   3.072  10.419 -0.1572  0.4227  0.3366
  103OSM     OF10451   1.294   2.968  10.449  0.0180  0.4485  0.9100
  103OSM    C2F10452   1.299   3.170  10.330  0.7657 -0.4016  0.2899
  103OSM    H2F10453   1.306   3.262  10.392 -2.0456 -0.1880  0.4487
  103OSM    H2G10454   1.233   3.190  10.243 -1.3478  2.1785  2.2945
  103OSM    C3F10455   1.428   3.128  10.256  0.0789  0.0255  0.8411
  103OSM    H3F10456   1.404   3.038  10.195 -2.1093  1.1719 -0.1073
  103OSM    H3G10457   1.506   3.098  10.329  0.8186 -1.7060 -0.5774
  103OSM    C4F10458   1.473   3.230  10.144 -1.0666 -0.3703  0.2118
  103OSM    H4F10459   1.499   3.329  10.187  0.8505 -1.4144  1.6220
  103OSM    H4G10460   1.390   3.262  10.078  0.9272  4.4819 -0.3283
  103OSM    C5F10461   1.587   3.181  10.052  0.5021  0.0971 -0.1259
  103OSM    H5F10462   1.666   3.127  10.108  1.1113  2.2718  1.2346
  103OSM    H5G10463   1.632   3.275  10.013 -0.8090  1.3603  1.2625
  103OSM    C6F10464   1.534   3.104   9.935 -0.6315 -0.5916 -0.6883
  103OSM    H6F10465   1.444   3.143   9.883 -0.0600 -0.6615 -1.7740
  103OSM    H6G10466   1.499   3.003   9.962 -2.2662 -0.0592 -0.7131
  103OSM    C7F10467   1.640   3.084   9.824 -0.4355 -0.2403 -0.4371
  103OSM    H7F10468   1.721   3.030   9.879 -0.4113  1.8229  1.6941
  103OSM    H7G10469   1.665   3.182   9.778 -2.0169  0.5845  0.3825
  103OSM    C8F10470   1.586   2.994   9.706  0.2078 -0.1745 -0.7193
  103OSM    H8F10471   1.547   2.907   9.761  0.0694  0.6076  0.4525
  103OSM    H8G10472   1.671   2.958   9.644  0.8228  0.7535 -0.4499
  103OSM    C9F10473   1.480   3.060   9.621 -0.3134  0.5251 -0.1006
  103OSM    H9F10474   1.390   3.087   9.677 -0.7028 -1.6175  0.3808
  103OSM   C10F10475   1.481   3.091   9.491 -0.4280 -0.1007  0.1315
  103OSM   H10F10476   1.393   3.139   9.446 -0.0453 -0.4375 -0.9921
  103OSM   C11F10477   1.603   3.078   9.398 -0.1619  0.1210 -0.9730
  103OSM   H11F10478   1.591   2.992   9.328  0.5876 -0.0482 -0.9033
  103OSM   H11G10479   1.700   3.060   9.450 -0.4172 -1.7378 -1.0605
  103OSM   C12F10480   1.616   3.204   9.307  0.5794 -0.4658  0.3469
  103OSM   H12F10481   1.710   3.217   9.250 -0.8908  2.3034 -1.6644
  103OSM   H12G10482   1.628   3.292   9.373  1.3360  0.1904 -0.6468
  103OSM   C13F10483   1.494   3.230   9.222  0.0982 -0.3783  0.3586
  103OSM   H13F10484   1.509   3.313   9.149 -0.8578 -0.9795 -0.5300
  103OSM   H13G10485   1.416   3.263   9.295  0.9158 -0.4437  1.2931
  103OSM   C14F10486   1.434   3.115   9.149 -0.2877  0.8552 -0.1868
  103OSM   H14F10487   1.396   3.039   9.220  0.4087 -1.8911 -2.5686
  103OSM   H14G10488   1.507   3.066   9.080 -1.1909  1.9342 -1.9784
  103OSM   C15F10489   1.315   3.147   9.060 -0.5217 -0.1280 -0.5691
  103OSM   H15F10490   1.349   3.227   8.990  0.9560  1.0829  1.4154
  103OSM   H15G10491   1.235   3.194   9.121  0.4899  0.5427  0.2791
  103OSM   C16F10492   1.255   3.027   8.980 -0.3554 -0.2890  0.3909
  103OSM   H16F10493   1.224   2.950   9.054 -1.8394  0.2036  0.3296
  103OSM   H16G10494   1.335   2.978   8.920  1.2521  1.0202  1.3958
  103OSM   C17F10495   1.145   3.064   8.880 -0.1465 -0.3848  0.1670
  103OSM   H17F10496   1.188   3.143   8.814 -0.8179  0.9874  1.3155
  103OSM   H17G10497   1.053   3.100   8.930  0.7919  1.8155  0.4650
  103OSM   C18F10498   1.120   2.946   8.779 -0.5353 -0.9649 -0.6345
  103OSM   H18F10499   1.201   2.940   8.703  1.4024 -0.0716  1.2633
  103OSM   H18G10500   1.025   2.958   8.723 -0.9721  0.7037  0.4072
  103OSM   H18H10501   1.113   2.853   8.839 -1.3735 -0.5890 -0.1269
  104OSM      N10502   3.631   2.279  11.029  0.1257  0.5809  0.1223
  104OSM    C1510503   3.728   2.326  11.125 -0.2197 -0.1684 -0.8829
  104OSM   H15A10504   3.834   2.323  11.102  0.8316 -0.0703  3.1555
  104OSM   H15B10505   3.719   2.252  11.203  0.2300  0.5199 -0.1677
  104OSM   H15C10506   3.704   2.422  11.168 -0.3455  0.0910 -1.5188
  104OSM    C1410507   3.675   2.138  10.991  0.3131 -0.0218  0.0378
  104OSM   H14A10508   3.666   2.065  11.070  0.3274 -0.6074 -0.5002
  104OSM   H14B10509   3.778   2.132  10.959 -0.0121  0.8997 -1.2436
  104OSM   H14C10510   3.613   2.098  10.912 -0.7657 -1.3789  1.4871
  104OSM    C1310511   3.493   2.294  11.087 -0.0759 -0.2603  0.5857
  104OSM   H13A10512   3.490   2.219  11.165 -0.6523  0.8607  1.6859
  104OSM   H13B10513   3.417   2.296  11.010  1.0049 -0.2444 -0.5054
  104OSM   H13C10514   3.485   2.388  11.141 -1.5140 -0.6680  1.1388
  104OSM    C1210515   3.630   2.361  10.900  0.0478  0.2214 -0.6543
  104OSM   H12A10516   3.731   2.370  10.863  0.5204 -1.5788  0.0552
  104OSM   H12B10517   3.608   2.465  10.919 -0.6375 -0.3887  2.3953
  104OSM    C1110518   3.545   2.301  10.779  0.4141 -0.3334 -0.3053
  104OSM   H11A10519   3.580   2.198  10.758 -2.9080 -1.9693  1.5459
  104OSM   H11B10520   3.560   2.370  10.693 -0.1995 -1.2678 -1.1835
  104OSM      P10521   3.301   2.389  10.771  0.0723  0.1312 -0.5716
  104OSM    O1310522   3.166   2.362  10.835 -0.4331 -0.0631 -0.1048
  104OSM    O1410523   3.355   2.526  10.789 -0.0844  0.0179  0.8351
  104OSM    O1110524   3.302   2.353  10.617  0.6052  0.2120  0.5611
  104OSM    O1210525   3.411   2.290  10.819 -0.2434  0.4035  0.5026
  104OSM    C1S10526   3.249   2.230  10.573 -0.1289 -0.3542  1.1829
  104OSM    H1S10527   3.146   2.215  10.611  1.1939 -4.7844  3.7204
  104OSM    H1T10528   3.309   2.147  10.615  1.2281 -0.1964 -0.3211
  104OSM     NF10529   3.182   2.095  10.384  0.2201  0.3774 -0.3100
  104OSM    HNF10530   3.245   2.021  10.361  2.2751  1.5405  1.2624
  104OSM    C2S10531   3.247   2.216  10.416  0.7547  0.2401  0.4837
  104OSM    H2S10532   3.195   2.297  10.361  1.4323 -0.4578 -1.2530
  104OSM    C3S10533   3.393   2.216  10.371 -0.0491  0.0991  1.1718
  104OSM    H3S10534   3.433   2.117  10.400 -2.0506 -0.8498  0.8684
  104OSM     O310535   3.469   2.318  10.435  0.1876 -0.1960  0.2604
  104OSM    HO310536   3.404   2.331  10.505  0.6223  0.3251  0.5736
  104OSM    C4S10537   3.401   2.245  10.227  0.8460 -0.3181  0.4106
  104OSM    H4S10538   3.359   2.341  10.194  1.4098 -0.0737  0.3920
  104OSM    C5S10539   3.441   2.157  10.135  0.1105 -0.3378  0.5175
  104OSM    H5S10540   3.476   2.061  10.175  0.4975 -0.1265  0.6928
  104OSM    C6S10541   3.446   2.184   9.983  0.4719 -0.3284  0.2644
  104OSM    H6S10542   3.553   2.190   9.952 -0.0014  1.8991 -1.1630
  104OSM    H6T10543   3.403   2.282   9.955 -0.7824 -0.3840  1.8482
  104OSM    C7S10544   3.355   2.074   9.908 -0.0535 -1.2420  0.0462
  104OSM    H7S10545   3.257   2.090   9.957  0.2445  3.6624 -0.4322
  104OSM    H7T10546   3.404   1.978   9.936  1.1066 -0.8191 -0.4312
  104OSM    C8S10547   3.355   2.076   9.757 -0.8538 -0.4030  0.7301
  104OSM    H8S10548   3.326   2.175   9.714 -0.0626  0.4292  2.0643
  104OSM    H8T10549   3.292   1.992   9.719 -3.5871  1.4743  0.8041
  104OSM    C9S10550   3.498   2.075   9.703  0.4030 -0.6513  0.5850
  104OSM    H9S10551   3.555   1.991   9.747  0.3709  0.9814  4.0788
  104OSM    H9T10552   3.548   2.168   9.738  1.2581 -0.7302 -0.3744
  104OSM   C10S10553   3.515   2.064   9.547 -0.1600  0.3802  0.8172
  104OSM   H10S10554   3.624   2.046   9.532 -0.0607 -0.2547  2.1696
  104OSM   H10T10555   3.496   2.157   9.489  0.5311 -0.7076 -1.2521
  104OSM   C11S10556   3.437   1.949   9.488 -0.6254  0.9300  0.1113
  104OSM   H11S10557   3.329   1.975   9.487 -0.5569  1.2644  0.7046
  104OSM   H11T10558   3.451   1.859   9.551  2.4272  1.1094 -0.1763
  104OSM   C12S10559   3.484   1.892   9.353 -0.1526  0.0245  0.5710
  104OSM   H12S10560   3.409   1.813   9.334 -0.2449  0.7398 -2.7686
  104OSM   H12T10561   3.579   1.838   9.373 -0.8196 -0.4282  2.8038
  104OSM   C13S10562   3.494   2.004   9.250 -0.4812 -0.2692  0.7587
  104OSM   H13S10563   3.577   2.074   9.274 -0.4922 -0.1068  0.3353
  104OSM   H13T10564   3.397   2.056   9.264  0.0759  0.5974  1.4773
  104OSM   C14S10565   3.516   1.957   9.109  0.4729  0.2106 -0.0909
  104OSM   H14S10566   3.420   1.907   9.082  0.6135 -0.2652  0.2904
  104OSM   H14T10567   3.581   1.868   9.104 -1.4940 -1.6818  3.4438
  104OSM   C15S10568   3.535   2.074   9.011  0.3099 -0.0097 -0.0751
  104OSM   H15S10569   3.625   2.131   9.043 -0.1869  0.2620  0.8979
  104OSM   H15T10570   3.444   2.138   9.019 -0.5794 -1.1933 -0.3677
  104OSM   C16S10571   3.554   2.038   8.867  0.2721  0.2392  0.2107
  104OSM   H16S10572   3.582   2.126   8.805 -0.6605 -0.3688 -1.1182
  104OSM   H16T10573   3.464   1.990   8.823 -0.7102  1.9910  0.2397
  104OSM   C17S10574   3.666   1.935   8.834 -0.3604  0.0334  0.4630
  104OSM   H17S10575   3.640   1.835   8.875  1.3476 -0.7401 -0.2703
  104OSM   H17T10576   3.764   1.964   8.879  0.8833  1.1029 -2.6670
  104OSM   C18S10577   3.664   1.913   8.684  0.1366 -0.4121  0.5506
  104OSM   H18S10578   3.698   2.006   8.634  0.1394 -0.6100  0.1852
  104OSM   H18T10579   3.566   1.879   8.645  0.4537 -1.0991  0.3324
  104OSM   H18U10580   3.739   1.835   8.658 -1.1894 -1.4977 -0.1601
  104OSM    C1F10581   3.051   2.082  10.378 -0.2440 -0.4404 -0.0729
  104OSM     OF10582   2.974   2.178  10.410  0.3258 -0.1373 -0.0472
  104OSM    C2F10583   2.998   1.941  10.345 -0.1356 -0.5634 -0.4043
  104OSM    H2F10584   2.955   1.894  10.436  2.7228 -1.4920  0.5836
  104OSM    H2G10585   3.085   1.874  10.325  1.3760  0.5965  1.7989
  104OSM    C3F10586   2.894   1.921  10.229  0.7575  0.4026 -0.0468
  104OSM    H3F10587   2.796   1.970  10.244 -0.2701 -1.6101  0.1632
  104OSM    H3G10588   2.864   1.815  10.213  1.0150  0.4040 -0.5633
  104OSM    C4F10589   2.954   1.962  10.096 -0.3496 -0.3336  0.5305
  104OSM    H4F10590   3.051   1.909  10.083  0.5881  1.4337  0.0115
  104OSM    H4G10591   2.978   2.071  10.094 -1.7632 -0.0133 -0.9976
  104OSM    C5F10592   2.867   1.935   9.976 -0.1246  0.9839 -0.4189
  104OSM    H5F10593   2.765   1.949  10.017  0.5206  0.6322  1.4449
  104OSM    H5G10594   2.877   1.828   9.947 -1.1562  0.7464  0.0670
  104OSM    C6F10595   2.894   2.035   9.870 -0.4047  0.5274  0.1063
  104OSM    H6F10596   3.002   2.027   9.843 -0.6988 -3.0570 -0.5555
  104OSM    H6G10597   2.864   2.132   9.915  0.8196  0.9309  0.0964
  104OSM    C7F10598   2.818   2.017   9.738  0.2844  0.0021 -0.4345
  104OSM    H7F10599   2.709   2.032   9.754  0.5189  1.2529  0.1355
  104OSM    H7G10600   2.831   1.912   9.704 -0.0277  0.6643 -2.7632
  104OSM    C8F10601   2.870   2.109   9.624  0.2653 -0.6873  0.4981
  104OSM    H8F10602   2.857   2.216   9.653 -1.9824 -0.9534  0.7040
  104OSM    H8G10603   2.793   2.101   9.544  0.7349 -2.2383  0.1860
  104OSM    C9F10604   3.008   2.079   9.573 -0.2213 -0.1430  0.1861
  104OSM    H9F10605   3.090   2.064   9.645  0.2083  0.1014 -0.2514
  104OSM   C10F10606   3.034   2.061   9.444 -0.4541 -0.0804  1.1528
  104OSM   H10F10607   3.140   2.052   9.419 -1.0962 -0.9802 -1.6383
  104OSM   C11F10608   2.934   2.047   9.324  0.5031  0.0950 -0.1686
  104OSM   H11F10609   2.843   2.109   9.340  0.8578  0.3581  0.9013
  104OSM   H11G10610   2.908   1.939   9.315  2.9154 -0.5838  0.4298
  104OSM   C12F10611   3.002   2.085   9.195 -0.8609  0.3193  0.2231
  104OSM   H12F10612   3.100   2.037   9.178  0.8538  3.8150 -0.7001
  104OSM   H12G10613   3.030   2.192   9.187  0.2465 -0.0514 -1.3449
  104OSM   C13F10614   2.919   2.060   9.070 -0.1088  1.0536 -0.2415
  104OSM   H13F10615   2.833   2.126   9.090 -2.3867 -1.4055 -1.3377
  104OSM   H13G10616   2.895   1.951   9.069 -0.7979  1.2025 -0.0637
  104OSM   C14F10617   2.991   2.104   8.943  0.4792  0.4383 -0.9214
  104OSM   H14F10618   3.086   2.047   8.934 -0.4874 -1.7340  1.4382
  104OSM   H14G10619   3.009   2.211   8.966  1.9008 -0.2257  1.3942
  104OSM   C15F10620   2.908   2.083   8.819  0.2267  0.6148  0.3665
  104OSM   H15F10621   2.828   2.157   8.796  0.6701  1.0760  0.3020
  104OSM   H15G10622   2.850   1.989   8.835 -0.2257  0.6454 -0.9793
  104OSM   C16F10623   2.995   2.058   8.698  0.8093 -0.1648  0.7770
  104OSM   H16F10624   3.065   1.979   8.732 -0.5561 -1.0036  1.7150
  104OSM   H16G10625   3.046   2.156   8.685  0.8540 -0.4049 -1.1900
  104OSM   C17F10626   2.924   2.014   8.569 -0.5892 -0.1417  0.6123
  104OSM   H17F10627   2.997   1.997   8.488  0.4814  1.0958  1.2883
  104OSM   H17G10628   2.853   2.093   8.536 -1.5880 -2.1882 -2.6486
  104OSM   C18F10629   2.836   1.892   8.586  0.0361 -0.2695 -0.4186
  104OSM   H18F10630   2.826   1.845   8.486  0.7618  1.1911 -1.2163
  104OSM   H18G10631   2.733   1.912   8.622  0.1406 -0.4885  0.0067
  104OSM   H18H10632   2.882   1.815   8.651 -1.3622 -0.4493  0.3908
  105OSM      N10633   0.680   3.784  10.952 -0.3931 -0.2303 -0.3545
  105OSM    C1510634   0.579   3.895  10.940 -0.4448 -0.3490  0.0675
  105OSM   H15A10635   0.535   3.903  11.038 -0.4965 -2.0878  0.2153
  105OSM   H15B10636   0.513   3.872  10.858  1.0276  1.8323 -1.8419
  105OSM   H15C10637   0.614   3.994  10.915  2.1624 -0.7314  1.8119
  105OSM    C1410638   0.729   3.748  10.817 -0.8597 -0.2045 -0.1986
  105OSM   H14A10639   0.799   3.666  10.818  0.0317  0.5238 -0.5115
  105OSM   H14B10640   0.766   3.832  10.760  1.0300  0.3425  1.6801
  105OSM   H14C10641   0.648   3.704  10.762  0.0498 -0.1386 -1.6506
  105OSM    C1310642   0.788   3.832  11.041 -0.0594  0.6505 -0.1639
  105OSM   H13A10643   0.842   3.906  10.983 -0.4168 -0.9969 -2.7546
  105OSM   H13B10644   0.853   3.755  11.078  0.6236  2.1219  1.8571
  105OSM   H13C10645   0.739   3.875  11.127  0.3238  0.6578  0.0500
  105OSM    C1210646   0.616   3.661  11.021  0.4475 -0.5490 -1.0201
  105OSM   H12A10647   0.583   3.686  11.121  1.7042 -0.3427 -0.6368
  105OSM   H12B10648   0.688   3.583  11.039  1.7622  0.7367 -0.3953
  105OSM    C1110649   0.504   3.591  10.943  0.2233  0.0072 -0.0842
  105OSM   H11A10650   0.429   3.666  10.911  1.3688  0.6032 -1.4953
  105OSM   H11B10651   0.454   3.510  11.000  2.1894 -0.6765  0.7488
  105OSM      P10652   0.644   3.392  10.835  0.1061 -0.1595 -0.4451
  105OSM    O1310653   0.759   3.430  10.917  0.1567  0.2705  0.2066
  105OSM    O1410654   0.566   3.273  10.870 -0.0548  0.2656  0.7888
  105OSM    O1110655   0.686   3.368  10.683  0.3420  0.1498 -0.1304
  105OSM    O1210656   0.551   3.520  10.829  0.1837  0.2264  0.8511
  105OSM    C1S10657   0.724   3.488  10.607  0.8805 -1.1799 -0.5349
  105OSM    H1S10658   0.824   3.519  10.642  0.9883 -0.8247 -1.1342
  105OSM    H1T10659   0.659   3.577  10.619  0.6939 -1.6082  2.4953
  105OSM     NF10660   0.792   3.591  10.402 -0.3221  0.2649  0.1972
  105OSM    HNF10661   0.725   3.660  10.373 -1.0468 -0.5151 -0.0436
  105OSM    C2S10662   0.724   3.473  10.455 -0.5875 -0.5241 -0.5629
  105OSM    H2S10663   0.793   3.388  10.434  0.3241 -0.2844  1.3031
  105OSM    C3S10664   0.579   3.438  10.407 -0.4278  0.4385 -0.5742
  105OSM    H3S10665   0.500   3.512  10.434 -2.0722 -0.3245 -2.9547
  105OSM     O310666   0.524   3.305  10.456  0.2872 -0.9869 -0.1776
  105OSM    HO310667   0.580   3.279  10.530  0.9566 -0.6666 -0.5580
  105OSM    C4S10668   0.579   3.418  10.258 -0.1150  0.3782 -0.2035
  105OSM    H4S10669   0.648   3.335  10.234  1.5195  1.9048 -1.0006
  105OSM    C5S10670   0.512   3.492  10.171  0.0846  0.7646 -0.6725
  105OSM    H5S10671   0.450   3.573  10.213 -1.2701 -0.5826 -0.0188
  105OSM    C6S10672   0.501   3.474  10.027 -0.8939 -0.3052 -0.0518
  105OSM    H6S10673   0.400   3.482   9.981 -0.4442 -1.0725 -1.2009
  105OSM    H6T10674   0.540   3.376   9.994 -2.9295 -1.3013  0.3364
  105OSM    C7S10675   0.594   3.572   9.947 -0.0714  0.8247  0.7590
  105OSM    H7S10676   0.696   3.553   9.987  0.2349 -0.7686 -0.6775
  105OSM    H7T10677   0.573   3.679   9.968  0.5576  0.8874  1.1128
  105OSM    C8S10678   0.583   3.557   9.792  0.3717 -0.4531 -0.0473
  105OSM    H8S10679   0.475   3.548   9.769  0.3589  0.7076 -0.5641
  105OSM    H8T10680   0.622   3.459   9.757  0.0785 -1.1626  1.5313
  105OSM    C9S10681   0.644   3.676   9.721  0.6218  0.1352  0.4003
  105OSM    H9S10682   0.749   3.675   9.756  0.6753 -0.9522  0.2316
  105OSM    H9T10683   0.583   3.767   9.742 -1.6907 -0.0515 -4.0474
  105OSM   C10S10684   0.639   3.660   9.564 -0.3307 -0.0456  0.3194
  105OSM   H10S10685   0.532   3.664   9.535  0.2302  2.9903 -1.8531
  105OSM   H10T10686   0.679   3.560   9.541  0.4918  0.6196 -1.2370
  105OSM   C11S10687   0.715   3.774   9.493 -0.0873  0.8818 -0.2869
  105OSM   H11S10688   0.822   3.763   9.521 -0.1966 -1.4356 -0.5240
  105OSM   H11T10689   0.676   3.866   9.540 -0.0537  1.3183 -1.0940
  105OSM   C12S10690   0.691   3.764   9.342  0.1047  0.6698 -0.0316
  105OSM   H12S10691   0.582   3.785   9.336 -1.0509 -3.6869  1.6747
  105OSM   H12T10692   0.717   3.662   9.307  0.1682 -0.7094  3.6553
  105OSM   C13S10693   0.773   3.873   9.271  0.1967 -0.0150 -0.3011
  105OSM   H13S10694   0.881   3.867   9.297  0.0129  0.2555  0.5464
  105OSM   H13T10695   0.744   3.975   9.302  0.2388  0.2904 -1.2312
  105OSM   C14S10696   0.756   3.877   9.124  0.9919 -0.3182 -0.6601
  105OSM   H14S10697   0.798   3.780   9.090 -0.5583 -0.8828 -1.0339
  105OSM   H14T10698   0.810   3.965   9.080 -0.5225  1.2059  0.4030
  105OSM   C15S10699   0.615   3.888   9.065  0.4259 -0.9142  0.2132
  105OSM   H15S10700   0.567   3.977   9.111 -0.7125 -0.7879 -1.1469
  105OSM   H15T10701   0.546   3.805   9.092 -1.1415  0.1574 -0.3151
  105OSM   C16S10702   0.608   3.909   8.911  0.3177  0.2630  0.3452
  105OSM   H16S10703   0.685   3.985   8.882 -0.1123  0.5073 -0.1721
  105OSM   H16T10704   0.513   3.958   8.883  0.1982  1.4746  2.6225
  105OSM   C17S10705   0.646   3.780   8.830  0.9013 -0.0873 -0.0840
  105OSM   H17S10706   0.560   3.712   8.849  0.6261  0.9063  2.8047
  105OSM   H17T10707   0.732   3.728   8.876  0.1757 -0.7016  0.6008
  105OSM   C18S10708   0.679   3.812   8.687 -0.7389 -0.2189 -0.3762
  105OSM   H18S10709   0.587   3.854   8.640  0.1079  1.5011 -0.5448
  105OSM   H18T10710   0.701   3.720   8.629  1.5571  0.3129 -0.4175
  105OSM   H18U10711   0.773   3.869   8.686 -0.1877 -1.0250  1.3597
  105OSM    C1F10712   0.924   3.623  10.427  0.6550 -0.4370  0.4189
  105OSM     OF10713   1.008   3.540  10.449  0.3406 -0.0545  0.3183
  105OSM    C2F10714   0.940   3.778  10.422 -0.6154  0.0000  1.2253
  105OSM    H2F10715   0.963   3.823  10.521  0.9030  1.7016  0.1385
  105OSM    H2G10716   0.852   3.824  10.374  0.4125 -0.3331 -1.1155
  105OSM    C3F10717   1.061   3.824  10.333  0.3142 -0.3509  0.3224
  105OSM    H3F10718   1.057   3.748  10.252 -1.4827  0.8534 -0.7882
  105OSM    H3G10719   1.154   3.809  10.392 -0.1271  0.9240  1.3686
  105OSM    C4F10720   1.035   3.965  10.282  0.2742 -0.4197  0.5479
  105OSM    H4F10721   1.004   4.017  10.375  1.8764  0.0695  0.8551
  105OSM    H4G10722   0.952   3.965  10.209  0.7065 -1.9729  0.0168
  105OSM    C5F10723   1.161   4.021  10.211 -0.0240 -0.2989  0.0489
  105OSM    H5F10724   1.233   4.035  10.295 -0.7947 -2.2610  1.1039
  105OSM    H5G10725   1.129   4.121  10.175 -0.3250  1.1375  3.8100
  105OSM    C6F10726   1.220   3.938  10.095 -0.5237 -0.1579  0.0700
  105OSM    H6F10727   1.256   3.841  10.135  0.8986  0.5190  0.5067
  105OSM    H6G10728   1.313   3.981  10.051 -1.2480  1.4453  0.0522
  105OSM    C7F10729   1.132   3.911   9.979 -0.2288  0.3279 -0.4030
  105OSM    H7F10730   1.118   4.005   9.920  0.2401 -0.9141 -2.6176
  105OSM    H7G10731   1.044   3.846   9.999  0.2200 -0.2841 -0.4153
  105OSM    C8F10732   1.207   3.821   9.871 -0.1561 -0.0121 -0.3713
  105OSM    H8F10733   1.134   3.776   9.800  0.5144 -1.1801 -0.3440
  105OSM    H8G10734   1.254   3.747   9.939 -0.0649  0.2364 -0.1617
  105OSM    C9F10735   1.318   3.896   9.790 -0.9279  0.5266 -0.1245
  105OSM    H9F10736   1.414   3.881   9.842 -1.5559  0.8384  1.1665
  105OSM   C10F10737   1.308   3.967   9.675  0.2533 -0.0094 -0.0568
  105OSM   H10F10738   1.399   4.008   9.629 -0.8556 -1.0735 -3.4682
  105OSM   C11F10739   1.182   3.993   9.603  0.0203  0.1122  0.0040
  105OSM   H11F10740   1.171   4.103   9.588 -3.8068 -0.4742 -3.2634
  105OSM   H11G10741   1.094   3.953   9.657  0.8918 -0.8334  0.7703
  105OSM   C12F10742   1.185   3.933   9.461  0.1778  0.0200 -0.6357
  105OSM   H12F10743   1.083   3.916   9.419  0.0846 -0.5751 -0.1910
  105OSM   H12G10744   1.226   3.830   9.466  0.4198  0.1878  1.5379
  105OSM   C13F10745   1.260   4.021   9.363  0.2631 -0.4469 -0.1470
  105OSM   H13F10746   1.358   3.970   9.353 -0.5016 -2.0962  0.4197
  105OSM   H13G10747   1.284   4.122   9.403 -3.3521 -0.5756  2.8481
  105OSM   C14F10748   1.182   4.031   9.223 -0.0398 -0.4750 -0.0581
  105OSM   H14F10749   1.078   4.059   9.248 -0.9522 -2.7409 -1.0294
  105OSM   H14G10750   1.164   3.925   9.197 -1.4993 -1.0504  2.8377
  105OSM   C15F10751   1.248   4.118   9.111  0.6893  0.0964  0.2241
  105OSM   H15F10752   1.348   4.076   9.086  0.9235  0.0517  1.2077
  105OSM   H15G10753   1.281   4.213   9.158 -0.3434  0.5886 -0.0165
  105OSM   C16F10754   1.166   4.148   8.983 -0.3259 -0.0287 -0.2221
  105OSM   H16F10755   1.232   4.218   8.927  0.9208 -0.5767  0.5146
  105OSM   H16G10756   1.080   4.211   9.015 -2.7365 -2.7922 -0.8677
  105OSM   C17F10757   1.124   4.025   8.901 -0.9809 -0.5930 -0.1901
  105OSM   H17F10758   1.085   3.952   8.975  0.1355  0.3143  1.3275
  105OSM   H17G10759   1.213   3.997   8.840 -0.3232  0.0833  0.4373
  105OSM   C18F10760   1.010   4.065   8.800 -0.1510  0.2853  0.2555
  105OSM   H18F10761   1.002   3.995   8.714  1.6962  1.1583 -0.7087
  105OSM   H18G10762   1.025   4.164   8.751  1.2705  0.7952  1.6531
  105OSM   H18H10763   0.918   4.059   8.860 -0.5502 -1.4563 -0.4678
  106OSM      N10764   4.839   4.276  11.072 -0.3883 -0.2903 -0.3134
  106OSM    C1510765   4.744   4.190  11.147 -0.1346  0.9485  0.1486
  106OSM   H15A10766   4.657   4.180  11.085 -0.2939  1.6516  0.2508
  106OSM   H15B10767   4.711   4.239  11.238  0.4663 -0.1063  0.9585
  106OSM   H15C10768   4.785   4.092  11.165 -2.8076 -0.2655 -0.0038
  106OSM    C1410769   4.778   4.412  11.066 -0.1519 -0.1893 -0.0974
  106OSM   H14A10770   4.683   4.419  11.017 -1.1380  1.0801  1.8540
  106OSM   H14B10771   4.846   4.476  11.013  0.7232 -1.2468 -0.2981
  106OSM   H14C10772   4.766   4.439  11.170 -0.4166 -0.1715 -0.1333
  106OSM    C1310773   4.966   4.282  11.155  0.1009 -0.0034 -0.1817
  106OSM   H13A10774   5.048   4.317  11.095 -1.0430  0.7107 -1.3695
  106OSM   H13B10775   4.992   4.182  11.188 -0.7452 -1.0882 -2.5979
  106OSM   H13C10776   4.956   4.350  11.238  0.9425  0.8668 -0.7810
  106OSM    C1210777   4.865   4.232  10.938 -0.6653  0.5393  0.0456
  106OSM   H12A10778   4.777   4.199  10.886 -0.7913 -2.5031  1.9529
  106OSM   H12B10779   4.924   4.142  10.934  2.2457  2.1495  2.2863
  106OSM    C1110780   4.950   4.330  10.842  0.2912 -0.0495 -0.2453
  106OSM   H11A10781   4.884   4.412  10.809 -0.7960 -0.8443 -0.1040
  106OSM   H11B10782   4.979   4.271  10.752  0.0755  1.5960 -1.4356
  106OSM      P10783   5.213   4.321  10.888  0.4607 -0.1883 -0.2059
  106OSM    O1310784   5.313   4.422  10.917 -0.0012  0.0610  0.2775
  106OSM    O1410785   5.212   4.202  10.973  0.9009 -0.1120 -0.1398
  106OSM    O1110786   5.223   4.284  10.736 -0.4677 -0.2817  0.7937
  106OSM    O1210787   5.069   4.385  10.907 -0.4798 -0.1888  0.2763
  106OSM    C1S10788   5.235   4.378  10.626  0.3565  0.2415  0.0567
  106OSM    H1S10789   5.314   4.456  10.634  0.2146  0.4246 -0.3488
  106OSM    H1T10790   5.143   4.438  10.608 -0.0653  0.1260  1.6657
  106OSM     NF10791   5.291   4.391  10.389 -0.9548  0.1111  0.6504
  106OSM    HNF10792   5.224   4.413  10.318  0.9174  0.8172 -0.9942
  106OSM    C2S10793   5.265   4.300  10.496 -0.5010  0.3705 -0.7886
  106OSM    H2S10794   5.349   4.234  10.530 -1.6452  0.3446  2.3742
  106OSM    C3S10795   5.140   4.211  10.474  0.1895  0.6283  0.3682
  106OSM    H3S10796   5.058   4.277  10.439 -0.2657 -0.6110 -0.9819
  106OSM     O310797   5.093   4.135  10.589  0.6143  0.2204 -0.0437
  106OSM    HO310798   5.145   4.175  10.659  0.8404  0.8871 -0.5803
  106OSM    C4S10799   5.156   4.126  10.343 -0.3389 -1.1409 -0.6790
  106OSM    H4S10800   5.106   4.180  10.261 -0.1963 -2.2273 -1.5097
  106OSM    C5S10801   5.201   4.007  10.325  1.1172  0.9738  0.1184
  106OSM    H5S10802   5.236   3.959  10.418 -0.6275  1.6292  1.1561
  106OSM    C6S10803   5.216   3.935  10.193 -0.3073  0.6248 -0.1902
  106OSM    H6S10804   5.140   3.854  10.198  1.4391 -1.0714  3.9010
  106OSM    H6T10805   5.317   3.889  10.181 -0.3316  0.4510  0.2551
  106OSM    C7S10806   5.188   4.009  10.060 -0.3433 -0.3097  0.3367
  106OSM    H7S10807   5.253   4.099  10.046 -0.7765 -0.2054 -1.2519
  106OSM    H7T10808   5.080   4.033  10.062  0.1861  2.3561  1.2213
  106OSM    C8S10809   5.221   3.921   9.941  0.0407 -0.5054  0.1815
  106OSM    H8S10810   5.165   3.825   9.949  2.0989 -1.6610  1.8342
  106OSM    H8T10811   5.323   3.879   9.947 -1.0978 -3.2684  3.6553
  106OSM    C9S10812   5.195   3.997   9.807  0.5991 -0.2948  0.4093
  106OSM    H9S10813   5.276   4.073   9.814 -0.6054  1.2272 -1.2429
  106OSM    H9T10814   5.097   4.050   9.800  1.2632  0.7860 -1.5114
  106OSM   C10S10815   5.214   3.913   9.680 -1.0137  0.2605 -0.3290
  106OSM   H10S10816   5.129   3.842   9.684  0.0739 -1.1130 -0.8709
  106OSM   H10T10817   5.315   3.867   9.689 -1.7277 -1.2628  0.1401
  106OSM   C11S10818   5.206   4.003   9.556 -0.4136 -0.0088 -0.7364
  106OSM   H11S10819   5.292   4.072   9.544  0.7705 -0.8395  2.0936
  106OSM   H11T10820   5.116   4.067   9.549 -0.3003  0.0804 -1.5524
  106OSM   C12S10821   5.191   3.925   9.427  0.0620 -0.2821 -0.3981
  106OSM   H12S10822   5.119   3.841   9.438 -1.6864  0.7744 -2.9194
  106OSM   H12T10823   5.289   3.886   9.390  0.7599  1.1304 -0.1083
  106OSM   C13S10824   5.151   4.015   9.306  0.1471 -0.2666  0.1013
  106OSM   H13S10825   5.226   4.097   9.304  0.1146 -0.1483  1.7744
  106OSM   H13T10826   5.046   4.052   9.311 -0.1624 -0.8972 -1.2747
  106OSM   C14S10827   5.174   3.940   9.173 -0.0189  0.3194  0.5618
  106OSM   H14S10828   5.102   3.856   9.163 -1.3772  1.2735  1.8866
  106OSM   H14T10829   5.276   3.895   9.172 -0.5284 -0.8577  0.9619
  106OSM   C15S10830   5.145   4.033   9.049  0.1042 -0.2420  0.2277
  106OSM   H15S10831   5.231   4.030   8.978 -1.1519  1.6031 -1.4827
  106OSM   H15T10832   5.128   4.131   9.098  2.0313  0.1442  0.1808
  106OSM   C16S10833   5.017   4.010   8.959  0.3481  0.3265  0.6196
  106OSM   H16S10834   4.922   4.008   9.016  0.4768  2.0164  0.9493
  106OSM   H16T10835   5.029   3.905   8.925 -1.3285 -0.8424  3.3059
  106OSM   C17S10836   5.003   4.109   8.840  0.1405 -0.4764 -0.2117
  106OSM   H17S10837   5.106   4.135   8.808  0.5151 -1.1433  0.4133
  106OSM   H17T10838   4.960   4.206   8.872  2.8806  0.3873  1.1684
  106OSM   C18S10839   4.918   4.043   8.731  0.4159 -0.1726  0.6772
  106OSM   H18S10840   4.822   4.002   8.768 -0.3992 -0.4573 -1.6366
  106OSM   H18T10841   4.973   3.960   8.683  2.9697  1.8844 -0.2132
  106OSM   H18U10842   4.889   4.106   8.644  1.2074 -0.2224  0.3698
  106OSM    C1F10843   5.402   4.454  10.389  0.1925  0.0438 -0.1004
  106OSM     OF10844   5.494   4.422  10.461 -0.1484  0.1147 -0.2445
  106OSM    C2F10845   5.406   4.575  10.302 -0.9862 -0.5231 -0.1700
  106OSM    H2F10846   5.354   4.662  10.347 -0.4320 -0.2600 -0.0224
  106OSM    H2G10847   5.357   4.551  10.205  0.3237  0.4222 -1.0944
  106OSM    C3F10848   5.546   4.611  10.269  0.1154  0.0635  0.1495
  106OSM    H3F10849   5.602   4.527  10.221  0.1620  0.7158 -0.9765
  106OSM    H3G10850   5.595   4.641  10.364 -1.3194 -1.3680  1.4083
  106OSM    C4F10851   5.566   4.730  10.177  0.3852  0.0994 -0.3142
  106OSM    H4F10852   5.675   4.747  10.166  0.7711 -1.2029  1.1563
  106OSM    H4G10853   5.518   4.814  10.232 -2.8421 -2.0380  0.4459
  106OSM    C5F10854   5.493   4.727  10.039 -0.5343  0.8074 -0.0291
  106OSM    H5F10855   5.386   4.724  10.068 -0.5086 -0.4032 -0.0190
  106OSM    H5G10856   5.525   4.635   9.986  2.2181  2.5287 -1.6292
  106OSM    C6F10857   5.511   4.849   9.952 -0.0853  0.5041 -0.2531
  106OSM    H6F10858   5.618   4.866   9.925 -0.1663  4.7859  1.2361
  106OSM    H6G10859   5.490   4.939  10.015 -1.1934 -0.0066  0.1310
  106OSM    C7F10860   5.424   4.834   9.829  0.3490 -0.4357 -0.5522
  106OSM    H7F10861   5.324   4.795   9.859  1.9940 -3.7323  1.1492
  106OSM    H7G10862   5.470   4.758   9.762 -1.1293 -1.3085 -0.6317
  106OSM    C8F10863   5.401   4.973   9.767  0.0730  0.3822 -0.4297
  106OSM    H8F10864   5.367   5.039   9.849 -1.9039 -0.5848 -0.4048
  106OSM    H8G10865   5.321   4.953   9.693  1.7101  1.7302 -2.7122
  106OSM    C9F10866   5.535   5.016   9.707 -0.1864 -0.4210 -0.0622
  106OSM    H9F10867   5.623   5.020   9.773  0.7885  1.5227 -1.3996
  106OSM   C10F10868   5.550   5.054   9.582 -0.3250 -0.0699 -0.0402
  106OSM   H10F10869   5.646   5.087   9.539 -1.4181  1.4128 -1.4846
  106OSM   C11F10870   5.441   5.057   9.477 -0.3075 -0.6045 -0.6615
  106OSM   H11F10871   5.493   5.109   9.394 -3.1672  2.0841 -0.9576
  106OSM   H11G10872   5.356   5.120   9.510  1.8123  0.7742  2.6871
  106OSM   C12F10873   5.395   4.919   9.423 -0.5726  0.1798  0.4691
  106OSM   H12F10874   5.328   4.936   9.337 -1.0792 -1.9808  0.3844
  106OSM   H12G10875   5.335   4.879   9.507 -0.2550  1.4087  1.3163
  106OSM   C13F10876   5.512   4.827   9.385  0.3495 -0.0744 -0.4185
  106OSM   H13F10877   5.562   4.800   9.481 -1.7934  0.3627  0.8734
  106OSM   H13G10878   5.594   4.882   9.333  1.6737 -0.1488  1.4590
  106OSM   C14F10879   5.480   4.693   9.310  0.4605  0.1289 -0.6543
  106OSM   H14F10880   5.415   4.644   9.386  0.1128 -1.1642 -1.7482
  106OSM   H14G10881   5.572   4.631   9.308 -0.6829 -1.6434 -0.5050
  106OSM   C15F10882   5.441   4.709   9.156 -1.1089 -0.9490 -0.1237
  106OSM   H15F10883   5.363   4.788   9.151  1.8330  2.3476  1.1326
  106OSM   H15G10884   5.398   4.614   9.121 -1.0339 -1.4038  0.9704
  106OSM   C16F10885   5.550   4.749   9.049 -0.4860 -0.6105 -0.1931
  106OSM   H16F10886   5.615   4.661   9.027 -0.1768 -0.6529  0.8082
  106OSM   H16G10887   5.618   4.826   9.092 -0.3746 -1.3861  1.0772
  106OSM   C17F10888   5.488   4.808   8.917 -0.9811  0.1116 -0.0516
  106OSM   H17F10889   5.424   4.895   8.945 -0.0813  0.7332  0.1091
  106OSM   H17G10890   5.423   4.730   8.871 -0.0235 -0.9259  0.3179
  106OSM   C18F10891   5.599   4.846   8.816  0.5947 -0.1098  0.1320
  106OSM   H18F10892   5.550   4.913   8.742  1.0111  1.7453  1.4713
  106OSM   H18G10893   5.635   4.752   8.769  0.8937 -0.4479  1.0147
  106OSM   H18H10894   5.682   4.902   8.863  0.9891 -1.5780  1.2530
  107OSM      N10895   3.045   2.604  10.507  0.2293  0.4069 -0.6862
  107OSM    C1510896   2.984   2.462  10.511 -0.3114 -0.2674 -0.3303
  107OSM   H15A10897   2.890   2.458  10.564  0.5281 -0.1510  1.2312
  107OSM   H15B10898   3.053   2.406  10.573 -0.5726 -0.8615 -0.5707
  107OSM   H15C10899   2.969   2.406  10.420 -3.2829 -1.3065  0.6749
  107OSM    C1410900   3.068   2.656  10.649  0.6305  0.2633 -0.2517
  107OSM   H14A10901   2.975   2.685  10.697  0.4532  1.0046 -1.0306
  107OSM   H14B10902   3.137   2.739  10.643  0.3814  0.3995 -1.5569
  107OSM   H14C10903   3.122   2.585  10.710  0.9882  1.4175  0.8191
  107OSM    C1310904   3.174   2.605  10.428  0.1380  0.2779  0.1798
  107OSM   H13A10905   3.211   2.706  10.418  2.0515 -0.4570 -0.6634
  107OSM   H13B10906   3.152   2.579  10.326  0.3065  0.8628 -0.0114
  107OSM   H13C10907   3.243   2.528  10.460  0.3590  0.0587 -0.7804
  107OSM    C1210908   2.939   2.694  10.440 -0.9168  0.2464  0.1163
  107OSM   H12A10909   2.859   2.698  10.513 -2.3324 -3.0791 -1.0552
  107OSM   H12B10910   2.908   2.639  10.352 -0.6308 -0.8556  0.6823
  107OSM    C1110911   2.973   2.838  10.390  0.6521  0.2570 -0.2516
  107OSM   H11A10912   2.883   2.894  10.356  0.7552 -0.1789 -1.2870
  107OSM   H11B10913   3.022   2.826  10.291 -0.3283 -2.5642 -0.4924
  107OSM      P10914   2.964   2.995  10.595 -0.2055  0.0947  0.0683
  107OSM    O1310915   2.844   2.922  10.632 -0.2881  0.0940  0.6302
  107OSM    O1410916   3.047   3.027  10.712  0.6903 -0.3962  0.6258
  107OSM    O1110917   2.937   3.130  10.516 -1.0167 -0.4610 -0.2080
  107OSM    O1210918   3.051   2.916  10.481 -0.5409 -0.0921 -0.7942
  107OSM    C1S10919   3.032   3.197  10.422 -0.0395  0.2059 -0.5147
  107OSM    H1S10920   3.104   3.128  10.373  0.5366  1.6656 -1.7837
  107OSM    H1T10921   3.084   3.284  10.467 -2.0830  1.5470 -0.6408
  107OSM     NF10922   3.022   3.261  10.195 -1.1262 -0.1844  0.1936
  107OSM    HNF10923   3.066   3.350  10.186  0.7886 -0.6796  3.2006
  107OSM    C2S10924   2.940   3.250  10.311 -0.7231 -0.2556 -0.1765
  107OSM    H2S10925   2.863   3.172  10.295 -0.1986 -0.4524 -1.8911
  107OSM    C3S10926   2.874   3.380  10.356 -0.8119 -0.6279  0.1223
  107OSM    H3S10927   2.956   3.451  10.380 -1.8912  1.5013 -2.0655
  107OSM     O310928   2.803   3.373  10.476  0.1193 -0.3709 -0.7319
  107OSM    HO310929   2.833   3.286  10.503  0.5476 -0.4628 -1.4844
  107OSM    C4S10930   2.786   3.440  10.245  0.1904  0.3917  0.6935
  107OSM    H4S10931   2.721   3.365  10.198  0.1129 -1.2095  3.1490
  107OSM    C5S10932   2.779   3.560  10.195 -0.8083  0.3416  0.1903
  107OSM    H5S10933   2.847   3.633  10.243  0.8307 -0.1827 -1.2034
  107OSM    C6S10934   2.706   3.620  10.079 -1.2165  0.2338  0.2443
  107OSM    H6S10935   2.776   3.692  10.033 -0.1801  1.9960  4.1221
  107OSM    H6T10936   2.629   3.687  10.124 -2.4261  0.7753 -2.4090
  107OSM    C7S10937   2.643   3.535   9.973 -0.6475 -0.0779  0.2623
  107OSM    H7S10938   2.565   3.471  10.020 -1.9663  2.9115  2.4737
  107OSM    H7T10939   2.730   3.477   9.935  0.0615  0.6773  0.7169
  107OSM    C8S10940   2.572   3.626   9.869 -0.5429 -0.2403  1.0919
  107OSM    H8S10941   2.644   3.704   9.834  0.3970 -1.7621 -0.5433
  107OSM    H8T10942   2.487   3.671   9.925 -0.5031  1.8741 -0.4178
  107OSM    C9S10943   2.530   3.552   9.739 -0.0330 -0.0765 -0.3036
  107OSM    H9S10944   2.462   3.470   9.770 -0.3774  1.0197  2.0421
  107OSM    H9T10945   2.622   3.517   9.688  0.5808  1.5675 -0.4000
  107OSM   C10S10946   2.460   3.655   9.654 -0.4983  0.6284 -0.0698
  107OSM   H10S10947   2.520   3.748   9.652 -1.3288  1.1721 -0.4311
  107OSM   H10T10948   2.367   3.684   9.709 -0.7605 -1.4218  0.6374
  107OSM   C11S10949   2.421   3.606   9.509 -0.2448 -0.5246 -0.2490
  107OSM   H11S10950   2.355   3.684   9.465 -0.5210  0.2470  1.4260
  107OSM   H11T10951   2.366   3.509   9.514 -0.2436 -0.4990  0.3235
  107OSM   C12S10952   2.543   3.594   9.413 -0.1310 -1.2530 -1.3461
  107OSM   H12S10953   2.623   3.533   9.460  2.1042  1.9587 -0.6094
  107OSM   H12T10954   2.593   3.693   9.416  0.8934 -1.7884  0.2855
  107OSM   C13S10955   2.520   3.543   9.273  0.4173 -0.5344  1.0043
  107OSM   H13S10956   2.452   3.456   9.275 -1.5111  0.7795 -1.4395
  107OSM   H13T10957   2.620   3.514   9.233  0.4190  0.7485  0.0096
  107OSM   C14S10958   2.452   3.649   9.179 -0.8244  0.7523 -0.0721
  107OSM   H14S10959   2.509   3.745   9.179  0.5968 -0.0630  0.7977
  107OSM   H14T10960   2.351   3.672   9.219 -0.2104  1.1680  1.2790
  107OSM   C15S10961   2.428   3.601   9.033 -0.6480  0.2108 -0.7577
  107OSM   H15S10962   2.378   3.502   9.040  1.4151 -0.7696  1.3092
  107OSM   H15T10963   2.522   3.574   8.980  1.4347  0.3149  2.6278
  107OSM   C16S10964   2.350   3.706   8.954  0.2154  0.8787  0.1666
  107OSM   H16S10965   2.424   3.787   8.943  0.5828  0.3946 -1.1148
  107OSM   H16T10966   2.265   3.746   9.014 -2.6936  0.0314 -3.0793
  107OSM   C17S10967   2.286   3.663   8.821 -0.7316  0.7571 -0.1676
  107OSM   H17S10968   2.223   3.751   8.795 -1.7304  0.2588  0.5000
  107OSM   H17T10969   2.225   3.573   8.840  1.4806 -0.4967  1.5343
  107OSM   C18S10970   2.387   3.637   8.709 -0.3940 -0.2958  0.1357
  107OSM   H18S10971   2.337   3.660   8.612  0.1713  5.2546  0.7841
  107OSM   H18T10972   2.432   3.536   8.710  1.4369  0.4682 -0.4980
  107OSM   H18U10973   2.458   3.723   8.710 -3.2692  2.5636 -4.2273
  107OSM    C1F10974   3.078   3.173  10.117 -0.2763 -0.1306  0.1672
  107OSM     OF10975   3.074   3.054  10.144 -0.2800  0.3940 -0.3260
  107OSM    C2F10976   3.161   3.227  10.001  0.2435  0.0428  0.7337
  107OSM    H2F10977   3.180   3.335  10.015 -1.1246  0.2183  1.3736
  107OSM    H2G10978   3.108   3.198   9.907  2.2038 -1.4918  0.0365
  107OSM    C3F10979   3.300   3.158   9.985  0.3808  0.2863  0.0644
  107OSM    H3F10980   3.287   3.051   9.958  0.9419 -0.1133  1.2982
  107OSM    H3G10981   3.356   3.155  10.081 -1.7668  0.6661  1.4022
  107OSM    C4F10982   3.384   3.226   9.884  0.5271 -0.4317 -0.1826
  107OSM    H4F10983   3.493   3.208   9.897 -0.0397 -3.1309  1.5887
  107OSM    H4G10984   3.377   3.337   9.894 -2.4050 -0.6856  1.5122
  107OSM    C5F10985   3.342   3.199   9.740 -0.0943  0.3557 -0.5187
  107OSM    H5F10986   3.242   3.249   9.740 -0.2080  0.1751  1.2420
  107OSM    H5G10987   3.345   3.088   9.733  0.9728  0.3597 -0.2184
  107OSM    C6F10988   3.439   3.262   9.647 -0.2098  0.6068  0.2492
  107OSM    H6F10989   3.546   3.241   9.664 -0.3792  0.0325  0.6160
  107OSM    H6G10990   3.427   3.372   9.654  2.6506  0.8852  2.5829
  107OSM    C7F10991   3.420   3.234   9.495 -0.2342 -0.3016 -0.9178
  107OSM    H7F10992   3.426   3.124   9.484  1.9519 -0.2754 -0.3376
  107OSM    H7G10993   3.502   3.264   9.427  1.1374 -2.1223 -0.1264
  107OSM    C8F10994   3.279   3.275   9.438 -0.6883  0.9646 -0.6937
  107OSM    H8F10995   3.265   3.384   9.456  1.6139  1.0516  0.9332
  107OSM    H8G10996   3.216   3.217   9.508  0.4898 -0.6469 -0.9212
  107OSM    C9F10997   3.266   3.225   9.298 -0.0369  0.0765  0.2335
  107OSM    H9F10998   3.312   3.127   9.280 -1.4813 -0.6857  0.5392
  107OSM   C10F10999   3.217   3.287   9.190  1.1551  0.1278 -0.0461
  107OSM   H10F11000   3.215   3.229   9.097  1.7825 -2.4369  1.4491
  107OSM   C11F11001   3.142   3.427   9.190  0.2743  0.2754  0.7566
  107OSM   H11F11002   3.193   3.502   9.126  1.3719 -2.1766 -1.4195
  107OSM   H11G11003   3.120   3.460   9.294 -0.4645 -0.6118  0.8927
  107OSM   C12F11004   3.003   3.405   9.126  0.1010  0.5423 -0.6761
  107OSM   H12F11005   2.956   3.345   9.207  1.5890  1.7547  1.1747
  107OSM   H12G11006   3.012   3.347   9.032 -0.9054  1.0637 -1.1099
  107OSM   C13F11007   2.911   3.534   9.095  0.0912  0.1667  0.0313
  107OSM   H13F11008   2.978   3.612   9.054 -0.9401 -0.2474 -2.6558
  107OSM   H13G11009   2.872   3.561   9.196  0.2188 -0.9274  0.3931
  107OSM   C14F11010   2.794   3.517   8.995 -0.2272  0.1708 -0.4398
  107OSM   H14F11011   2.757   3.619   8.972  2.9998  1.9292  1.4305
  107OSM   H14G11012   2.708   3.459   9.033  0.0851 -0.9769 -1.4148
  107OSM   C15F11013   2.834   3.463   8.859  0.5372 -0.1993  0.1146
  107OSM   H15F11014   2.862   3.356   8.876  0.7195 -0.0875  0.5372
  107OSM   H15G11015   2.922   3.525   8.831  0.3024  0.8838  1.6419
  107OSM   C16F11016   2.716   3.468   8.756  0.1714 -0.4506 -0.3910
  107OSM   H16F11017   2.695   3.576   8.736  0.7652 -0.0303  1.0801
  107OSM   H16G11018   2.626   3.427   8.808 -1.3490  2.3554 -0.5649
  107OSM   C17F11019   2.730   3.387   8.635  0.0743 -0.2413 -0.0548
  107OSM   H17F11020   2.637   3.413   8.580 -0.1767  0.3311  0.6285
  107OSM   H17G11021   2.720   3.279   8.658 -0.9982 -0.0932  0.2094
  107OSM   C18F11022   2.847   3.414   8.538 -0.6368  0.1624  0.4538
  107OSM   H18F11023   2.943   3.364   8.562  1.0047  2.5755 -0.6789
  107OSM   H18G11024   2.868   3.523   8.537  2.5187 -0.3608 -0.2275
  107OSM   H18H11025   2.817   3.379   8.437 -3.1483  1.4785  0.6658
  108OSM      N11026   5.077   3.574  10.877  0.1385 -0.1622  0.1516
  108OSM    C1511027   5.199   3.658  10.896 -0.8232  0.1725  0.1503
  108OSM   H15A11028   5.202   3.713  10.989 -0.6672  0.6671 -0.1420
  108OSM   H15B11029   5.199   3.728  10.813 -2.7277 -0.8359 -0.7595
  108OSM   H15C11030   5.288   3.597  10.885 -0.1064  1.6891 -5.7407
  108OSM    C1411031   5.081   3.457  10.976 -0.1438 -0.0175  0.0898
  108OSM   H14A11032   4.982   3.414  10.985 -0.6659  1.3281  1.1295
  108OSM   H14B11033   5.105   3.484  11.078 -1.8106 -0.3272  0.6029
  108OSM   H14C11034   5.158   3.385  10.951  0.8212  1.1472 -0.3598
  108OSM    C1311035   4.967   3.669  10.928  0.1574  0.2731 -0.5533
  108OSM   H13A11036   4.944   3.748  10.857  1.7955 -0.5078 -2.0371
  108OSM   H13B11037   4.997   3.714  11.022  1.2464 -0.3963 -0.5638
  108OSM   H13C11038   4.878   3.609  10.930  0.3091  0.0732  0.5388
  108OSM    C1211039   5.059   3.519  10.738 -0.2927 -0.4735  0.2940
  108OSM   H12A11040   5.060   3.597  10.664 -2.0490  0.4750  1.2135
  108OSM   H12B11041   4.961   3.475  10.728 -0.2931 -0.2232 -0.9731
  108OSM    C1111042   5.165   3.416  10.694  0.7278 -0.2416  0.1604
  108OSM   H11A11043   5.267   3.441  10.731  1.0124  0.2959 -0.9493
  108OSM   H11B11044   5.166   3.415  10.583 -0.6071 -0.1820  0.1348
  108OSM      P11045   5.002   3.214  10.659  0.4323  0.2187  0.3808
  108OSM    O1311046   4.995   3.080  10.716  1.1127 -0.5412  0.5193
  108OSM    O1411047   4.874   3.294  10.667  0.1641  0.0288 -0.0425
  108OSM    O1111048   5.061   3.211  10.508  0.4281  0.3162  0.0334
  108OSM    O1211049   5.122   3.288  10.734 -0.0588  0.0408  0.5823
  108OSM    C1S11050   4.969   3.218  10.397  0.0707  0.2984 -0.2098
  108OSM    H1S11051   4.904   3.309  10.402 -0.7517 -0.2368 -0.8806
  108OSM    H1T11052   4.895   3.136  10.404 -0.0510  0.5098  1.5958
  108OSM     NF11053   4.944   3.251  10.153 -0.0953  0.4286  0.1227
  108OSM    HNF11054   4.868   3.198  10.117 -1.3409  2.1927  0.0261
  108OSM    C2S11055   5.035   3.205  10.258 -0.6623  0.0510  0.8029
  108OSM    H2S11056   5.121   3.275  10.261  0.3337 -1.1603  1.9605
  108OSM    C3S11057   5.103   3.067  10.234  0.0347  0.1932 -0.5051
  108OSM    H3S11058   5.021   2.995  10.250  0.7557 -1.0476 -2.1876
  108OSM     O311059   5.212   3.045  10.324 -0.0557  0.5475 -0.5661
  108OSM    HO311060   5.165   3.078  10.401  1.2650  0.0663  0.5028
  108OSM    C4S11061   5.154   3.059  10.094 -0.3932 -0.3837  0.0578
  108OSM    H4S11062   5.219   3.143  10.066 -1.3443  0.0222 -1.0655
  108OSM    C5S11063   5.126   2.968  10.004  0.4334  0.6357  0.1566
  108OSM    H5S11064   5.053   2.889  10.025  0.9636  0.0107 -0.2899
  108OSM    C6S11065   5.183   2.963   9.868  0.5728  0.4274 -0.4465
  108OSM    H6S11066   5.113   2.900   9.809 -1.5710  1.0465  1.3275
  108OSM    H6T11067   5.277   2.907   9.883  0.9195  1.4905  1.6964
  108OSM    C7S11068   5.199   3.086   9.789  0.4899  0.3978  0.0715
  108OSM    H7S11069   5.285   3.139   9.835  0.9955 -0.3215 -0.0375
  108OSM    H7T11070   5.114   3.158   9.793  1.1858  1.1938  0.9235
  108OSM    C8S11071   5.242   3.054   9.646 -0.2750  0.2368  0.9066
  108OSM    H8S11072   5.301   2.960   9.641 -0.5400 -0.0227  2.3905
  108OSM    H8T11073   5.310   3.139   9.623 -0.3358  0.3972  1.3204
  108OSM    C9S11074   5.131   3.060   9.548  0.1386 -0.0160  0.5151
  108OSM    H9S11075   5.082   3.159   9.548  0.2342  0.0324  0.3255
  108OSM    H9T11076   5.048   2.988   9.565 -0.3589 -0.3949 -2.8246
  108OSM   C10S11077   5.175   3.035   9.400 -0.2079 -0.4715  0.0473
  108OSM   H10S11078   5.090   2.980   9.353 -2.2584  0.6003  2.2842
  108OSM   H10T11079   5.268   2.974   9.398  1.7138  2.2858 -1.5887
  108OSM   C11S11080   5.194   3.163   9.313  0.5716  0.4336 -0.0708
  108OSM   H11S11081   5.265   3.234   9.361  1.5353 -0.5890  0.0657
  108OSM   H11T11082   5.097   3.215   9.303  0.2876  0.0630  0.6572
  108OSM   C12S11083   5.244   3.130   9.172 -0.5166  0.2751 -0.6003
  108OSM   H12S11084   5.170   3.064   9.120 -1.4029 -1.8614  3.0044
  108OSM   H12T11085   5.343   3.080   9.177 -0.8362 -0.3020  0.1166
  108OSM   C13S11086   5.272   3.256   9.085 -0.2074 -0.1772  0.0429
  108OSM   H13S11087   5.367   3.308   9.111  0.0144  1.2344 -3.1356
  108OSM   H13T11088   5.196   3.335   9.101  0.3131  0.3112  0.1554
  108OSM   C14S11089   5.279   3.230   8.939  0.2314  0.1706  0.3942
  108OSM   H14S11090   5.179   3.191   8.909  0.1834  0.1509  0.5822
  108OSM   H14T11091   5.345   3.149   8.902 -2.9032 -1.8192 -1.3546
  108OSM   C15S11092   5.298   3.351   8.853 -0.6212 -0.6496 -0.1180
  108OSM   H15S11093   5.398   3.391   8.881 -1.0418 -0.7835  1.6626
  108OSM   H15T11094   5.223   3.430   8.874  0.0594 -0.2337  0.8067
  108OSM   C16S11095   5.294   3.323   8.701  0.3639 -0.3427 -0.5052
  108OSM   H16S11096   5.191   3.295   8.671 -1.1826  1.5863  2.4274
  108OSM   H16T11097   5.356   3.236   8.671 -0.3602 -0.9850 -0.1891
  108OSM   C17S11098   5.335   3.446   8.623  0.1736  0.1557 -0.5657
  108OSM   H17S11099   5.443   3.459   8.642 -0.1383  0.8421  0.7973
  108OSM   H17T11100   5.277   3.530   8.665 -0.2876  1.2575 -3.1878
  108OSM   C18S11101   5.326   3.432   8.470  0.7730  1.4443  0.3881
  108OSM   H18S11102   5.404   3.355   8.448 -0.6966 -0.3490  1.2543
  108OSM   H18T11103   5.352   3.513   8.399  3.5410  0.9250  0.6841
  108OSM   H18U11104   5.227   3.392   8.440  1.3799 -0.6640  1.0423
  108OSM    C1F11105   4.940   3.383  10.132  0.4223  0.2471  0.4860
  108OSM     OF11106   4.988   3.465  10.209 -0.2889  0.1926  0.6527
  108OSM    C2F11107   4.844   3.425  10.016 -0.5725 -0.6924 -0.0640
  108OSM    H2F11108   4.840   3.535  10.026  2.3276 -0.6298  1.3665
  108OSM    H2G11109   4.744   3.378  10.034 -0.2433 -0.8553  1.5521
  108OSM    C3F11110   4.892   3.383   9.874  0.0666  0.2621 -0.0866
  108OSM    H3F11111   4.801   3.397   9.810  0.3120  1.6735 -0.1673
  108OSM    H3G11112   4.918   3.276   9.878 -1.3964 -0.0705  1.9599
  108OSM    C4F11113   4.990   3.483   9.820 -0.4619  0.2147  0.0976
  108OSM    H4F11114   5.081   3.482   9.884 -0.8128 -2.2803  0.6494
  108OSM    H4G11115   4.939   3.581   9.829  1.1235  1.1127 -0.3411
  108OSM    C5F11116   5.026   3.440   9.679  0.3098 -0.2460  0.3344
  108OSM    H5F11117   4.940   3.393   9.628  0.2670  1.5130 -1.3418
  108OSM    H5G11118   5.103   3.361   9.688  0.8269  0.1577 -0.4100
  108OSM    C6F11119   5.083   3.544   9.578  0.3896  1.3929  0.4388
  108OSM    H6F11120   5.168   3.596   9.628 -0.0210  0.7684  1.8410
  108OSM    H6G11121   5.005   3.623   9.571 -0.0463  0.9902  0.6987
  108OSM    C7F11122   5.099   3.477   9.447 -0.2529 -0.3185  0.0699
  108OSM    H7F11123   5.019   3.402   9.429 -1.8946  0.3216  3.8016
  108OSM    H7G11124   5.192   3.417   9.437  0.2226  0.5097 -0.5888
  108OSM    C8F11125   5.105   3.581   9.335  0.8336 -0.8983  0.3237
  108OSM    H8F11126   5.142   3.528   9.244 -1.7945  0.2790 -1.5379
  108OSM    H8G11127   5.179   3.660   9.360  0.0060  0.1390 -0.4636
  108OSM    C9F11128   4.977   3.643   9.292  0.3711 -0.0694 -0.0262
  108OSM    H9F11129   4.944   3.719   9.364  1.8949  1.3427 -0.7607
  108OSM   C10F11130   4.912   3.630   9.168  0.2486  0.1151 -0.4832
  108OSM   H10F11131   4.816   3.682   9.153  0.2244 -0.1931 -1.4640
  108OSM   C11F11132   4.952   3.543   9.052  0.0001 -0.1854 -0.2314
  108OSM   H11F11133   4.903   3.444   9.067 -1.7798  0.9245  1.8333
  108OSM   H11G11134   5.062   3.532   9.053  0.0717  0.5313  0.0086
  108OSM   C12F11135   4.907   3.598   8.916  0.2331  0.6238  0.5776
  108OSM   H12F11136   4.933   3.705   8.905  2.4695 -0.0020 -0.9588
  108OSM   H12G11137   4.797   3.581   8.909  0.3709  0.2255 -0.9154
  108OSM   C13F11138   4.961   3.511   8.805 -0.4367 -0.9315  0.1141
  108OSM   H13F11139   4.967   3.406   8.841 -0.2957 -1.1614 -0.5582
  108OSM   H13G11140   5.069   3.538   8.799 -0.2133 -1.1980  2.2770
  108OSM   C14F11141   4.887   3.529   8.677  0.0112 -0.1941 -0.3458
  108OSM   H14F11142   4.788   3.480   8.688 -0.7093  1.1283 -0.7964
  108OSM   H14G11143   4.955   3.492   8.597 -0.7704 -2.9622  0.1648
  108OSM   C15F11144   4.864   3.682   8.645  1.3515 -0.0356 -0.4836
  108OSM   H15F11145   4.964   3.727   8.629  0.3806  2.2926 -0.3316
  108OSM   H15G11146   4.823   3.741   8.729  1.4400 -0.2864 -0.2640
  108OSM   C16F11147   4.775   3.705   8.523 -0.0860  0.3200  0.4601
  108OSM   H16F11148   4.668   3.689   8.547  0.7798 -2.2657  3.1809
  108OSM   H16G11149   4.805   3.644   8.435 -1.7075 -0.7320  0.5896
  108OSM   C17F11150   4.778   3.855   8.485 -0.2659  0.4178 -0.3857
  108OSM   H17F11151   4.875   3.890   8.444 -1.2297  1.9860 -1.4173
  108OSM   H17G11152   4.754   3.907   8.581 -1.4017 -0.3719 -0.2197
  108OSM   C18F11153   4.670   3.886   8.380  0.0907  0.1157  0.5865
  108OSM   H18F11154   4.687   3.826   8.287 -0.4865 -0.4181  0.8164
  108OSM   H18G11155   4.668   3.995   8.358  2.8512  0.6445  2.5844
  108OSM   H18H11156   4.571   3.860   8.422  1.0139 -1.7265  1.7356
  109OSM      N11157   4.307   1.305  11.195 -0.5273  0.1720 -0.1131
  109OSM    C1511158   4.327   1.430  11.278 -0.3123 -0.0499  0.4609
  109OSM   H15A11159   4.305   1.519  11.221  1.4878 -0.5207 -1.0356
  109OSM   H15B11160   4.419   1.429  11.334  0.4639  0.1703 -0.7778
  109OSM   H15C11161   4.254   1.430  11.358 -1.8230  0.3762 -0.8639
  109OSM    C1411162   4.413   1.292  11.083  0.2020  0.5018 -0.1416
  109OSM   H14A11163   4.508   1.287  11.135  0.1644 -0.4232 -0.1593
  109OSM   H14B11164   4.404   1.376  11.015 -3.9491  1.7013  1.5939
  109OSM   H14C11165   4.405   1.206  11.019  3.4128  0.4547 -0.6751
  109OSM    C1311166   4.342   1.183  11.279  0.5333 -0.2572 -0.1315
  109OSM   H13A11167   4.441   1.190  11.321  0.1138 -1.0379  1.0368
  109OSM   H13B11168   4.324   1.100  11.212 -0.9403  0.5967 -0.8385
  109OSM   H13C11169   4.271   1.182  11.361 -0.6059  0.6175 -1.0690
  109OSM    C1211170   4.167   1.307  11.140  0.2012 -0.2056  0.1604
  109OSM   H12A11171   4.098   1.345  11.214  0.6930  0.5851  0.2273
  109OSM   H12B11172   4.133   1.208  11.114 -0.1617 -0.2351  0.7467
  109OSM    C1111173   4.131   1.395  11.022  0.3255  0.5203 -0.0397
  109OSM   H11A11174   4.196   1.361  10.939  0.1865 -1.5355  0.6294
  109OSM   H11B11175   4.173   1.494  11.050  2.4639 -0.4575  0.3465
  109OSM      P11176   3.925   1.524  10.933 -0.0809 -0.1688  0.0595
  109OSM    O1311177   3.775   1.505  10.923 -0.3498 -0.6028  0.0923
  109OSM    O1411178   3.972   1.645  11.003  0.0362 -0.3975  0.4429
  109OSM    O1111179   3.986   1.541  10.791  0.6951  0.7614  0.2464
  109OSM    O1211180   3.990   1.399  10.999  0.5930  0.1729 -0.6157
  109OSM    C1S11181   3.963   1.438  10.690 -0.6292  0.3421 -0.8081
  109OSM    H1S11182   3.855   1.441  10.665 -0.4538 -1.2865 -1.9646
  109OSM    H1T11183   3.990   1.333  10.714 -0.8239  0.4386 -0.1492
  109OSM     NF11184   3.992   1.406  10.442  0.4624  0.1047  0.4176
  109OSM    HNF11185   4.066   1.346  10.411 -0.6294 -2.2116  1.9526
  109OSM    C2S11186   4.028   1.485  10.560  0.2526 -0.6207  0.2885
  109OSM    H2S11187   4.007   1.592  10.538  2.3485  0.0285  1.1710
  109OSM    C3S11188   4.184   1.491  10.588 -0.2902  0.9738 -0.6156
  109OSM    H3S11189   4.205   1.387  10.620 -2.8082  1.1030  1.8467
  109OSM     O311190   4.221   1.582  10.692  0.1779 -0.5723 -0.3409
  109OSM    HO311191   4.137   1.582  10.739 -0.5194  0.3107 -1.5095
  109OSM    C4S11192   4.260   1.526  10.460 -0.4318 -0.1857 -0.9730
  109OSM    H4S11193   4.343   1.461  10.428  1.1269  0.1541  2.0010
  109OSM    C5S11194   4.250   1.649  10.406  0.6994 -0.1092  1.2232
  109OSM    H5S11195   4.181   1.724  10.447  0.4297  2.1781 -2.8352
  109OSM    C6S11196   4.343   1.687  10.291  0.0315  0.6628  0.6616
  109OSM    H6S11197   4.428   1.617  10.275  1.1061  1.7598  1.4233
  109OSM    H6T11198   4.387   1.782  10.327  1.7686 -1.1208  3.6133
  109OSM    C7S11199   4.266   1.730  10.165  0.1794  0.8909  0.7491
  109OSM    H7S11200   4.186   1.801  10.196 -1.5098 -1.6224  2.5349
  109OSM    H7T11201   4.213   1.643  10.121  1.4907  0.5452 -0.2249
  109OSM    C8S11202   4.352   1.791  10.054  0.1930  0.9471  0.0279
  109OSM    H8S11203   4.421   1.718  10.007  0.1112  1.1254 -0.3815
  109OSM    H8T11204   4.411   1.876  10.093  3.9510 -1.8755  1.0343
  109OSM    C9S11205   4.280   1.838   9.927 -0.0987 -0.2590 -0.1711
  109OSM    H9S11206   4.213   1.919   9.963  0.9835  1.1559 -1.2391
  109OSM    H9T11207   4.209   1.759   9.892  0.6048 -0.9262 -0.1265
  109OSM   C10S11208   4.377   1.879   9.818  0.0196 -0.8899 -0.5471
  109OSM   H10S11209   4.449   1.795   9.804 -0.5680 -1.7864  1.3836
  109OSM   H10T11210   4.440   1.962   9.857  1.7130 -1.6357 -1.5677
  109OSM   C11S11211   4.298   1.929   9.697 -0.9612 -0.7006 -0.1333
  109OSM   H11S11212   4.247   2.023   9.724 -0.2046 -0.1333 -0.6145
  109OSM   H11T11213   4.217   1.857   9.670 -1.7843  0.6603 -1.4418
  109OSM   C12S11214   4.389   1.953   9.581  0.0005  0.2191  0.8477
  109OSM   H12S11215   4.450   1.863   9.555 -0.6308  0.5178 -1.9819
  109OSM   H12T11216   4.455   2.040   9.598 -0.6910  1.5893 -2.5708
  109OSM   C13S11217   4.321   1.970   9.442 -0.1469  0.0146 -0.1816
  109OSM   H13S11218   4.247   2.052   9.455 -1.0058 -0.8445  0.5341
  109OSM   H13T11219   4.261   1.878   9.426 -0.1749 -0.2033  1.0572
  109OSM   C14S11220   4.424   1.985   9.329  0.5521  0.1031  0.5546
  109OSM   H14S11221   4.517   1.928   9.348  0.3623 -0.0987  0.8865
  109OSM   H14T11222   4.468   2.087   9.334 -0.5775  0.6100  0.3915
  109OSM   C15S11223   4.363   1.981   9.188  0.3324 -0.3554  0.0474
  109OSM   H15S11224   4.276   2.050   9.180  0.8819  0.4782  0.9701
  109OSM   H15T11225   4.333   1.875   9.180 -0.6394 -0.1168  0.3382
  109OSM   C16S11226   4.445   1.989   9.062  0.0601 -1.7596  0.3303
  109OSM   H16S11227   4.536   1.927   9.076  1.0150 -0.1569  1.5470
  109OSM   H16T11228   4.485   2.092   9.048  1.0141 -2.3019 -1.2401
  109OSM   C17S11229   4.375   1.964   8.926 -1.1533 -0.2220 -0.8042
  109OSM   H17S11230   4.443   1.991   8.843 -3.0562  1.1607 -1.9832
  109OSM   H17T11231   4.290   2.035   8.921  1.0425  2.6952  0.3919
  109OSM   C18S11232   4.344   1.811   8.909 -0.4005 -0.1705  0.5504
  109OSM   H18S11233   4.254   1.768   8.957 -1.6279 -0.6922 -2.0243
  109OSM   H18T11234   4.434   1.752   8.938  0.9749  0.5462 -1.9067
  109OSM   H18U11235   4.344   1.791   8.799 -0.0409  1.8494  0.1496
  109OSM    C1F11236   3.882   1.421  10.381  0.4447 -0.1334 -1.0388
  109OSM     OF11237   3.793   1.483  10.440 -0.0278 -0.4699 -0.5866
  109OSM    C2F11238   3.868   1.348  10.251  0.3992 -0.0494  0.0128
  109OSM    H2F11239   3.862   1.239  10.273 -0.0549  0.2253  1.3061
  109OSM    H2G11240   3.954   1.365  10.184 -1.8131 -1.8888 -3.6627
  109OSM    C3F11241   3.741   1.388  10.178  0.2811 -0.4481 -0.9497
  109OSM    H3F11242   3.748   1.495  10.146  1.7203  0.2701  1.5020
  109OSM    H3G11243   3.662   1.365  10.252  0.9223  0.7077  0.1367
  109OSM    C4F11244   3.721   1.287  10.064  0.0039 -0.5317 -0.3101
  109OSM    H4F11245   3.746   1.183  10.094  1.0327 -0.1108  0.3483
  109OSM    H4G11246   3.791   1.314   9.982 -2.1584  2.2819 -1.3618
  109OSM    C5F11247   3.587   1.298   9.993  0.5405  0.4748 -0.9178
  109OSM    H5F11248   3.507   1.277  10.068  0.5313 -1.3136 -1.3748
  109OSM    H5G11249   3.572   1.217   9.918 -0.1736  1.0627 -1.4199
  109OSM    C6F11250   3.572   1.441   9.926  0.0013 -0.0151  0.4612
  109OSM    H6F11251   3.658   1.465   9.861 -0.4214 -1.7429 -0.7999
  109OSM    H6G11252   3.567   1.523  10.002 -1.5318 -0.5156  0.9403
  109OSM    C7F11253   3.456   1.458   9.832 -0.2681 -0.3801  0.8104
  109OSM    H7F11254   3.363   1.429   9.886 -0.7288 -0.0281  0.2183
  109OSM    H7G11255   3.480   1.385   9.752 -1.4899  0.8193 -0.7158
  109OSM    C8F11256   3.460   1.601   9.752 -0.3583  1.5004 -0.7151
  109OSM    H8F11257   3.563   1.638   9.730 -0.2278  1.1628 -0.6651
  109OSM    H8G11258   3.403   1.670   9.818 -0.9253  1.3736 -1.0588
  109OSM    C9F11259   3.380   1.585   9.627 -0.1471  0.3502  0.3724
  109OSM    H9F11260   3.271   1.588   9.641 -0.3214 -1.8230 -0.1246
  109OSM   C10F11261   3.437   1.564   9.508  0.0416  0.4453 -0.0823
  109OSM   H10F11262   3.382   1.558   9.413  2.3208 -0.3828 -1.4376
  109OSM   C11F11263   3.583   1.568   9.481 -0.3358  0.4400 -0.3359
  109OSM   H11F11264   3.644   1.526   9.564  0.4592 -0.1222 -1.1730
  109OSM   H11G11265   3.621   1.672   9.478  2.6379 -0.4112  2.6532
  109OSM   C12F11266   3.632   1.496   9.350 -0.0187 -0.3736  0.0530
  109OSM   H12F11267   3.631   1.385   9.361  3.7546 -0.5902 -0.2797
  109OSM   H12G11268   3.739   1.523   9.335  0.2055 -1.6439 -0.8177
  109OSM   C13F11269   3.550   1.540   9.230 -0.0890 -0.5691  0.5378
  109OSM   H13F11270   3.538   1.651   9.226  1.4605 -0.3984 -1.4087
  109OSM   H13G11271   3.451   1.493   9.245 -0.4545 -0.7323 -1.8685
  109OSM   C14F11272   3.623   1.490   9.097  0.3666  0.0883  0.1924
  109OSM   H14F11273   3.632   1.380   9.110  1.0092  0.1067 -0.0517
  109OSM   H14G11274   3.723   1.535   9.077  0.6346 -0.3661  0.4815
  109OSM   C15F11275   3.523   1.527   8.985 -0.2499  0.1433  0.9573
  109OSM   H15F11276   3.507   1.634   8.960  3.0760 -0.0182 -3.0934
  109OSM   H15G11277   3.422   1.486   9.006  0.4102 -1.8145  0.4871
  109OSM   C16F11278   3.555   1.460   8.846  0.0117 -0.7343  0.9579
  109OSM   H16F11279   3.528   1.353   8.859  0.4425 -0.6684  2.6207
  109OSM   H16G11280   3.666   1.464   8.835 -0.1748  1.3895 -0.6911
  109OSM   C17F11281   3.497   1.534   8.729 -0.2974 -0.8677 -0.6927
  109OSM   H17F11282   3.553   1.511   8.636  0.5234 -0.3267 -0.3483
  109OSM   H17G11283   3.513   1.642   8.749  0.8407 -1.0197 -0.7357
  109OSM   C18F11284   3.353   1.520   8.708  0.4244  0.6012 -0.2625
  109OSM   H18F11285   3.342   1.414   8.676  1.2111  0.0823  1.1037
  109OSM   H18G11286   3.325   1.586   8.623 -0.1667  0.5155 -0.1399
  109OSM   H18H11287   3.289   1.544   8.796 -0.5541 -2.4309 -0.0409
  110OSM      N11288   2.448   6.255  11.121  0.7542  0.5096  0.2621
  110OSM    C1511289   2.350   6.367  11.117 -0.1180  0.0934  0.8416
  110OSM   H15A11290   2.375   6.442  11.191 -0.4774 -0.6639  1.7550
  110OSM   H15B11291   2.258   6.322  11.152 -0.3198  0.1239  0.3539
  110OSM   H15C11292   2.340   6.410  11.019 -2.0581 -0.8688  0.5783
  110OSM    C1411293   2.453   6.195  11.256  0.6581  0.4952 -0.5660
  110OSM   H14A11294   2.532   6.123  11.271  0.0968  0.3971  2.5722
  110OSM   H14B11295   2.357   6.156  11.286  0.4297  1.5619  0.1367
  110OSM   H14C11296   2.479   6.266  11.333 -2.3992  0.1013  0.9720
  110OSM    C1311297   2.411   6.142  11.016  0.4629  0.0881 -0.0256
  110OSM   H13A11298   2.416   6.192  10.920  0.9913 -1.3541 -0.7767
  110OSM   H13B11299   2.310   6.107  11.030  0.4331  0.7516  1.7079
  110OSM   H13C11300   2.476   6.058  11.035  0.5097  0.6349  2.5500
  110OSM    C1211301   2.585   6.316  11.090 -0.5459  0.8642 -0.3426
  110OSM   H12A11302   2.661   6.250  11.128 -0.8104  1.1289  0.6757
  110OSM   H12B11303   2.591   6.401  11.156 -1.0004 -0.3092  1.2737
  110OSM    C1111304   2.617   6.351  10.938 -0.1902 -0.3288  0.4834
  110OSM   H11A11305   2.604   6.256  10.882 -1.4265 -0.2090  0.5592
  110OSM   H11B11306   2.724   6.375  10.916  0.5460 -1.7023  2.2631
  110OSM      P11307   2.548   6.597  10.915  0.5178  0.7811 -0.0902
  110OSM    O1311308   2.418   6.667  10.921 -0.1640 -0.2122  0.3143
  110OSM    O1411309   2.637   6.610  11.029  0.2628  0.1250 -0.6353
  110OSM    O1111310   2.617   6.646  10.781 -0.0657  0.4259 -0.5536
  110OSM    O1211311   2.524   6.444  10.882  0.1625 -0.3008  0.1744
  110OSM    C1S11312   2.589   6.580  10.659 -0.5863 -0.5017  0.6040
  110OSM    H1S11313   2.483   6.550  10.641 -0.3786 -0.5033 -0.7595
  110OSM    H1T11314   2.655   6.491  10.647  2.6877  1.8226 -0.1494
  110OSM     NF11315   2.626   6.579  10.418 -0.1295  0.4640 -0.2654
  110OSM    HNF11316   2.701   6.573  10.352 -0.5944 -0.6686 -0.7178
  110OSM    C2S11317   2.629   6.662  10.529  0.3010 -1.2901  0.6310
  110OSM    H2S11318   2.555   6.744  10.517 -0.8543 -2.2406  0.9850
  110OSM    C3S11319   2.769   6.731  10.540  0.4091  0.1653 -0.8274
  110OSM    H3S11320   2.838   6.644  10.549  0.7827  0.5146 -0.2678
  110OSM     O311321   2.804   6.808  10.661 -0.3376  0.5909 -0.6116
  110OSM    HO311322   2.731   6.795  10.722  0.3024 -1.6216 -0.2152
  110OSM    C4S11323   2.802   6.804  10.421  0.5998  0.3715  0.2575
  110OSM    H4S11324   2.853   6.742  10.345 -0.0853  0.9370 -0.6756
  110OSM    C5S11325   2.792   6.934  10.387  0.5479 -0.6954  0.0751
  110OSM    H5S11326   2.753   7.006  10.460 -1.4957  0.3287 -1.9123
  110OSM    C6S11327   2.847   6.978  10.243  0.4846  0.3529  0.4388
  110OSM    H6S11328   2.947   6.932  10.228 -0.2150 -0.8038 -0.9274
  110OSM    H6T11329   2.860   7.089  10.244  0.4046  0.3707 -0.0372
  110OSM    C7S11330   2.756   6.931  10.125 -0.1660  0.1337  0.3161
  110OSM    H7S11331   2.650   6.964  10.134 -0.7001 -0.7929 -1.8693
  110OSM    H7T11332   2.749   6.820  10.129  1.5313 -0.0511 -0.9486
  110OSM    C8S11333   2.815   6.964   9.983  0.0672 -0.0895  0.3242
  110OSM    H8S11334   2.909   6.905   9.974  0.3059  0.3785 -0.3791
  110OSM    H8T11335   2.827   7.074   9.975  0.4192 -0.1763 -0.4169
  110OSM    C9S11336   2.721   6.913   9.878 -0.1081  0.0176 -0.1885
  110OSM    H9S11337   2.617   6.951   9.889  0.4533  1.8119 -0.8344
  110OSM    H9T11338   2.702   6.805   9.900  0.1676  0.0913  0.4371
  110OSM   C10S11339   2.773   6.944   9.736 -0.3200 -0.0932 -0.4676
  110OSM   H10S11340   2.877   6.903   9.745 -0.5550 -0.2752  3.6877
  110OSM   H10T11341   2.779   7.050   9.703  0.5173  0.1947  0.5428
  110OSM   C11S11342   2.682   6.872   9.637 -0.1240 -0.0235 -0.3338
  110OSM   H11S11343   2.583   6.921   9.647  1.0410  2.0001  2.8422
  110OSM   H11T11344   2.672   6.764   9.660  0.9856  0.0596  0.6316
  110OSM   C12S11345   2.726   6.895   9.496  0.1344  0.0247  0.6647
  110OSM   H12S11346   2.824   6.846   9.477  0.2666  0.7119 -0.5205
  110OSM   H12T11347   2.742   7.004   9.481  0.9139 -0.1073  0.4704
  110OSM   C13S11348   2.628   6.839   9.398  0.6918 -0.3747  0.6191
  110OSM   H13S11349   2.541   6.908   9.392  0.1579 -1.1421 -1.5071
  110OSM   H13T11350   2.594   6.737   9.428 -0.0506 -0.0729  0.8338
  110OSM   C14S11351   2.680   6.829   9.252  0.1125  0.2611 -0.1660
  110OSM   H14S11352   2.707   6.932   9.220  1.1402  0.7205  2.0143
  110OSM   H14T11353   2.596   6.782   9.198 -0.8619 -0.4256  1.8766
  110OSM   C15S11354   2.803   6.737   9.247 -0.7249 -0.5304  0.2572
  110OSM   H15S11355   2.796   6.657   9.324 -0.8016 -0.0964  0.7065
  110OSM   H15T11356   2.893   6.800   9.264 -0.7464 -0.6143  0.6903
  110OSM   C16S11357   2.842   6.670   9.109  0.4368 -0.1239  0.0573
  110OSM   H16S11358   2.870   6.759   9.048  0.1404  2.3532  3.2829
  110OSM   H16T11359   2.753   6.617   9.069  2.5519 -3.3866 -0.6992
  110OSM   C17S11360   2.959   6.577   9.105 -0.9048 -0.1367 -0.2970
  110OSM   H17S11361   2.972   6.529   9.005  2.1197  2.2009 -1.1840
  110OSM   H17T11362   2.939   6.504   9.186  2.0403 -1.5857 -0.7316
  110OSM   C18S11363   3.088   6.655   9.134  0.7781 -0.0400  0.3108
  110OSM   H18S11364   3.117   6.730   9.056  1.4050 -0.4480  0.1426
  110OSM   H18T11365   3.178   6.590   9.139  0.2946 -0.6617  1.1634
  110OSM   H18U11366   3.075   6.709   9.230  1.1234  1.3602 -0.3954
  110OSM    C1F11367   2.519   6.505  10.377 -1.0275 -0.4677  0.0865
  110OSM     OF11368   2.412   6.536  10.410 -0.3959 -0.0438 -0.1064
  110OSM    C2F11369   2.540   6.397  10.282  0.1799  0.0119  0.5482
  110OSM    H2F11370   2.639   6.351  10.304  0.8653  0.0644 -2.1123
  110OSM    H2G11371   2.536   6.436  10.178  1.4465 -0.3561  0.3447
  110OSM    C3F11372   2.429   6.291  10.290 -0.5149 -0.2140 -0.1846
  110OSM    H3F11373   2.333   6.338  10.260 -0.6567 -0.5834 -0.3120
  110OSM    H3G11374   2.415   6.249  10.392 -0.4634  0.0047 -0.0864
  110OSM    C4F11375   2.449   6.176  10.190  0.5237 -0.6151  0.4721
  110OSM    H4F11376   2.369   6.105  10.221 -2.2176  1.7249 -0.7991
  110OSM    H4G11377   2.543   6.125  10.220  1.6190  1.7158  1.1936
  110OSM    C5F11378   2.446   6.211  10.036  0.1296  0.3554 -0.2829
  110OSM    H5F11379   2.551   6.202  10.001  0.8874  1.2280  1.6800
  110OSM    H5G11380   2.398   6.307  10.007 -0.7952 -0.6542 -2.3546
  110OSM    C6F11381   2.375   6.101   9.960 -0.2786 -0.2576  0.8473
  110OSM    H6F11382   2.267   6.108   9.986 -0.3101 -0.6707  0.8342
  110OSM    H6G11383   2.401   5.997   9.988  1.2479 -0.5999 -1.5377
  110OSM    C7F11384   2.383   6.122   9.804  1.0275  0.1936  0.2392
  110OSM    H7F11385   2.475   6.075   9.763  0.4323 -0.1287 -0.7782
  110OSM    H7G11386   2.389   6.232   9.789 -0.4052  0.3930  0.9869
  110OSM    C8F11387   2.253   6.084   9.729 -0.3424  0.4291  0.0987
  110OSM    H8F11388   2.256   6.114   9.622  0.3367 -0.1404 -0.0512
  110OSM    H8G11389   2.169   6.132   9.784 -2.1741 -3.4127  1.0380
  110OSM    C9F11390   2.226   5.934   9.732  0.4329 -0.0993  0.2403
  110OSM    H9F11391   2.159   5.889   9.807  0.2579 -1.0098 -0.4382
  110OSM   C10F11392   2.274   5.851   9.638 -0.4632 -0.0636 -0.7575
  110OSM   H10F11393   2.264   5.742   9.649  0.0981  0.0565  1.2080
  110OSM   C11F11394   2.366   5.882   9.526 -0.4030  0.6730  0.2542
  110OSM   H11F11395   2.471   5.863   9.555  0.0074  2.5291  0.1608
  110OSM   H11G11396   2.376   5.986   9.487 -1.3043  0.1076 -1.6427
  110OSM   C12F11397   2.326   5.798   9.399  0.3825  0.0715  0.3734
  110OSM   H12F11398   2.227   5.840   9.372  1.3662  1.1418 -1.8365
  110OSM   H12G11399   2.325   5.688   9.414 -0.5222  0.0171 -0.0185
  110OSM   C13F11400   2.432   5.818   9.287  0.1914 -0.7016 -0.3071
  110OSM   H13F11401   2.536   5.790   9.316  1.1666  0.3465 -2.5231
  110OSM   H13G11402   2.431   5.926   9.261 -0.0254  0.0009  2.3668
  110OSM   C14F11403   2.411   5.725   9.168  0.2289  0.2345 -0.8812
  110OSM   H14F11404   2.315   5.753   9.119 -1.0340 -1.7037  0.3552
  110OSM   H14G11405   2.398   5.622   9.207 -0.5345  0.6944  0.1240
  110OSM   C15F11406   2.529   5.734   9.070 -0.1841  0.2084 -0.3999
  110OSM   H15F11407   2.626   5.701   9.113 -0.8690  0.5649  1.5188
  110OSM   H15G11408   2.546   5.840   9.042  0.3297  0.7237  1.7010
  110OSM   C16F11409   2.493   5.646   8.946 -0.0140 -0.4197  0.1011
  110OSM   H16F11410   2.410   5.688   8.885 -1.9387 -0.7619  2.3753
  110OSM   H16G11411   2.471   5.543   8.980  0.2902 -0.7283 -0.6206
  110OSM   C17F11412   2.611   5.626   8.852  0.7475  0.4770  0.1201
  110OSM   H17F11413   2.684   5.562   8.906  0.0844  1.4680  2.2659
  110OSM   H17G11414   2.663   5.722   8.832  2.6868 -0.9353 -2.2481
  110OSM   C18F11415   2.590   5.566   8.715 -0.1917 -0.5614 -0.9003
  110OSM   H18F11416   2.526   5.475   8.718  0.0973 -0.7690 -0.9633
  110OSM   H18G11417   2.684   5.550   8.659  0.5208  1.6653 -0.4520
  110OSM   H18H11418   2.537   5.643   8.654  0.8172 -0.5871 -1.8556
  111OSM      N11419   5.144   4.773  10.905 -0.0037  0.0093 -1.1011
  111OSM    C1511420   5.152   4.917  10.912  0.4814 -0.7159 -0.8113
  111OSM   H15A11421   5.245   4.957  10.951  0.8317 -0.4102 -1.9155
  111OSM   H15B11422   5.076   4.948  10.983  1.8528  0.1026  0.3642
  111OSM   H15C11423   5.125   4.959  10.816  0.5693  2.5852  0.4683
  111OSM    C1411424   5.180   4.709  11.039 -0.2828  0.5053  1.0087
  111OSM   H14A11425   5.171   4.602  11.026 -1.0985  0.8340 -1.7350
  111OSM   H14B11426   5.113   4.746  11.115 -0.0018  0.3226  1.3451
  111OSM   H14C11427   5.283   4.730  11.064 -0.1086  2.1055 -0.7832
  111OSM    C1311428   5.007   4.734  10.877 -0.3359 -0.0410 -0.0375
  111OSM   H13A11429   5.002   4.626  10.868  2.2243 -0.3576  1.1901
  111OSM   H13B11430   4.980   4.772  10.780  3.4968 -0.5349 -1.4832
  111OSM   H13C11431   4.946   4.764  10.961 -0.4612  0.2548 -0.2379
  111OSM    C1211432   5.250   4.719  10.816 -0.4665 -0.9211  1.0139
  111OSM   H12A11433   5.246   4.611  10.814  0.7648 -0.9799 -0.4076
  111OSM   H12B11434   5.348   4.747  10.850 -0.8136  0.0434  1.2570
  111OSM    C1111435   5.248   4.753  10.663 -0.2106  0.3665 -0.6536
  111OSM   H11A11436   5.161   4.708  10.611 -1.3879  1.2010  0.5264
  111OSM   H11B11437   5.344   4.712  10.626  0.6000  0.1389  1.5227
  111OSM      P11438   5.376   4.980  10.610  0.0191  0.3573  0.2903
  111OSM    O1311439   5.367   5.112  10.667 -0.1131 -0.0058  0.0281
  111OSM    O1411440   5.496   4.900  10.646 -0.3246  0.1650  0.2093
  111OSM    O1111441   5.353   4.983  10.459  0.3084 -0.0492  0.2186
  111OSM    O1211442   5.246   4.898  10.638 -0.2363 -0.1710  0.1449
  111OSM    C1S11443   5.381   5.096  10.373 -0.3296 -0.1340  0.1956
  111OSM    H1S11444   5.488   5.126  10.385 -0.5789  0.1450  1.8961
  111OSM    H1T11445   5.329   5.188  10.405 -0.6807 -0.4092  0.4199
  111OSM     NF11446   5.361   5.205  10.159 -0.1745 -0.1716  0.1792
  111OSM    HNF11447   5.282   5.261  10.135 -0.2320  0.9965  2.8074
  111OSM    C2S11448   5.345   5.076  10.231  0.2671  0.5517  0.0635
  111OSM    H2S11449   5.411   4.997  10.190  1.6103  1.1634  0.9855
  111OSM    C3S11450   5.198   5.020  10.217 -0.0754  0.6380  0.3574
  111OSM    H3S11451   5.130   5.092  10.266  2.3249  2.9194  0.5285
  111OSM     O311452   5.175   4.896  10.288 -0.3518  0.4610  0.1777
  111OSM    HO311453   5.246   4.901  10.352 -0.2613 -0.4017  0.1523
  111OSM    C4S11454   5.162   4.996  10.070  0.5883 -0.1359 -0.0388
  111OSM    H4S11455   5.239   4.937  10.019  1.7577  1.7763 -0.5489
  111OSM    C5S11456   5.060   5.048   9.997  0.4668 -0.8006 -0.1740
  111OSM    H5S11457   4.988   5.117  10.043 -0.4587 -0.9706 -1.3229
  111OSM    C6S11458   5.024   5.034   9.851  0.0635 -0.2218  0.3480
  111OSM    H6S11459   4.917   5.013   9.828  0.1369  1.4691 -1.9107
  111OSM    H6T11460   5.076   4.939   9.823 -0.8763 -0.8971  0.8638
  111OSM    C7S11461   5.069   5.156   9.765 -0.2638  0.4825 -0.5380
  111OSM    H7S11462   5.172   5.185   9.796 -0.2886  0.9573 -0.8935
  111OSM    H7T11463   4.998   5.239   9.781  1.3968  1.8377  0.1557
  111OSM    C8S11464   5.073   5.118   9.612 -0.4519 -0.2473 -0.9104
  111OSM    H8S11465   4.966   5.104   9.586 -0.7329 -0.6953  0.4291
  111OSM    H8T11466   5.134   5.027   9.591  1.4274  0.9556 -0.9174
  111OSM    C9S11467   5.110   5.241   9.522 -0.4125  0.9706 -0.0932
  111OSM    H9S11468   5.213   5.276   9.541 -0.6929  1.3710  0.7374
  111OSM    H9T11469   5.042   5.325   9.551  0.8149  1.2503  2.2015
  111OSM   C10S11470   5.096   5.204   9.375  0.3816  0.8013 -0.2303
  111OSM   H10S11471   5.011   5.136   9.351  2.4127 -1.6881 -0.8474
  111OSM   H10T11472   5.178   5.130   9.363  0.7049  0.5069  2.9594
  111OSM   C11S11473   5.104   5.329   9.290 -0.2161  0.2579 -0.2195
  111OSM   H11S11474   5.059   5.416   9.342  1.7766  1.6269 -0.6722
  111OSM   H11T11475   5.048   5.318   9.194 -2.0754  0.6363  0.7786
  111OSM   C12S11476   5.249   5.362   9.269  0.2940  0.3836 -0.1589
  111OSM   H12S11477   5.300   5.359   9.368 -0.7538  0.4665  0.4010
  111OSM   H12T11478   5.249   5.468   9.235 -1.2321  0.1316 -1.0007
  111OSM   C13S11479   5.314   5.277   9.164  0.3592  0.0239  0.1033
  111OSM   H13S11480   5.255   5.288   9.071  0.7322 -1.8110 -0.3754
  111OSM   H13T11481   5.318   5.173   9.202  1.6526  0.4593  1.2405
  111OSM   C14S11482   5.452   5.335   9.141 -0.2710 -0.9502  1.0595
  111OSM   H14S11483   5.520   5.318   9.227  1.4514 -0.6269 -0.1943
  111OSM   H14T11484   5.446   5.441   9.109 -2.7225 -1.4409 -0.3523
  111OSM   C15S11485   5.526   5.274   9.013 -0.2264  1.0639  0.1661
  111OSM   H15S11486   5.456   5.283   8.927  1.2287 -0.1221 -1.2188
  111OSM   H15T11487   5.542   5.165   9.027  1.2646  1.2556  0.1234
  111OSM   C16S11488   5.665   5.335   8.988  0.0807  0.4979  0.6058
  111OSM   H16S11489   5.732   5.267   9.044  0.3014 -0.1205 -0.3716
  111OSM   H16T11490   5.663   5.429   9.047 -1.6595  0.4085  0.7516
  111OSM   C17S11491   5.698   5.354   8.837  0.3017  0.0135 -0.2059
  111OSM   H17S11492   5.634   5.439   8.807 -0.6271 -0.1668  1.1440
  111OSM   H17T11493   5.673   5.254   8.794  0.9433 -0.6948  1.0070
  111OSM   C18S11494   5.851   5.403   8.826  0.6375  0.3643  0.2021
  111OSM   H18S11495   5.882   5.410   8.719  1.4713 -0.5767  0.3717
  111OSM   H18T11496   5.918   5.319   8.852  0.1277 -0.7179 -1.7035
  111OSM   H18U11497   5.886   5.490   8.885 -2.0065  3.3210 -2.1882
  111OSM    C1F11498   5.481   5.259  10.134  0.2572  0.6529 -0.3866
  111OSM     OF11499   5.583   5.214  10.189 -0.0771  0.4904 -0.0837
  111OSM    C2F11500   5.481   5.377  10.044 -0.0744 -0.1683  0.1421
  111OSM    H2F11501   5.503   5.461  10.114 -0.6218  1.9171 -2.0407
  111OSM    H2G11502   5.386   5.384   9.986 -0.3884 -0.9609  0.5555
  111OSM    C3F11503   5.601   5.371   9.942 -0.2869 -1.0213  0.4349
  111OSM    H3F11504   5.604   5.268   9.900 -0.0989 -0.5184 -0.8429
  111OSM    H3G11505   5.699   5.376   9.993  0.2601 -1.1721 -0.5715
  111OSM    C4F11506   5.588   5.468   9.829  0.0490 -0.3646  0.5382
  111OSM    H4F11507   5.623   5.569   9.861  1.9350  0.1527 -2.7106
  111OSM    H4G11508   5.491   5.466   9.776  1.5811  0.1384 -2.5128
  111OSM    C5F11509   5.683   5.432   9.709  0.3204  0.4529 -0.9371
  111OSM    H5F11510   5.658   5.336   9.659  0.8570 -0.5105  0.5772
  111OSM    H5G11511   5.783   5.408   9.753  0.8751 -0.9558 -2.8383
  111OSM    C6F11512   5.708   5.537   9.606 -0.2117 -0.7978 -0.0139
  111OSM    H6F11513   5.772   5.617   9.649  0.3761 -1.5468  0.5527
  111OSM    H6G11514   5.606   5.574   9.583  0.0460  0.7444  1.1646
  111OSM    C7F11515   5.781   5.489   9.475 -0.9418  0.2282 -0.4143
  111OSM    H7F11516   5.713   5.426   9.414  0.4662 -2.6912  0.8148
  111OSM    H7G11517   5.859   5.421   9.515 -0.7791  0.7192  0.1202
  111OSM    C8F11518   5.847   5.588   9.383 -0.0222  0.6979  0.2004
  111OSM    H8F11519   5.902   5.531   9.305  0.5196 -2.6006  2.7545
  111OSM    H8G11520   5.915   5.630   9.459 -0.4440  2.5259 -0.3808
  111OSM    C9F11521   5.757   5.694   9.314  0.7124 -0.2694 -0.2818
  111OSM    H9F11522   5.662   5.724   9.360  0.9577  1.1175 -0.6376
  111OSM   C10F11523   5.762   5.730   9.187  0.2063  0.0257  0.2318
  111OSM   H10F11524   5.698   5.814   9.154  1.2518 -0.1326 -2.3718
  111OSM   C11F11525   5.858   5.677   9.084 -0.5299 -0.1878 -0.1139
  111OSM   H11F11526   5.794   5.638   9.002 -3.4109  1.0061  1.4247
  111OSM   H11G11527   5.919   5.592   9.120 -0.3999  0.3438  0.9789
  111OSM   C12F11528   5.952   5.795   9.035  0.4624  0.7226 -0.3921
  111OSM   H12F11529   6.007   5.848   9.115 -0.3120  3.5322 -1.6102
  111OSM   H12G11530   5.887   5.871   8.987 -1.1817 -1.6915 -2.2483
  111OSM   C13F11531   6.057   5.744   8.935 -0.0889 -0.4819  0.5956
  111OSM   H13F11532   5.993   5.711   8.851  1.6508  1.5190 -1.6351
  111OSM   H13G11533   6.117   5.654   8.962  1.5490  0.4147  0.0512
  111OSM   C14F11534   6.145   5.858   8.871 -0.3786 -1.1394 -0.0975
  111OSM   H14F11535   6.180   5.910   8.963 -0.0141 -0.3533 -0.6731
  111OSM   H14G11536   6.086   5.922   8.802  0.5950 -0.3976 -0.2686
  111OSM   C15F11537   6.264   5.804   8.791 -0.6344  0.0239  0.4736
  111OSM   H15F11538   6.326   5.741   8.859 -0.3238 -0.2918 -0.0930
  111OSM   H15G11539   6.324   5.890   8.758 -1.9513  0.8299  0.0895
  111OSM   C16F11540   6.229   5.719   8.671 -0.7273  0.2131 -0.2891
  111OSM   H16F11541   6.147   5.645   8.684 -0.9111  0.2353 -1.2181
  111OSM   H16G11542   6.323   5.660   8.665 -0.4623  0.4472  1.2952
  111OSM   C17F11543   6.203   5.798   8.547  0.0207 -0.0319 -0.1326
  111OSM   H17F11544   6.103   5.844   8.553  0.0827  0.4145 -1.8795
  111OSM   H17G11545   6.201   5.719   8.468 -0.1210 -1.1530  0.9710
  111OSM   C18F11546   6.306   5.905   8.505 -0.2446 -0.0022  0.1744
  111OSM   H18F11547   6.410   5.872   8.526  0.3508 -0.9440 -3.6230
  111OSM   H18G11548   6.303   5.990   8.577  1.3143 -2.4801  3.4283
  111OSM   H18H11549   6.285   5.938   8.401 -2.0115 -0.2546  0.4179
  112OSM      N11550   3.273   1.880  11.168 -0.0386 -0.5396 -0.0848
  112OSM    C1511551   3.155   1.794  11.149 -0.9043 -0.0085 -0.1276
  112OSM   H15A11552   3.121   1.734  11.232 -1.5953 -1.0950 -1.1483
  112OSM   H15B11553   3.180   1.722  11.072 -0.3180  1.8668 -1.7866
  112OSM   H15C11554   3.070   1.847  11.107 -1.3066 -0.9284 -0.5096
  112OSM    C1411555   3.245   1.971  11.284  0.2659  0.4715 -0.5566
  112OSM   H14A11556   3.210   1.923  11.374 -0.5897  0.7692 -0.7228
  112OSM   H14B11557   3.163   2.034  11.253 -0.0404  0.0022 -0.7236
  112OSM   H14C11558   3.337   2.025  11.301  0.8945 -0.5708 -0.5731
  112OSM    C1311559   3.388   1.789  11.211  0.1854  0.3254  0.6086
  112OSM   H13A11560   3.357   1.712  11.280 -0.1153 -0.6873 -0.5998
  112OSM   H13B11561   3.465   1.849  11.255  0.2883  1.1033 -0.5940
  112OSM   H13C11562   3.437   1.731  11.134  1.7287 -0.5430  2.1968
  112OSM    C1211563   3.316   1.944  11.042 -0.3329 -0.0622 -0.5835
  112OSM   H12A11564   3.353   1.872  10.971 -0.4224  0.9528 -1.6924
  112OSM   H12B11565   3.397   2.011  11.068 -0.4424  0.3868 -1.3731
  112OSM    C1111566   3.213   2.032  10.972  0.1362 -0.7476  0.3033
  112OSM   H11A11567   3.255   2.099  10.894  1.5453 -1.8030  0.1128
  112OSM   H11B11568   3.175   2.103  11.049  0.4056 -0.3378  0.0632
  112OSM      P11569   3.096   1.921  10.760 -0.0734 -0.2598  0.0706
  112OSM    O1311570   3.044   1.784  10.758 -0.0062  0.5224  0.0421
  112OSM    O1411571   3.011   2.023  10.695 -0.1995 -0.3223 -0.1766
  112OSM    O1111572   3.243   1.926  10.711  0.1734  0.2067 -0.0427
  112OSM    O1211573   3.102   1.960  10.913  0.5714  0.0220 -0.3063
  112OSM    C1S11574   3.277   1.821  10.616 -0.2583 -0.4216  0.8111
  112OSM    H1S11575   3.205   1.831  10.532  0.0834  3.9585  0.8574
  112OSM    H1T11576   3.277   1.719  10.660  1.5006 -0.3386  1.0805
  112OSM     NF11577   3.446   1.761  10.439  0.4376  0.1396  0.0742
  112OSM    HNF11578   3.499   1.682  10.467  0.1403 -0.8123 -1.8563
  112OSM    C2S11579   3.417   1.847  10.560  0.3873 -0.4261  0.4693
  112OSM    H2S11580   3.426   1.950  10.522  1.5389 -0.4343  0.6642
  112OSM    C3S11581   3.523   1.835  10.668  0.0582  0.1873 -1.0790
  112OSM    H3S11582   3.532   1.729  10.701 -1.6681  0.8958  2.0079
  112OSM     O311583   3.500   1.905  10.792 -0.1518  0.1565 -0.5003
  112OSM    HO311584   3.410   1.933  10.774  0.1472  0.5527 -1.4654
  112OSM    C4S11585   3.660   1.877  10.619  0.7678 -0.2435 -0.2540
  112OSM    H4S11586   3.660   1.984  10.593  2.2083  0.1137  1.1277
  112OSM    C5S11587   3.767   1.798  10.590 -0.5050 -1.2196  0.4152
  112OSM    H5S11588   3.768   1.688  10.592 -2.3600 -1.2635  0.5312
  112OSM    C6S11589   3.890   1.847  10.523 -0.7868  0.1971  0.4519
  112OSM    H6S11590   3.978   1.790  10.561  0.2921  0.7879 -1.0366
  112OSM    H6T11591   3.902   1.956  10.536 -1.1241  0.2943 -0.0144
  112OSM    C7S11592   3.903   1.827  10.365 -0.2165  0.3038  0.3074
  112OSM    H7S11593   3.876   1.722  10.339  0.5528  0.6922 -2.2910
  112OSM    H7T11594   4.008   1.836  10.329 -0.7650 -2.1554 -2.2535
  112OSM    C8S11595   3.804   1.918  10.285  0.5751  0.1088 -0.5110
  112OSM    H8S11596   3.835   2.025  10.290 -1.8079  0.7968  0.6036
  112OSM    H8T11597   3.713   1.913  10.347 -0.2075 -1.0776 -1.7025
  112OSM    C9S11598   3.769   1.869  10.142  0.0951  0.0940 -0.6015
  112OSM    H9S11599   3.666   1.906  10.120 -0.4750 -1.6690 -1.0370
  112OSM    H9T11600   3.760   1.759  10.128 -2.5945  0.4289 -2.3711
  112OSM   C10S11601   3.867   1.939  10.040  0.4011 -0.6052 -0.8502
  112OSM   H10S11602   3.968   1.916  10.081  0.3285  1.0813  0.3988
  112OSM   H10T11603   3.850   2.048  10.047 -2.4371 -1.0505  0.6273
  112OSM   C11S11604   3.827   1.891   9.903 -0.6718 -0.1682 -0.1938
  112OSM   H11S11605   3.724   1.924   9.878  0.8030  2.8610 -3.0714
  112OSM   H11T11606   3.824   1.780   9.911  0.7071 -0.0776  2.6521
  112OSM   C12S11607   3.925   1.948   9.801  0.1256  0.1810  0.0154
  112OSM   H12S11608   4.029   1.913   9.817 -0.0756 -0.4273  0.0509
  112OSM   H12T11609   3.926   2.059   9.801  2.0988  0.2082  1.5471
  112OSM   C13S11610   3.871   1.905   9.663  0.3953 -0.6016  0.2869
  112OSM   H13S11611   3.769   1.943   9.643  0.0657 -1.7818 -0.3162
  112OSM   H13T11612   3.865   1.796   9.649 -3.7009 -0.2507 -2.1061
  112OSM   C14S11613   3.963   1.960   9.553  0.3738  0.0438  0.8244
  112OSM   H14S11614   4.050   1.890   9.550  1.7664  1.6694  1.6679
  112OSM   H14T11615   4.006   2.059   9.578  0.7667  0.7148 -2.1385
  112OSM   C15S11616   3.898   1.951   9.418  0.2763  0.0238  0.1358
  112OSM   H15S11617   3.806   2.012   9.421  1.0841  1.2664  0.1128
  112OSM   H15T11618   3.859   1.848   9.404  2.0921 -0.7345  0.3548
  112OSM   C16S11619   3.977   1.990   9.296  0.2313  0.0688  0.3618
  112OSM   H16S11620   4.069   1.928   9.286 -0.7350 -1.1433 -1.4842
  112OSM   H16T11621   3.999   2.098   9.309  3.5630 -0.4527 -0.0483
  112OSM   C17S11622   3.900   1.966   9.169  0.1983 -0.1234 -0.1443
  112OSM   H17S11623   3.800   2.013   9.161 -0.5744 -1.6805  0.0125
  112OSM   H17T11624   3.877   1.857   9.169 -1.1992  0.1504 -0.7915
  112OSM   C18S11625   3.987   2.018   9.051  0.1842  0.7613 -0.3424
  112OSM   H18S11626   4.088   1.973   9.049 -0.1066 -0.2109  2.3299
  112OSM   H18T11627   3.996   2.128   9.069  0.8984  0.2550  3.2077
  112OSM   H18U11628   3.933   1.989   8.959 -2.6424 -0.6075  1.5861
  112OSM    C1F11629   3.389   1.773  10.322  0.0475 -0.0305 -0.7036
  112OSM     OF11630   3.331   1.877  10.294 -0.1895 -0.2796 -0.3718
  112OSM    C2F11631   3.413   1.661  10.227  0.3971 -0.5840 -0.2561
  112OSM    H2F11632   3.437   1.564  10.275  0.6952 -0.5385 -0.3138
  112OSM    H2G11633   3.504   1.691  10.171  1.5034 -2.4633  0.4578
  112OSM    C3F11634   3.286   1.650  10.135 -0.4065  0.0716 -0.3064
  112OSM    H3F11635   3.313   1.586  10.047  0.2822 -0.5533  0.3455
  112OSM    H3G11636   3.242   1.742  10.091 -1.1727 -0.4288 -0.6037
  112OSM    C4F11637   3.180   1.561  10.195 -0.0455 -0.4711 -0.1625
  112OSM    H4F11638   3.145   1.591  10.296 -1.2616  0.0055 -0.7171
  112OSM    H4G11639   3.196   1.451  10.189 -1.9755 -0.7814 -0.2991
  112OSM    C5F11640   3.045   1.581  10.126 -0.4358 -0.2505  0.2758
  112OSM    H5F11641   3.028   1.689  10.104 -1.5482  0.2053  2.9927
  112OSM    H5G11642   2.964   1.539  10.189 -2.1768  0.4893 -1.3547
  112OSM    C6F11643   3.037   1.492  10.005 -1.0652  0.0943  0.1093
  112OSM    H6F11644   3.026   1.385  10.034 -0.9959 -0.3682 -1.4445
  112OSM    H6G11645   3.112   1.497   9.923 -1.1127  0.3710  0.0833
  112OSM    C7F11646   2.901   1.508   9.931  0.0017 -0.3725  0.1603
  112OSM    H7F11647   2.889   1.615   9.902 -1.5222 -0.5126  0.1956
  112OSM    H7G11648   2.813   1.497   9.997  1.7341  0.9224  2.8738
  112OSM    C8F11649   2.903   1.427   9.799 -0.7543 -0.2091  0.6069
  112OSM    H8F11650   2.918   1.321   9.829  0.1160 -0.6897 -1.3885
  112OSM    H8G11651   2.998   1.451   9.747  0.6971 -0.9322  2.7606
  112OSM    C9F11652   2.785   1.439   9.705  0.0135 -0.2265 -0.3049
  112OSM    H9F11653   2.683   1.427   9.743 -0.1899  1.6081 -0.1884
  112OSM   C10F11654   2.779   1.461   9.569 -0.9306 -0.2739 -0.5468
  112OSM   H10F11655   2.677   1.455   9.528 -2.1273  1.7005  1.8159
  112OSM   C11F11656   2.904   1.488   9.483  0.6408  0.4265 -0.0001
  112OSM   H11F11657   2.903   1.427   9.391  2.0180 -0.5951  0.6199
  112OSM   H11G11658   2.993   1.443   9.533 -0.0160 -1.6958 -0.6187
  112OSM   C12F11659   2.918   1.637   9.459  0.9189 -0.2923 -0.1779
  112OSM   H12F11660   2.938   1.692   9.553  2.8706  0.3485 -0.9202
  112OSM   H12G11661   2.830   1.675   9.403 -0.9228 -2.7846  0.8270
  112OSM   C13F11662   3.049   1.669   9.383  0.2141  0.0974  0.9831
  112OSM   H13F11663   3.129   1.626   9.446 -0.7389 -0.0017  2.1466
  112OSM   H13G11664   3.072   1.777   9.375  3.2192 -0.5486 -0.3958
  112OSM   C14F11665   3.071   1.605   9.238 -0.3374 -0.1268  0.4572
  112OSM   H14F11666   3.061   1.495   9.245  2.8142 -0.5504  0.0325
  112OSM   H14G11667   3.179   1.620   9.217 -0.2498 -2.6772 -1.3192
  112OSM   C15F11668   2.971   1.655   9.134  0.2927  0.2498 -0.2700
  112OSM   H15F11669   2.982   1.764   9.116  2.4204  0.4435  1.7306
  112OSM   H15G11670   2.865   1.630   9.154  0.1980  1.6471  1.1849
  112OSM   C16F11671   3.011   1.593   8.999  0.7193  0.3070 -0.0531
  112OSM   H16F11672   3.026   1.483   9.002 -0.3642  0.1331 -0.5064
  112OSM   H16G11673   3.115   1.632   8.996  0.3253  1.4111  0.1222
  112OSM   C17F11674   2.927   1.633   8.877 -1.0434  0.0149 -0.1328
  112OSM   H17F11675   2.906   1.741   8.865 -0.6439  0.1177  0.0815
  112OSM   H17G11676   2.829   1.582   8.892 -1.6341  0.8052 -1.1742
  112OSM   C18F11677   2.992   1.586   8.742 -0.1831 -0.3923  0.2294
  112OSM   H18F11678   3.085   1.639   8.715 -0.4679  0.5604  1.0225
  112OSM   H18G11679   2.918   1.599   8.660  1.5521 -0.7904 -1.4580
  112OSM   H18H11680   3.018   1.480   8.761  0.1649 -0.1810  1.0038
  113OSM      N11681   5.038   1.382  11.066  0.5366  0.6519 -0.3161
  113OSM    C1511682   4.962   1.483  11.147 -0.5203 -0.3879  0.2468
  113OSM   H15A11683   4.862   1.460  11.112 -1.0293 -1.2285  2.1206
  113OSM   H15B11684   4.992   1.586  11.139 -0.7044 -0.4874 -2.6759
  113OSM   H15C11685   4.954   1.454  11.251 -0.5310 -1.5814 -0.0694
  113OSM    C1411686   5.024   1.418  10.921 -0.6759  0.4589 -1.1381
  113OSM   H14A11687   4.921   1.401  10.890 -1.1838 -0.6377  1.0182
  113OSM   H14B11688   5.085   1.361  10.853  0.8815 -1.4253  1.6687
  113OSM   H14C11689   5.055   1.521  10.912 -0.2457  0.2864 -1.6826
  113OSM    C1311690   5.183   1.387  11.108 -0.2571  0.9590  0.0238
  113OSM   H13A11691   5.189   1.346  11.208  1.5897 -2.0719 -1.1899
  113OSM   H13B11692   5.219   1.488  11.115  1.7751  0.2175  0.8664
  113OSM   H13C11693   5.242   1.323  11.045 -1.1357 -0.3167  0.4542
  113OSM    C1211694   4.974   1.248  11.089  0.5962 -0.3396  0.0559
  113OSM   H12A11695   4.868   1.262  11.071  1.1144  3.1872 -1.1257
  113OSM   H12B11696   4.976   1.224  11.194  0.1930  1.3373  0.4912
  113OSM    C1111697   5.029   1.132  11.002 -0.1360  0.2606  0.5721
  113OSM   H11A11698   5.130   1.099  11.033  1.0191  1.6230 -1.5605
  113OSM   H11B11699   5.038   1.163  10.896  1.0459 -3.5243 -0.5820
  113OSM      P11700   4.801   1.018  10.946  0.2340 -0.2161 -0.1148
  113OSM    O1311701   4.728   0.893  10.972  0.3288  0.9846 -0.2008
  113OSM    O1411702   4.730   1.149  10.953 -0.5135 -0.4481 -0.2470
  113OSM    O1111703   4.871   1.000  10.800  0.3485  0.5469 -0.6595
  113OSM    O1211704   4.938   1.028  11.024  0.3734  0.1881  0.0125
  113OSM    C1S11705   4.856   1.106  10.709 -0.0787 -0.5477 -0.7158
  113OSM    H1S11706   4.899   1.200  10.751 -1.2336 -1.0426  1.7601
  113OSM    H1T11707   4.747   1.123  10.702 -0.1783  1.3934  2.8243
  113OSM     NF11708   4.933   1.211  10.502  0.6088  0.0608 -0.6588
  113OSM    HNF11709   4.872   1.236  10.428  1.8514  0.3666 -1.6219
  113OSM    C2S11710   4.922   1.082  10.576 -0.5338  0.1358  0.3537
  113OSM    H2S11711   5.019   1.032  10.598 -0.7428 -1.0406 -1.2233
  113OSM    C3S11712   4.829   0.969  10.516  0.7550  1.0530  0.1424
  113OSM    H3S11713   4.727   1.012  10.520  0.7840  1.0208  1.5360
  113OSM     O311714   4.819   0.852  10.594  0.3554  0.1386 -0.1626
  113OSM    HO311715   4.848   0.875  10.682  1.1553 -0.9655 -0.1203
  113OSM    C4S11716   4.865   0.942  10.373 -0.3940  0.2297  0.8225
  113OSM    H4S11717   4.811   1.014  10.309  0.1333  2.7769  3.0876
  113OSM    C5S11718   4.947   0.857  10.312 -0.2016 -0.4797  0.0191
  113OSM    H5S11719   5.018   0.793  10.367 -2.3512 -2.0028  1.1836
  113OSM    C6S11720   4.981   0.854  10.165 -0.2678  0.5290 -0.1504
  113OSM    H6S11721   4.943   0.759  10.121 -2.3881  0.9943  0.5604
  113OSM    H6T11722   5.091   0.855  10.154 -0.2222  0.0399  0.2276
  113OSM    C7S11723   4.926   0.975  10.081  0.3604 -0.7342 -0.6520
  113OSM    H7S11724   4.952   1.070  10.133 -0.4772 -1.8640  2.0314
  113OSM    H7T11725   4.815   0.979  10.084  0.4027 -0.0040  0.8973
  113OSM    C8S11726   4.976   0.970   9.938  0.3206 -0.3289 -0.1703
  113OSM    H8S11727   4.937   0.873   9.898  1.2554 -1.0820  0.7136
  113OSM    H8T11728   5.086   0.956   9.934  0.1601 -1.6931 -0.4815
  113OSM    C9S11729   4.931   1.082   9.840  0.2393  0.3822 -0.0860
  113OSM    H9S11730   4.966   1.181   9.876 -1.7196  1.5785 -1.2405
  113OSM    H9T11731   4.820   1.090   9.845  0.1442 -0.2776 -0.9733
  113OSM   C10S11732   4.991   1.065   9.696 -0.4173 -0.4425 -0.1782
  113OSM   H10S11733   4.972   0.963   9.659 -1.9199 -0.8106  1.4578
  113OSM   H10T11734   5.101   1.078   9.705 -0.2839  0.1535 -2.1796
  113OSM   C11S11735   4.946   1.165   9.595  0.7424  0.7708 -0.2614
  113OSM   H11S11736   4.835   1.155   9.597  0.8866 -1.2211  0.8636
  113OSM   H11T11737   4.977   1.139   9.491  1.1037 -2.5574  0.5485
  113OSM   C12S11738   4.994   1.308   9.627  0.2259  0.3087  0.3053
  113OSM   H12S11739   5.100   1.299   9.656  0.2931 -0.4770 -0.1718
  113OSM   H12T11740   4.946   1.340   9.722  0.8473  0.1462  0.6784
  113OSM   C13S11741   4.969   1.420   9.524  0.1952 -0.1683  0.1415
  113OSM   H13S11742   5.007   1.520   9.554 -0.6531  0.4941 -0.9090
  113OSM   H13T11743   4.861   1.429   9.501  0.3934 -0.0381 -0.7951
  113OSM   C14S11744   5.031   1.384   9.382  0.5302 -0.2898 -0.2586
  113OSM   H14S11745   4.983   1.297   9.333 -1.3150 -0.9245  2.4624
  113OSM   H14T11746   5.133   1.351   9.412  0.1760  0.0419  1.3713
  113OSM   C15S11747   5.039   1.502   9.283 -0.4158  0.3304  0.5622
  113OSM   H15S11748   5.092   1.586   9.333  0.7102  0.2784 -0.5026
  113OSM   H15T11749   4.940   1.547   9.258  0.9386  2.4730 -1.4229
  113OSM   C16S11750   5.119   1.468   9.158 -0.2624  0.2759  0.5605
  113OSM   H16S11751   5.060   1.407   9.086 -1.2825 -0.1681  1.7279
  113OSM   H16T11752   5.206   1.407   9.192 -0.5555  0.0646  0.9293
  113OSM   C17S11753   5.171   1.589   9.081 -0.1738 -0.1433 -0.2591
  113OSM   H17S11754   5.233   1.654   9.146 -2.0462  1.3631  0.1207
  113OSM   H17T11755   5.094   1.654   9.034 -0.6086 -0.1087  0.4923
  113OSM   C18S11756   5.269   1.540   8.973  0.7509 -0.0981  0.2313
  113OSM   H18S11757   5.332   1.618   8.925 -1.1416  1.9383  0.8676
  113OSM   H18T11758   5.215   1.511   8.880  0.2247  0.6093  0.3099
  113OSM   H18U11759   5.330   1.449   8.992  0.5429 -0.5393 -1.1554
  113OSM    C1F11760   5.029   1.293  10.540 -0.3170 -0.2989  0.7101
  113OSM     OF11761   5.117   1.253  10.610 -0.5483 -0.4209 -0.0976
  113OSM    C2F11762   5.028   1.433  10.481  0.9376  0.4741 -0.7722
  113OSM    H2F11763   4.946   1.474  10.544  0.6710 -0.8544 -0.2254
  113OSM    H2G11764   4.994   1.425  10.375  1.4918 -0.4191 -0.8915
  113OSM    C3F11765   5.154   1.512  10.499 -0.1573  0.2623  0.5625
  113OSM    H3F11766   5.236   1.450  10.457 -0.6794  0.3941 -0.6675
  113OSM    H3G11767   5.174   1.535  10.606  1.4695 -0.6851  0.5031
  113OSM    C4F11768   5.161   1.642  10.413  0.2262 -0.9779  0.1653
  113OSM    H4F11769   5.101   1.723  10.458  0.9316  0.6936 -1.7548
  113OSM    H4G11770   5.129   1.632  10.307  1.8156  0.5653 -0.5192
  113OSM    C5F11771   5.302   1.703  10.424 -0.9935  0.3782 -0.2667
  113OSM    H5F11772   5.379   1.629  10.395 -1.5813 -0.4006  0.1328
  113OSM    H5G11773   5.314   1.731  10.531 -0.4703 -1.2153  0.1176
  113OSM    C6F11774   5.323   1.827  10.340  0.2456  0.2596  0.1053
  113OSM    H6F11775   5.415   1.877  10.377 -0.0230  0.9376 -0.1300
  113OSM    H6G11776   5.238   1.894  10.365  1.8138  2.0917  0.7442
  113OSM    C7F11777   5.313   1.808  10.181  0.0623  0.2497 -0.0179
  113OSM    H7F11778   5.238   1.731  10.153  1.2306 -0.4583 -1.3492
  113OSM    H7G11779   5.411   1.773  10.143 -0.2132  1.2877 -1.7908
  113OSM    C8F11780   5.287   1.938  10.109 -0.6570 -0.6152 -0.5303
  113OSM    H8F11781   5.191   1.972  10.154 -0.9831  1.0538 -2.3446
  113OSM    H8G11782   5.259   1.918  10.004 -1.5395 -0.2455 -0.3795
  113OSM    C9F11783   5.388   2.047  10.134 -0.5941 -0.2475  0.2193
  113OSM    H9F11784   5.386   2.108  10.225  0.0604  3.0855 -1.8230
  113OSM   C10F11785   5.470   2.101  10.036 -0.1849 -0.3031 -0.0117
  113OSM   H10F11786   5.534   2.185  10.063 -0.9876  0.1049  0.6824
  113OSM   C11F11787   5.487   2.045   9.894 -0.9215 -0.3985  0.1573
  113OSM   H11F11788   5.403   1.973   9.882 -1.7655  0.2146  1.9968
  113OSM   H11G11789   5.588   2.000   9.890 -0.0259  1.4915  0.6002
  113OSM   C12F11790   5.486   2.168   9.793 -0.0974 -0.1419 -0.6908
  113OSM   H12F11791   5.390   2.224   9.799 -0.4060 -0.5007 -1.9435
  113OSM   H12G11792   5.485   2.121   9.692  2.0148 -2.2609  0.1726
  113OSM   C13F11793   5.608   2.248   9.812 -1.0234  0.0367 -0.7891
  113OSM   H13F11794   5.705   2.196   9.794 -1.1054  0.1988 -1.8157
  113OSM   H13G11795   5.621   2.298   9.910 -2.9515  0.4342 -0.7132
  113OSM   C14F11796   5.607   2.361   9.703  0.0805 -0.2752  0.3367
  113OSM   H14F11797   5.674   2.442   9.740 -0.6535 -0.9996  3.6285
  113OSM   H14G11798   5.507   2.410   9.700 -0.6465 -1.7331 -0.2252
  113OSM   C15F11799   5.632   2.311   9.563  0.1250  0.3324  0.1854
  113OSM   H15F11800   5.567   2.225   9.540 -0.5369  1.4207 -2.3810
  113OSM   H15G11801   5.735   2.273   9.545 -0.2885 -0.6708 -0.0983
  113OSM   C16F11802   5.615   2.421   9.453 -0.2482 -0.1329 -0.0592
  113OSM   H16F11803   5.689   2.502   9.470 -1.0184  0.4264  0.7013
  113OSM   H16G11804   5.520   2.477   9.451  1.5487  3.1280 -0.1019
  113OSM   C17F11805   5.642   2.369   9.309  1.0460  0.6129 -0.6753
  113OSM   H17F11806   5.552   2.305   9.299  0.4083  0.9158  2.1235
  113OSM   H17G11807   5.737   2.313   9.305  0.3825 -0.4644 -1.8879
  113OSM   C18F11808   5.636   2.489   9.215 -0.1141  0.9594 -0.0155
  113OSM   H18F11809   5.561   2.568   9.240 -0.4539  1.2973 -1.9107
  113OSM   H18G11810   5.624   2.461   9.108 -0.1004 -0.7097  0.3948
  113OSM   H18H11811   5.741   2.526   9.216  0.8611 -1.5844 -0.7844
  114OSM      N11812   5.921   1.750  11.161 -0.3118  0.5445  0.1245
  114OSM    C1511813   6.014   1.684  11.068  0.1288  0.1843 -0.8922
  114OSM   H15A11814   5.966   1.645  10.980  0.7142 -1.3124 -0.5699
  114OSM   H15B11815   6.065   1.610  11.127 -4.6126 -0.5644  2.9041
  114OSM   H15C11816   6.082   1.754  11.021  0.5164  0.6670  0.3401
  114OSM    C1411817   5.811   1.806  11.079  0.1633  0.0245  0.8379
  114OSM   H14A11818   5.722   1.833  11.135 -0.2794  2.2142 -0.7925
  114OSM   H14B11819   5.786   1.734  11.002  0.5206 -0.2447  0.9691
  114OSM   H14C11820   5.840   1.895  11.025 -0.4300  0.1038  0.6406
  114OSM    C1311821   5.860   1.647  11.247  0.4896  0.5538 -0.2046
  114OSM   H13A11822   5.817   1.562  11.197 -0.7017  1.4368 -0.7095
  114OSM   H13B11823   5.773   1.692  11.292 -0.4557  0.7500 -2.1501
  114OSM   H13C11824   5.936   1.613  11.316 -1.7394 -0.8529  1.7069
  114OSM    C1211825   5.986   1.858  11.246  0.3609 -0.5231  0.7891
  114OSM   H12A11826   6.049   1.807  11.317  1.0516  0.2565  0.7568
  114OSM   H12B11827   5.909   1.921  11.289 -0.6869 -0.2762 -1.3109
  114OSM    C1111828   6.076   1.965  11.166  0.5542  0.0901 -0.4273
  114OSM   H11A11829   6.167   1.909  11.133  0.0803 -1.5830  0.9130
  114OSM   H11B11830   6.107   2.033  11.248  3.6069 -0.9010 -0.6063
  114OSM      P11831   6.061   2.161  10.997  0.0455 -0.4863 -0.6751
  114OSM    O1311832   5.957   2.227  10.914  0.0069  0.0153 -0.1491
  114OSM    O1411833   6.125   2.243  11.105 -0.6283  0.0170 -0.2410
  114OSM    O1111834   6.172   2.095  10.901 -0.4271 -0.3680  0.5608
  114OSM    O1211835   5.999   2.028  11.058 -0.3543  0.2062 -0.0834
  114OSM    C1S11836   6.129   2.007  10.790  0.4090 -0.2952  0.6157
  114OSM    H1S11837   6.058   1.930  10.826 -0.5357 -0.3663 -1.2524
  114OSM    H1T11838   6.217   1.942  10.769 -0.8232 -1.4770 -1.2116
  114OSM     NF11839   6.013   1.979  10.576 -0.2467  0.1929  0.8293
  114OSM    HNF11840   6.077   1.939  10.510 -0.3118  1.0496  0.2225
  114OSM    C2S11841   6.073   2.077  10.662 -1.2832 -0.9758 -0.3802
  114OSM    H2S11842   6.009   2.163  10.690 -1.4140 -0.6885 -1.5215
  114OSM    C3S11843   6.192   2.158  10.595  0.7116  0.4098  0.5151
  114OSM    H3S11844   6.266   2.085  10.555  1.9206  0.3516  2.6870
  114OSM     O311845   6.273   2.235  10.690 -0.2937 -0.0503 -0.4641
  114OSM    HO311846   6.250   2.190  10.771  0.8326 -0.8780 -0.5815
  114OSM    C4S11847   6.136   2.252  10.485 -0.7768 -0.1593 -0.6685
  114OSM    H4S11848   6.142   2.209  10.384 -1.6545  0.2559 -0.9082
  114OSM    C5S11849   6.095   2.380  10.506 -0.3943 -0.1250  0.7714
  114OSM    H5S11850   6.088   2.424  10.607  1.4582 -0.3345  1.0271
  114OSM    C6S11851   6.044   2.472  10.393  0.4447 -0.0803 -0.3472
  114OSM    H6S11852   6.118   2.553  10.374 -1.0130  1.0899 -1.2460
  114OSM    H6T11853   5.956   2.527  10.432  2.1403  1.3300  1.7323
  114OSM    C7S11854   6.023   2.394  10.260 -0.5051  0.0602 -0.6345
  114OSM    H7S11855   5.946   2.316  10.273 -2.6458  2.2679  0.6391
  114OSM    H7T11856   6.122   2.354  10.229 -0.2800  0.5934 -0.6099
  114OSM    C8S11857   5.969   2.485  10.144 -0.4859  0.0109  0.9033
  114OSM    H8S11858   6.027   2.579  10.156 -1.4197  0.5576  1.2018
  114OSM    H8T11859   5.868   2.514  10.181 -1.1426 -0.6497 -0.3046
  114OSM    C9S11860   5.979   2.419  10.008 -0.4014  0.1312  0.2252
  114OSM    H9S11861   5.925   2.322  10.013  0.7452 -0.4604  3.1546
  114OSM    H9T11862   6.088   2.403   9.997 -0.1025 -1.2193  3.8600
  114OSM   C10S11863   5.920   2.502   9.894  0.2020  0.3467 -0.1840
  114OSM   H10S11864   5.961   2.605   9.900  3.1356 -0.7608  0.4087
  114OSM   H10T11865   5.810   2.517   9.903  0.2249  0.5531 -0.2275
  114OSM   C11S11866   5.964   2.457   9.756 -0.3679  0.1819 -0.4766
  114OSM   H11S11867   5.921   2.360   9.724  1.9307 -0.2640 -2.5356
  114OSM   H11T11868   6.073   2.441   9.771 -0.6415 -1.6814 -0.1858
  114OSM   C12S11869   5.939   2.565   9.647 -0.1168 -0.0309  0.1884
  114OSM   H12S11870   5.974   2.667   9.677  0.1755  0.1596 -0.7751
  114OSM   H12T11871   5.829   2.572   9.639 -0.2335 -0.9490  0.8406
  114OSM   C13S11872   5.994   2.526   9.507 -0.5387  0.6217 -0.0798
  114OSM   H13S11873   5.922   2.446   9.479 -1.7440  1.6806 -0.1328
  114OSM   H13T11874   6.094   2.479   9.502 -1.4728 -1.3457 -2.3262
  114OSM   C14S11875   5.996   2.642   9.414 -0.2570 -0.6090 -0.0132
  114OSM   H14S11876   6.069   2.715   9.456  0.2358 -1.8079  1.3403
  114OSM   H14T11877   5.893   2.681   9.405 -0.8244 -1.7800  0.9924
  114OSM   C15S11878   6.047   2.611   9.280  0.0327 -0.2754 -0.2554
  114OSM   H15S11879   5.994   2.522   9.238 -0.7346  0.3446 -0.6300
  114OSM   H15T11880   6.152   2.576   9.281 -0.0655 -0.5776  1.4373
  114OSM   C16S11881   6.027   2.721   9.182  0.4654 -0.4695  0.3424
  114OSM   H16S11882   6.072   2.818   9.212 -3.0303  0.8419  1.9030
  114OSM   H16T11883   5.920   2.749   9.191  0.9767  0.8782  2.9672
  114OSM   C17S11884   6.070   2.678   9.044 -0.7924  0.2854 -0.2372
  114OSM   H17S11885   6.011   2.587   9.020 -1.2978  0.8890 -1.3658
  114OSM   H17T11886   6.178   2.653   9.055  0.0218  3.2993 -0.3694
  114OSM   C18S11887   6.063   2.782   8.933 -0.3204  0.5356 -0.3251
  114OSM   H18S11888   6.139   2.862   8.950  0.9273 -0.3065 -1.6721
  114OSM   H18T11889   5.958   2.814   8.917 -0.5514  0.2884  0.6243
  114OSM   H18U11890   6.102   2.733   8.841 -1.5919  1.1808 -1.2371
  114OSM    C1F11891   5.896   1.921  10.600 -0.5940  0.0738  0.0690
  114OSM     OF11892   5.837   1.951  10.704  0.3588  0.1475 -0.2018
  114OSM    C2F11893   5.856   1.805  10.512 -0.0692  0.4235 -0.3499
  114OSM    H2F11894   5.855   1.718  10.581 -0.2630 -0.1749 -1.1054
  114OSM    H2G11895   5.936   1.798  10.435  0.5429 -0.6206  0.3606
  114OSM    C3F11896   5.722   1.837  10.446  0.2195 -0.0187 -0.2339
  114OSM    H3F11897   5.722   1.944  10.417  1.6751 -0.3010 -1.3842
  114OSM    H3G11898   5.646   1.823  10.526  1.9305 -1.6590  1.1683
  114OSM    C4F11899   5.692   1.738  10.327 -0.2004 -0.8803 -0.0167
  114OSM    H4F11900   5.589   1.769  10.299  0.0174  1.5373  1.5654
  114OSM    H4G11901   5.679   1.639  10.377 -1.8938 -0.5291  0.3215
  114OSM    C5F11902   5.790   1.747  10.216 -1.0874 -0.1923  0.6731
  114OSM    H5F11903   5.884   1.696  10.246 -2.6655 -3.4810  0.4381
  114OSM    H5G11904   5.805   1.854  10.192 -1.8543 -0.2600 -0.1824
  114OSM    C6F11905   5.752   1.665  10.089 -0.3340 -0.5413  0.6110
  114OSM    H6F11906   5.650   1.700  10.063  1.1044  1.5635 -2.9013
  114OSM    H6G11907   5.765   1.559  10.120 -1.4039 -0.3183  1.9007
  114OSM    C7F11908   5.832   1.703   9.964  0.6088 -0.2303  0.8673
  114OSM    H7F11909   5.941   1.696   9.988  0.2960 -0.5120  2.3414
  114OSM    H7G11910   5.808   1.805   9.927 -0.7304 -1.0154 -0.5133
  114OSM    C8F11911   5.818   1.600   9.853  0.3451  0.1625 -0.2127
  114OSM    H8F11912   5.709   1.581   9.839  0.2320 -0.2433  1.1545
  114OSM    H8G11913   5.857   1.502   9.886  0.0423  0.0352 -0.2279
  114OSM    C9F11914   5.880   1.662   9.728 -0.1305 -0.2623 -0.5216
  114OSM    H9F11915   5.989   1.672   9.738  0.0203 -1.3411 -0.9482
  114OSM   C10F11916   5.828   1.701   9.607  0.0527 -0.7487 -0.1811
  114OSM   H10F11917   5.889   1.751   9.531 -2.8180  1.0339 -1.4702
  114OSM   C11F11918   5.690   1.681   9.560  0.0373  0.3366 -0.4569
  114OSM   H11F11919   5.634   1.775   9.540 -0.5725  0.9191  3.1679
  114OSM   H11G11920   5.643   1.633   9.649  0.6081  1.3708  0.4182
  114OSM   C12F11921   5.692   1.591   9.438  0.1261 -0.1380  0.0703
  114OSM   H12F11922   5.781   1.526   9.441  1.0404  0.8562 -2.4124
  114OSM   H12G11923   5.703   1.664   9.355 -0.7364  0.4660  0.4735
  114OSM   C13F11924   5.560   1.518   9.408  0.2922  0.0672  0.2991
  114OSM   H13F11925   5.497   1.609   9.398  0.8919  0.6079  1.2959
  114OSM   H13G11926   5.527   1.468   9.502  0.1663  0.5174  0.4960
  114OSM   C14F11927   5.548   1.434   9.284  0.4704 -0.0761  0.1339
  114OSM   H14F11928   5.588   1.495   9.199  1.5663  1.1194  1.4621
  114OSM   H14G11929   5.443   1.407   9.263 -0.3435  0.0402  3.5618
  114OSM   C15F11930   5.635   1.307   9.284  0.2563  0.1431  0.5803
  114OSM   H15F11931   5.611   1.259   9.381  0.0669 -0.5460  0.1992
  114OSM   H15G11932   5.743   1.330   9.293  0.5180 -0.5947 -0.4865
  114OSM   C16F11933   5.612   1.209   9.165 -0.1375 -0.6293 -0.5862
  114OSM   H16F11934   5.607   1.261   9.066  1.1830 -0.6087 -0.6634
  114OSM   H16G11935   5.511   1.165   9.177  0.6734 -2.6989 -0.9137
  114OSM   C17F11936   5.711   1.101   9.169 -0.1544  0.0467  0.4146
  114OSM   H17F11937   5.816   1.134   9.152  0.9564 -1.6293  3.4188
  114OSM   H17G11938   5.680   1.029   9.090 -1.2872  0.6908  0.2398
  114OSM   C18F11939   5.701   1.022   9.298 -0.1951  0.5660  0.0884
  114OSM   H18F11940   5.782   0.946   9.296 -0.3712  0.3979 -0.9638
  114OSM   H18G11941   5.599   0.980   9.311  0.0808  0.4000  1.9886
  114OSM   H18H11942   5.719   1.080   9.391 -2.4369 -1.6262  2.0215
  115OSM      N11943   1.304   4.414   5.799 -0.5014 -0.0401 -0.5255
  115OSM    C1511944   1.199   4.315   5.835 -0.5664 -0.3318  0.2162
  115OSM   H15A11945   1.156   4.254   5.757 -2.1703 -2.0496  2.2804
  115OSM   H15B11946   1.116   4.363   5.884  1.1372  0.3845  2.6015
  115OSM   H15C11947   1.239   4.252   5.914  0.7313  0.2620  0.0515
  115OSM    C1411948   1.425   4.342   5.751 -0.4563 -0.4059 -0.4095
  115OSM   H14A11949   1.448   4.274   5.832 -1.7170  0.0480  0.3490
  115OSM   H14B11950   1.503   4.416   5.744 -2.4617  1.8414  0.0708
  115OSM   H14C11951   1.416   4.286   5.659 -2.0628 -1.1177  0.1446
  115OSM    C1311952   1.265   4.508   5.686  0.2395  0.2231 -0.6144
  115OSM   H13A11953   1.322   4.595   5.659 -0.9830  1.1392 -0.3038
  115OSM   H13B11954   1.175   4.561   5.714 -0.1403 -0.3355 -0.7453
  115OSM   H13C11955   1.246   4.451   5.596 -0.3076  0.5825 -0.7269
  115OSM    C1211956   1.349   4.503   5.915  0.1438  0.1193 -0.2476
  115OSM   H12A11957   1.272   4.577   5.935  0.1514 -0.0868  0.5935
  115OSM   H12B11958   1.437   4.562   5.891  1.2968 -0.8546  1.3986
  115OSM    C1111959   1.369   4.428   6.047  0.6510 -0.3396  0.8505
  115OSM   H11A11960   1.287   4.354   6.062 -0.1981  0.7911  2.0033
  115OSM   H11B11961   1.349   4.497   6.132 -0.9071 -0.5893  0.7134
  115OSM      P11962   1.532   4.238   6.120  0.2811 -0.4973 -0.3817
  115OSM    O1311963   1.504   4.133   6.021 -0.7039 -0.0107  0.5513
  115OSM    O1411964   1.671   4.252   6.164 -0.8714 -0.1329 -0.6968
  115OSM    O1111965   1.434   4.233   6.238  0.2901  0.5980 -0.5981
  115OSM    O1211966   1.504   4.379   6.065 -0.3985  0.4776  0.3345
  115OSM    C1S11967   1.456   4.169   6.366 -0.2307  0.2514  0.3773
  115OSM    H1S11968   1.560   4.129   6.370 -1.0648 -2.0310  0.4983
  115OSM    H1T11969   1.385   4.084   6.373  1.5008 -1.4895 -1.5358
  115OSM     NF11970   1.467   4.228   6.617 -0.2217 -0.8548  0.4355
  115OSM    HNF11971   1.393   4.201   6.678 -2.9248  0.3721 -2.0497
  115OSM    C2S11972   1.421   4.271   6.481 -0.2428 -0.1061  0.3362
  115OSM    H2S11973   1.467   4.369   6.457 -0.6806 -0.1775 -0.8668
  115OSM    C3S11974   1.271   4.306   6.466  0.0174 -0.3083  0.7306
  115OSM    H3S11975   1.220   4.220   6.515 -0.2176 -0.4386  0.2537
  115OSM     O311976   1.208   4.321   6.335 -0.1816 -0.3818  0.3213
  115OSM    HO311977   1.288   4.333   6.284 -1.2836  2.2289 -0.9984
  115OSM    C4S11978   1.241   4.424   6.555 -0.0131 -0.5101  0.6966
  115OSM    H4S11979   1.196   4.387   6.648 -2.2012 -2.8456 -1.1596
  115OSM    C5S11980   1.243   4.560   6.526  0.1597  0.2441  0.3533
  115OSM    H5S11981   1.284   4.600   6.432  0.6244  3.1696  1.6926
  115OSM    C6S11982   1.198   4.666   6.622  0.3000 -0.2272  0.2733
  115OSM    H6S11983   1.087   4.678   6.612  0.4019  0.2168 -0.4179
  115OSM    H6T11984   1.245   4.764   6.599 -0.1001  0.5212  2.4637
  115OSM    C7S11985   1.201   4.647   6.773  0.6737  0.0536 -0.8222
  115OSM    H7S11986   1.304   4.664   6.812  0.6365 -0.1205 -0.6460
  115OSM    H7T11987   1.176   4.542   6.798  0.6089  0.2500 -0.0406
  115OSM    C8S11988   1.124   4.751   6.852  0.2749 -0.1122 -0.4750
  115OSM    H8S11989   1.016   4.735   6.837  0.3098 -2.0576  0.9985
  115OSM    H8T11990   1.147   4.854   6.816 -0.0645  0.7506  1.6233
  115OSM    C9S11991   1.165   4.752   7.003  0.6074  0.0056  0.3075
  115OSM    H9S11992   1.267   4.792   7.021  0.1869  0.8329  0.9247
  115OSM    H9T11993   1.171   4.648   7.041  1.8848 -0.6020 -1.4293
  115OSM   C10S11994   1.069   4.844   7.082  0.1653 -0.2136 -0.7353
  115OSM   H10S11995   0.974   4.788   7.083 -1.2591  1.9882  2.5598
  115OSM   H10T11996   1.058   4.941   7.028  0.6884 -0.0319 -0.5207
  115OSM   C11S11997   1.115   4.881   7.216  0.4320 -0.3366  0.2568
  115OSM   H11S11998   1.030   4.939   7.256  0.8970  0.6255 -0.1250
  115OSM   H11T11999   1.208   4.942   7.208  0.2454 -0.1376 -0.4237
  115OSM   C12S12000   1.135   4.762   7.305 -0.0329 -0.3304  0.2031
  115OSM   H12S12001   1.185   4.684   7.243 -0.6708  0.5587 -1.4889
  115OSM   H12T12002   1.041   4.724   7.350 -0.0494  0.2333  0.6692
  115OSM   C13S12003   1.228   4.789   7.426  0.4258  0.1258 -0.0170
  115OSM   H13S12004   1.215   4.708   7.501  1.1751  0.5420  0.5817
  115OSM   H13T12005   1.203   4.878   7.488 -2.4038  0.0467 -0.8728
  115OSM   C14S12006   1.374   4.794   7.373 -0.2452  0.0051 -0.4168
  115OSM   H14S12007   1.396   4.892   7.323 -2.9659  1.6786  1.4003
  115OSM   H14T12008   1.387   4.714   7.297  0.0925 -0.2091 -0.1345
  115OSM   C15S12009   1.465   4.778   7.488 -0.1120  0.3277 -0.2539
  115OSM   H15S12010   1.569   4.764   7.452 -1.2072 -3.0961 -2.5367
  115OSM   H15T12011   1.443   4.689   7.550 -2.0426  0.4549 -0.6806
  115OSM   C16S12012   1.474   4.898   7.583 -0.0297  0.0379 -0.1451
  115OSM   H16S12013   1.383   4.914   7.644  0.5582  2.6542  0.1635
  115OSM   H16T12014   1.496   4.992   7.527  2.5875  0.6732  1.7493
  115OSM   C17S12015   1.593   4.881   7.686  0.2148  0.6096  0.6105
  115OSM   H17S12016   1.676   4.830   7.633 -0.6562  1.1203 -1.3562
  115OSM   H17T12017   1.558   4.804   7.757  0.5549 -0.5647 -0.4628
  115OSM   C18S12018   1.645   5.011   7.744  0.0197  0.0040  0.1050
  115OSM   H18S12019   1.688   4.977   7.840  0.9959  2.8138  0.7501
  115OSM   H18T12020   1.557   5.075   7.764 -0.8399 -1.1412  0.0867
  115OSM   H18U12021   1.720   5.059   7.677  1.0573 -2.5712 -0.7188
  115OSM    C1F12022   1.597   4.197   6.651  0.0776 -0.0298  0.1958
  115OSM     OF12023   1.693   4.218   6.578 -0.1645 -0.6267  0.1690
  115OSM    C2F12024   1.616   4.144   6.789 -0.0278  0.0910  0.4631
  115OSM    H2F12025   1.512   4.142   6.829 -0.6457  2.0484 -0.9234
  115OSM    H2G12026   1.661   4.224   6.851  0.3812  0.5791 -0.4513
  115OSM    C3F12027   1.690   4.010   6.784 -0.2125  0.5436  0.5820
  115OSM    H3F12028   1.789   4.024   6.737 -0.8379  0.2967 -0.8501
  115OSM    H3G12029   1.634   3.927   6.736 -1.7642  0.4377  2.4433
  115OSM    C4F12030   1.716   3.955   6.924  1.0754  0.2350  0.1507
  115OSM    H4F12031   1.736   3.846   6.916 -0.2153  0.0639 -1.0065
  115OSM    H4G12032   1.617   3.965   6.972  0.5495  0.6996 -1.0075
  115OSM    C5F12033   1.819   4.033   7.001 -0.1587 -0.3232 -0.5492
  115OSM    H5F12034   1.800   4.142   6.985 -2.0075 -0.4933  0.1804
  115OSM    H5G12035   1.921   4.008   6.966 -0.4268 -0.6384 -1.1122
  115OSM    C6F12036   1.813   4.015   7.157 -0.0186  0.3315 -0.1531
  115OSM    H6F12037   1.711   4.015   7.199  0.7568 -2.2413  2.0005
  115OSM    H6G12038   1.860   4.104   7.204  0.8907 -0.6917  0.9574
  115OSM    C7F12039   1.891   3.893   7.208  0.3558  0.3442  1.2983
  115OSM    H7F12040   1.991   3.887   7.160 -0.5020 -3.2168 -0.3972
  115OSM    H7G12041   1.836   3.800   7.181  3.0243 -1.3046  1.2137
  115OSM    C8F12042   1.897   3.891   7.356 -0.9616 -0.4267  0.6158
  115OSM    H8F12043   1.954   3.800   7.381  2.2156  1.0964 -0.5816
  115OSM    H8G12044   1.793   3.884   7.395 -1.5030  0.2060 -0.6228
  115OSM    C9F12045   1.967   4.007   7.417 -0.5778 -0.6453 -0.1267
  115OSM    H9F12046   2.038   4.065   7.356  0.0162 -0.5081  0.6897
  115OSM   C10F12047   1.946   4.053   7.541 -0.1077 -0.3439  0.8680
  115OSM   H10F12048   1.976   4.158   7.557 -0.9556  0.0779 -0.1959
  115OSM   C11F12049   1.856   3.996   7.645 -0.0538  0.5908 -1.0599
  115OSM   H11F12050   1.761   3.951   7.610 -0.8267  2.7257 -1.8984
  115OSM   H11G12051   1.806   4.083   7.693 -0.4993 -1.2142  2.0749
  115OSM   C12F12052   1.916   3.903   7.757 -0.2874  0.9350  0.1061
  115OSM   H12F12053   2.009   3.957   7.784  1.9195 -0.8819 -3.1963
  115OSM   H12G12054   1.948   3.802   7.724 -0.8628  0.5931  0.5769
  115OSM   C13F12055   1.820   3.889   7.867  0.5325  0.1493 -0.0629
  115OSM   H13F12056   1.726   3.848   7.826 -0.0095 -0.8797  2.0283
  115OSM   H13G12057   1.788   3.989   7.904 -0.4672  0.5392 -1.8896
  115OSM   C14F12058   1.892   3.812   7.984  0.2948 -0.4067 -0.1149
  115OSM   H14F12059   1.974   3.880   8.016  1.1564 -0.5880 -1.7806
  115OSM   H14G12060   1.943   3.722   7.942  0.3897 -1.0182  1.2478
  115OSM   C15F12061   1.800   3.773   8.097  0.2738 -0.1810 -0.4981
  115OSM   H15F12062   1.734   3.691   8.061  0.0138 -0.7520  1.1869
  115OSM   H15G12063   1.740   3.860   8.130  0.2132 -0.9894  1.6584
  115OSM   C16F12064   1.861   3.709   8.226 -0.4942 -0.0206 -0.2565
  115OSM   H16F12065   1.773   3.706   8.294 -1.8322  0.5817 -1.9018
  115OSM   H16G12066   1.943   3.772   8.267 -1.6870  1.0723  0.4987
  115OSM   C17F12067   1.921   3.568   8.204  0.4644 -0.5012 -0.1551
  115OSM   H17F12068   2.019   3.591   8.157  0.0910  2.4752  0.3117
  115OSM   H17G12069   1.855   3.497   8.150  2.6359 -0.8203 -2.5282
  115OSM   C18F12070   1.939   3.503   8.344 -0.1931  0.2758 -0.3590
  115OSM   H18F12071   2.029   3.552   8.387 -0.3002  2.3671 -2.3524
  115OSM   H18G12072   1.954   3.393   8.340  2.7879  0.4873  1.7292
  115OSM   H18H12073   1.851   3.532   8.406 -0.5646  3.8454 -2.2980
  116OSM      N12074   0.053   2.367   6.496  0.3306 -0.3832  0.4637
  116OSM    C1512075  -0.016   2.345   6.365 -1.1075  0.0073  0.1000
  116OSM   H15A12076  -0.025   2.439   6.312  2.6093  0.8404  0.6837
  116OSM   H15B12077  -0.113   2.300   6.378 -1.5682  1.0569  0.4390
  116OSM   H15C12078   0.047   2.279   6.308  1.0602  1.9130  0.1361
  116OSM    C1412079   0.178   2.445   6.473  0.1891  0.1524  0.4132
  116OSM   H14A12080   0.247   2.382   6.418  1.3772  0.1439  1.8557
  116OSM   H14B12081   0.226   2.457   6.569  0.5561  0.4694  0.1934
  116OSM   H14C12082   0.155   2.542   6.433  1.6635  0.4661  0.2827
  116OSM    C1312083  -0.039   2.450   6.584 -0.0757 -0.3169 -0.5052
  116OSM   H13A12084  -0.050   2.554   6.557  0.2365 -0.3685 -0.8474
  116OSM   H13B12085  -0.004   2.453   6.686 -0.7817  1.0063 -0.2812
  116OSM   H13C12086  -0.138   2.409   6.594 -0.7403  1.4556  0.6626
  116OSM    C1212087   0.082   2.230   6.561  0.7821 -0.2930 -0.0800
  116OSM   H12A12088  -0.009   2.179   6.587  0.3249 -0.0466 -1.1293
  116OSM   H12B12089   0.124   2.252   6.658 -1.2689 -0.4776  0.9012
  116OSM    C1112090   0.166   2.128   6.476  0.0933  0.6565 -0.5284
  116OSM   H11A12091   0.196   2.044   6.543 -0.0226  1.2407  0.2796
  116OSM   H11B12092   0.262   2.169   6.438  2.4349 -0.4395  3.4704
  116OSM      P12093  -0.026   1.980   6.374 -0.2693  0.0142 -0.4592
  116OSM    O1312094  -0.141   2.017   6.284 -0.3400 -0.7318  0.0850
  116OSM    O1412095   0.028   1.837   6.360  0.4130  0.0530 -0.2253
  116OSM    O1112096  -0.078   2.002   6.523  0.1073  0.4662  0.1419
  116OSM    O1212097   0.097   2.080   6.362 -0.1145  0.2744  0.0128
  116OSM    C1S12098  -0.070   1.883   6.607  0.1452 -0.5225 -0.7683
  116OSM    H1S12099   0.028   1.832   6.604 -0.1678 -1.5516  2.4202
  116OSM    H1T12100  -0.141   1.804   6.576  0.5120 -1.4890  0.7583
  116OSM     NF12101  -0.055   1.826   6.840  0.0235  0.5102 -0.6745
  116OSM    HNF12102  -0.127   1.777   6.888 -1.0768  2.2837 -0.4198
  116OSM    C2S12103  -0.096   1.934   6.750 -0.1838  0.7851 -0.0261
  116OSM    H2S12104  -0.032   2.023   6.769 -1.3145  1.3919  1.1399
  116OSM    C3S12105  -0.242   1.981   6.761  0.3467 -0.1475  0.5672
  116OSM    H3S12106  -0.310   1.896   6.738 -1.6677  1.7345 -0.7706
  116OSM     O312107  -0.275   2.098   6.681  0.1470  0.1056 -0.0340
  116OSM    HO312108  -0.237   2.086   6.594  0.3887  0.9327 -0.0503
  116OSM    C4S12109  -0.282   2.028   6.897  0.3374  0.3267  0.3995
  116OSM    H4S12110  -0.270   2.135   6.919  3.1289  0.3403 -0.7312
  116OSM    C5S12111  -0.347   1.951   6.989 -0.4316 -0.3184 -1.0461
  116OSM    H5S12112  -0.378   1.846   6.974  0.3560 -1.2759  2.9841
  116OSM    C6S12113  -0.395   2.002   7.123 -0.8046  0.5254  0.1827
  116OSM    H6S12114  -0.504   1.986   7.141 -0.8522 -0.7672 -1.1409
  116OSM    H6T12115  -0.375   2.111   7.136  2.0948 -0.1958  3.0600
  116OSM    C7S12116  -0.311   1.937   7.235 -0.6232  0.6728 -0.0863
  116OSM    H7S12117  -0.206   1.967   7.212 -0.5223  0.6638  0.3469
  116OSM    H7T12118  -0.310   1.826   7.232  0.6681  0.6953 -1.4518
  116OSM    C8S12119  -0.358   1.975   7.372  0.4571  0.3298  0.4165
  116OSM    H8S12120  -0.459   1.932   7.390 -0.2952  1.0113 -1.8395
  116OSM    H8T12121  -0.365   2.086   7.374 -1.9983  0.3100 -1.9449
  116OSM    C9S12122  -0.266   1.931   7.488 -0.3441  0.3039 -0.2614
  116OSM    H9S12123  -0.162   1.970   7.477  0.0253 -1.3522 -3.9172
  116OSM    H9T12124  -0.261   1.821   7.503  0.0088  0.4614  0.8512
  116OSM   C10S12125  -0.325   1.975   7.619  0.2592 -0.2263 -0.4859
  116OSM   H10S12126  -0.424   1.930   7.637  0.8800 -1.0762  0.9685
  116OSM   H10T12127  -0.332   2.086   7.631  0.3633 -0.3970  1.4067
  116OSM   C11S12128  -0.245   1.926   7.737  0.1755  0.2789  0.6541
  116OSM   H11S12129  -0.136   1.947   7.727  0.7310 -2.0319  1.2922
  116OSM   H11T12130  -0.235   1.815   7.741  0.5383  0.3501  2.0337
  116OSM   C12S12131  -0.292   1.973   7.874  0.1825 -0.3050  0.3824
  116OSM   H12S12132  -0.401   1.950   7.877  0.2561 -1.0192 -1.5182
  116OSM   H12T12133  -0.275   2.083   7.874  0.6565 -0.3545  2.0014
  116OSM   C13S12134  -0.218   1.891   7.988  0.5799 -0.3109 -0.6587
  116OSM   H13S12135  -0.109   1.895   7.968  0.3071 -1.4655 -2.7412
  116OSM   H13T12136  -0.254   1.787   7.975  0.1940 -0.2900  0.1879
  116OSM   C14S12137  -0.255   1.941   8.128 -0.2435  0.0273 -0.2331
  116OSM   H14S12138  -0.358   1.980   8.142 -0.2843 -0.0366 -0.3471
  116OSM   H14T12139  -0.192   2.033   8.127  1.7659 -1.2609 -2.0783
  116OSM   C15S12140  -0.230   1.841   8.242  0.0753  0.2096  0.2981
  116OSM   H15S12141  -0.125   1.808   8.225 -0.5053 -1.6043  0.0155
  116OSM   H15T12142  -0.304   1.759   8.249  1.0174 -0.5433  2.0426
  116OSM   C16S12143  -0.215   1.913   8.378 -0.8527 -0.3319  0.0934
  116OSM   H16S12144  -0.314   1.952   8.410 -0.4481 -0.0988  1.0928
  116OSM   H16T12145  -0.139   1.994   8.369 -0.1083 -0.8360  1.6052
  116OSM   C17S12146  -0.172   1.816   8.487  0.0206 -0.1699  0.2597
  116OSM   H17S12147  -0.065   1.790   8.474  0.0574 -0.0978  0.4102
  116OSM   H17T12148  -0.228   1.720   8.479  2.2653 -1.3901 -1.7677
  116OSM   C18S12149  -0.186   1.870   8.631  0.8051 -0.3959 -0.3918
  116OSM   H18S12150  -0.125   1.800   8.693 -1.2591 -1.3868  0.6270
  116OSM   H18T12151  -0.291   1.873   8.667  1.8717 -0.3362  3.0657
  116OSM   H18U12152  -0.144   1.973   8.638 -1.0337  0.4126 -0.7010
  116OSM    C1F12153   0.074   1.794   6.865  0.5493  0.8349  0.3391
  116OSM     OF12154   0.153   1.873   6.815  0.0395  0.2329 -0.2175
  116OSM    C2F12155   0.113   1.664   6.935  0.1568 -0.4105 -0.1578
  116OSM    H2F12156   0.180   1.606   6.869 -0.3849 -0.8150 -0.3643
  116OSM    H2G12157   0.016   1.610   6.943 -0.9375  1.1676 -2.0536
  116OSM    C3F12158   0.189   1.687   7.068  0.5646  0.1792  0.3492
  116OSM    H3F12159   0.269   1.762   7.051 -0.0565  0.3824 -1.9870
  116OSM    H3G12160   0.237   1.588   7.087  1.2421  0.3830 -0.2839
  116OSM    C4F12161   0.106   1.731   7.191  0.1107 -0.0156 -0.6447
  116OSM    H4F12162   0.032   1.653   7.215  0.9396 -0.5099  0.4118
  116OSM    H4G12163   0.056   1.826   7.161 -1.6601 -0.6819  0.0962
  116OSM    C5F12164   0.207   1.749   7.307  0.3584 -0.1243 -0.3535
  116OSM    H5F12165   0.284   1.817   7.266 -0.1679  0.0925 -1.0053
  116OSM    H5G12166   0.259   1.653   7.326  0.1025  0.3051  3.3869
  116OSM    C6F12167   0.146   1.798   7.439 -0.4163  0.8545 -0.0174
  116OSM    H6F12168   0.080   1.717   7.477 -0.6669  0.1640 -1.8029
  116OSM    H6G12169   0.093   1.891   7.412  0.4043  1.9643  2.0301
  116OSM    C7F12170   0.252   1.834   7.542  0.0015  0.4999 -1.2287
  116OSM    H7F12171   0.318   1.909   7.493  2.9941 -1.1222  0.0163
  116OSM    H7G12172   0.311   1.748   7.580  0.6730  1.9781  1.2621
  116OSM    C8F12173   0.188   1.898   7.667 -0.4697  0.3984  0.0076
  116OSM    H8F12174   0.116   1.831   7.717 -0.9137  0.0217 -1.0968
  116OSM    H8G12175   0.130   1.982   7.624  0.7415  1.3659  0.1819
  116OSM    C9F12176   0.291   1.954   7.762  0.0779 -0.5367 -0.2639
  116OSM    H9F12177   0.394   1.947   7.725  0.0955  0.8740 -0.5301
  116OSM   C10F12178   0.265   2.004   7.882 -0.0934 -0.2259  0.5257
  116OSM   H10F12179   0.349   2.045   7.940 -0.3941  1.4460 -0.1556
  116OSM   C11F12180   0.124   2.007   7.938  0.3844 -0.0300 -0.2158
  116OSM   H11F12181   0.112   1.914   7.997  1.7516 -0.6246 -0.8433
  116OSM   H11G12182   0.043   1.998   7.862 -3.2697 -0.9450  3.4345
  116OSM   C12F12183   0.087   2.124   8.030 -0.0954  0.2977  0.2078
  116OSM   H12F12184  -0.024   2.121   8.029 -0.1440  1.0537  1.2411
  116OSM   H12G12185   0.123   2.216   7.979 -1.6149  1.2094  0.6910
  116OSM   C13F12186   0.132   2.118   8.178 -0.4894  0.6288  0.2318
  116OSM   H13F12187   0.241   2.138   8.180  0.0657 -1.7283  3.7262
  116OSM   H13G12188   0.121   2.013   8.214 -0.0872  0.8119  0.9033
  116OSM   C14F12189   0.044   2.210   8.258 -0.6262  0.4865 -0.1567
  116OSM   H14F12190  -0.055   2.160   8.265 -0.3665 -0.1676 -1.0345
  116OSM   H14G12191   0.040   2.314   8.218 -1.2347  0.7119  0.4666
  116OSM   C15F12192   0.104   2.231   8.404 -0.0490  0.0697 -0.2491
  116OSM   H15F12193   0.188   2.304   8.393 -0.2449 -0.0080 -2.9335
  116OSM   H15G12194   0.152   2.136   8.435 -1.2687  0.2772  2.5594
  116OSM   C16F12195  -0.001   2.273   8.504 -0.3553  0.2909  0.7586
  116OSM   H16F12196  -0.057   2.191   8.554 -0.1525 -0.0524  0.4266
  116OSM   H16G12197  -0.081   2.333   8.456 -0.8101 -1.3240 -0.5993
  116OSM   C17F12198   0.060   2.353   8.615  0.2150  0.6897 -0.0095
  116OSM   H17F12199   0.100   2.448   8.573 -1.0615  1.7987  1.1899
  116OSM   H17G12200   0.152   2.305   8.655 -0.7461 -0.3079  1.0509
  116OSM   C18F12201  -0.034   2.381   8.730  0.0688  0.4726  0.5937
  116OSM   H18F12202  -0.056   2.282   8.776 -1.6535  0.8896  0.7288
  116OSM   H18G12203  -0.127   2.437   8.706 -0.1509 -0.1461 -0.0397
  116OSM   H18H12204   0.022   2.431   8.812  1.9751  1.0697 -0.9876
  117OSM      N12205   4.825   3.671   6.084  0.4364 -0.1106  0.1450
  117OSM    C1512206   4.752   3.787   6.029 -0.0106 -0.1463  0.7465
  117OSM   H15A12207   4.708   3.762   5.934 -0.6331  0.1844  0.9472
  117OSM   H15B12208   4.830   3.861   6.020  1.2617 -1.1578  2.5516
  117OSM   H15C12209   4.681   3.821   6.102  0.0090  0.8912  0.2965
  117OSM    C1412210   4.724   3.569   6.123  0.2538 -0.0559  0.4867
  117OSM   H14A12211   4.665   3.529   6.041  0.8122 -0.4505  0.2700
  117OSM   H14B12212   4.644   3.607   6.185  0.5568  1.8333 -0.2314
  117OSM   H14C12213   4.760   3.486   6.181  0.0556 -0.5104 -0.0246
  117OSM    C1312214   4.905   3.606   5.979 -0.0005  0.3235 -0.2854
  117OSM   H13A12215   4.940   3.506   5.999  0.8194 -0.1071 -3.3108
  117OSM   H13B12216   4.996   3.663   5.965  2.4233 -3.1244  0.2071
  117OSM   H13C12217   4.850   3.606   5.886  0.4165  2.2169 -0.5843
  117OSM    C1212218   4.905   3.709   6.213  0.0128 -0.3572 -0.1090
  117OSM   H12A12219   4.847   3.758   6.289  1.8951  0.6822  0.7411
  117OSM   H12B12220   4.973   3.789   6.185 -0.2540 -0.1395 -0.1460
  117OSM    C1112221   4.990   3.597   6.278 -0.2030 -0.0572 -0.5584
  117OSM   H11A12222   4.922   3.510   6.291  0.7822 -0.9933 -1.4931
  117OSM   H11B12223   5.003   3.627   6.384 -0.8395  1.2092 -0.8112
  117OSM      P12224   5.211   3.669   6.163  0.3752  0.2764  0.1005
  117OSM    O1312225   5.223   3.653   6.018  0.3588 -0.5439  0.0669
  117OSM    O1412226   5.165   3.799   6.218 -0.2863  0.7968  0.4016
  117OSM    O1112227   5.338   3.617   6.232 -0.0916  0.0740  0.6779
  117OSM    O1212228   5.103   3.555   6.200  0.3611 -0.5633 -0.0405
  117OSM    C1S12229   5.411   3.656   6.344 -0.4426 -0.0302  0.0282
  117OSM    H1S12230   5.393   3.764   6.366  1.4461  0.3338 -0.0294
  117OSM    H1T12231   5.515   3.654   6.304 -0.3758  1.4013  0.0848
  117OSM     NF12232   5.476   3.636   6.586 -0.9141  0.2132  0.7242
  117OSM    HNF12233   5.568   3.602   6.603 -0.5914  0.3644 -0.6009
  117OSM    C2S12234   5.393   3.573   6.477  0.2781 -0.0316 -0.5943
  117OSM    H2S12235   5.286   3.569   6.506  1.1364 -1.8497  3.0070
  117OSM    C3S12236   5.426   3.422   6.438  0.3017 -0.1256  0.3941
  117OSM    H3S12237   5.524   3.415   6.385  1.3085  1.2822  1.9538
  117OSM     O312238   5.325   3.372   6.351 -0.3545 -0.6183 -0.7357
  117OSM    HO312239   5.278   3.450   6.320  2.1514  0.9793 -0.7132
  117OSM    C4S12240   5.420   3.331   6.554 -0.6187 -0.4257 -0.3175
  117OSM    H4S12241   5.325   3.323   6.608  0.0550 -3.2281  0.6420
  117OSM    C5S12242   5.520   3.263   6.610 -0.1271  0.8090  0.0753
  117OSM    H5S12243   5.621   3.246   6.568 -1.0689 -0.7104 -1.7093
  117OSM    C6S12244   5.510   3.192   6.742  0.3702  0.2396 -0.2266
  117OSM    H6S12245   5.571   3.100   6.726 -1.9234 -1.2851 -0.6965
  117OSM    H6T12246   5.407   3.160   6.770  0.1371  1.2289  0.0813
  117OSM    C7S12247   5.566   3.284   6.854  0.0677  0.2012  0.0623
  117OSM    H7S12248   5.510   3.380   6.846  1.1616  0.8105 -0.4919
  117OSM    H7T12249   5.676   3.295   6.843 -0.2876  1.3819 -3.8879
  117OSM    C8S12250   5.536   3.222   6.991  0.0296  0.2849  0.6658
  117OSM    H8S12251   5.597   3.129   6.995 -0.0709  0.2070  0.3796
  117OSM    H8T12252   5.431   3.186   6.988  0.3889 -0.7492  0.0099
  117OSM    C9S12253   5.572   3.317   7.102  0.4161  0.0303 -0.1374
  117OSM    H9S12254   5.515   3.412   7.096 -1.2351 -0.9115 -0.1859
  117OSM    H9T12255   5.678   3.349   7.094  0.9493 -1.6678 -0.3941
  117OSM   C10S12256   5.542   3.250   7.239 -0.5759  0.2868 -0.4478
  117OSM   H10S12257   5.608   3.164   7.264 -2.9302 -0.9635  1.9502
  117OSM   H10T12258   5.442   3.201   7.228 -0.2173 -0.4360 -0.5514
  117OSM   C11S12259   5.537   3.343   7.355 -0.4306 -0.1723 -0.5937
  117OSM   H11S12260   5.510   3.444   7.316  0.3645  0.2527 -0.0698
  117OSM   H11T12261   5.644   3.354   7.382 -0.5745  0.5123 -0.2742
  117OSM   C12S12262   5.454   3.294   7.469  0.6131 -0.2372  0.1296
  117OSM   H12S12263   5.476   3.186   7.473  3.2113  0.0048 -3.0680
  117OSM   H12T12264   5.344   3.292   7.451  0.7037  0.6308 -0.6118
  117OSM   C13S12265   5.485   3.361   7.596  0.4806  0.3384  0.2180
  117OSM   H13S12266   5.442   3.462   7.584  2.3152  1.0992 -0.1845
  117OSM   H13T12267   5.592   3.387   7.608  0.5259 -0.4001  1.7130
  117OSM   C14S12268   5.424   3.299   7.721  0.4232 -0.3672 -0.0073
  117OSM   H14S12269   5.479   3.203   7.730  2.0906 -0.0344 -4.2565
  117OSM   H14T12270   5.319   3.270   7.700 -1.3762  3.1741  2.9278
  117OSM   C15S12271   5.447   3.389   7.849 -0.0143  0.1628  0.3305
  117OSM   H15S12272   5.398   3.486   7.827  1.3420  0.7843 -0.0213
  117OSM   H15T12273   5.555   3.410   7.862 -0.1342  1.9525 -1.0862
  117OSM   C16S12274   5.384   3.318   7.971  0.7149  0.3453  0.1838
  117OSM   H16S12275   5.412   3.373   8.063  2.8946  0.3364 -0.4363
  117OSM   H16T12276   5.429   3.217   7.980  0.0392 -0.1745 -1.8413
  117OSM   C17S12277   5.227   3.300   7.965 -0.5729 -0.1659  0.6925
  117OSM   H17S12278   5.191   3.245   7.876 -2.5222 -0.9320  1.8683
  117OSM   H17T12279   5.190   3.404   7.959  1.7375  0.7064  0.6912
  117OSM   C18S12280   5.171   3.223   8.077 -0.4570 -0.6039  0.2900
  117OSM   H18S12281   5.182   3.271   8.177  0.4685 -0.6338  0.2114
  117OSM   H18T12282   5.230   3.129   8.075  1.0577  0.3263 -1.3895
  117OSM   H18U12283   5.065   3.196   8.057 -0.8904 -0.5693  2.2990
  117OSM    C1F12284   5.431   3.737   6.658  0.4554 -0.4757 -0.4716
  117OSM     OF12285   5.342   3.803   6.612 -0.0178  0.3964 -0.5702
  117OSM    C2F12286   5.491   3.769   6.789 -0.3890  0.1504 -0.4188
  117OSM    H2F12287   5.559   3.856   6.777 -0.5814  0.3487 -0.0690
  117OSM    H2G12288   5.554   3.682   6.818 -1.7518  0.0102  2.4836
  117OSM    C3F12289   5.385   3.823   6.889  1.2213  0.2244  0.4239
  117OSM    H3F12290   5.289   3.769   6.898 -0.5472  3.3677  1.9541
  117OSM    H3G12291   5.360   3.927   6.860  0.0668  0.9132  3.5424
  117OSM    C4F12292   5.444   3.825   7.028  0.0766  0.5246  0.8219
  117OSM    H4F12293   5.530   3.895   7.032  0.6291 -0.1605  1.1133
  117OSM    H4G12294   5.478   3.722   7.051  1.2786  0.9846  1.1873
  117OSM    C5F12295   5.337   3.833   7.132 -0.0213 -0.2109 -0.8818
  117OSM    H5F12296   5.263   3.754   7.109  0.6463 -0.8040 -1.0541
  117OSM    H5G12297   5.286   3.931   7.124 -0.3581  0.0843  2.8231
  117OSM    C6F12298   5.398   3.830   7.276  0.2402  0.1548  0.0817
  117OSM    H6F12299   5.301   3.824   7.329 -0.0295 -2.1463 -0.5895
  117OSM    H6G12300   5.454   3.924   7.299  4.8614 -1.9923 -1.1593
  117OSM    C7F12301   5.497   3.717   7.316  0.3709  0.2432  0.6869
  117OSM    H7F12302   5.596   3.735   7.268 -0.0171  1.1250  0.2019
  117OSM    H7G12303   5.440   3.633   7.270 -0.1860 -0.2752  2.2376
  117OSM    C8F12304   5.517   3.692   7.460 -1.1859 -0.4891 -0.9752
  117OSM    H8F12305   5.571   3.596   7.472  1.0087  0.9716  1.8495
  117OSM    H8G12306   5.417   3.675   7.505 -1.0440  1.2246  0.0611
  117OSM    C9F12307   5.587   3.812   7.528  0.0140  1.1734  0.7357
  117OSM    H9F12308   5.633   3.871   7.448 -0.2655  0.0700 -0.2747
  117OSM   C10F12309   5.584   3.857   7.652 -0.5661 -0.1827  0.0019
  117OSM   H10F12310   5.642   3.947   7.677 -3.4370  2.6308 -2.6135
  117OSM   C11F12311   5.524   3.789   7.769  0.4027  0.0357 -0.3850
  117OSM   H11F12312   5.506   3.681   7.749 -0.9242  0.1688 -0.0019
  117OSM   H11G12313   5.433   3.846   7.799  1.5729  0.9464  1.6556
  117OSM   C12F12314   5.618   3.801   7.893  0.3955 -0.4698 -0.2522
  117OSM   H12F12315   5.641   3.907   7.915 -0.4961 -0.5536  1.2227
  117OSM   H12G12316   5.715   3.754   7.867  1.4760  0.4002  2.0030
  117OSM   C13F12317   5.571   3.723   8.016  0.3236 -0.0473 -0.0297
  117OSM   H13F12318   5.554   3.616   7.988 -3.0020 -0.1815  2.0546
  117OSM   H13G12319   5.472   3.756   8.054  0.6550  0.7264  0.1769
  117OSM   C14F12320   5.670   3.727   8.137  0.0565  0.1043 -0.1241
  117OSM   H14F12321   5.692   3.836   8.142 -0.8827  0.4504 -2.2911
  117OSM   H14G12322   5.756   3.664   8.104 -1.8942 -0.8789 -3.8596
  117OSM   C15F12323   5.609   3.674   8.266 -0.2791 -0.0275 -0.0662
  117OSM   H15F12324   5.558   3.578   8.240 -0.6555  0.3705 -0.8203
  117OSM   H15G12325   5.529   3.742   8.300 -0.3469 -0.2581  0.2462
  117OSM   C16F12326   5.711   3.655   8.386 -0.4296  0.2822  0.3180
  117OSM   H16F12327   5.666   3.609   8.477  1.1547  0.2960  1.1469
  117OSM   H16G12328   5.742   3.757   8.418  1.1258 -0.4592  1.3020
  117OSM   C17F12329   5.831   3.575   8.358  0.0309  0.8092  0.5327
  117OSM   H17F12330   5.854   3.508   8.443 -0.3089  2.4238  1.9486
  117OSM   H17G12331   5.826   3.501   8.275  1.0089 -1.2602  2.2328
  117OSM   C18F12332   5.958   3.668   8.324 -0.3136 -0.5998 -0.2535
  117OSM   H18F12333   5.983   3.744   8.401  0.9461  0.2813 -1.4721
  117OSM   H18G12334   5.935   3.726   8.232 -1.1757  0.5514  0.6587
  117OSM   H18H12335   6.043   3.600   8.305  1.3260  1.2367  0.1531
  118OSM      N12336   2.255   4.484   6.010  0.5344 -0.3678  1.2397
  118OSM    C1512337   2.180   4.454   6.132 -0.0234  0.6928  0.3390
  118OSM   H15A12338   2.227   4.506   6.214  0.0725 -1.5048  1.7337
  118OSM   H15B12339   2.170   4.348   6.146  3.8251 -0.3549 -2.8511
  118OSM   H15C12340   2.077   4.483   6.118 -0.5168 -0.9010  0.4920
  118OSM    C1412341   2.175   4.445   5.885  0.1575  0.0877  0.3067
  118OSM   H14A12342   2.144   4.342   5.887  2.1460 -0.7263 -3.2371
  118OSM   H14B12343   2.233   4.434   5.795 -1.6499  0.1542 -0.9255
  118OSM   H14C12344   2.093   4.512   5.863 -0.1526 -0.7668 -1.3212
  118OSM    C1312345   2.263   4.634   5.991  0.1830 -0.0178  0.0798
  118OSM   H13A12346   2.306   4.651   5.893  0.9044  1.2756  0.5980
  118OSM   H13B12347   2.340   4.667   6.059 -0.8072  0.6903  0.9014
  118OSM   H13C12348   2.167   4.681   6.004 -1.1397 -2.7254  0.9045
  118OSM    C1212349   2.386   4.411   6.026 -0.2485  1.1189 -1.0668
  118OSM   H12A12350   2.433   4.423   5.930  0.0309 -0.5556 -1.1684
  118OSM   H12B12351   2.363   4.308   6.050  0.8436  1.0257 -0.3485
  118OSM    C1112352   2.489   4.462   6.134  0.2931  0.3016 -0.2627
  118OSM   H11A12353   2.574   4.391   6.131 -0.3757 -0.4894 -1.1943
  118OSM   H11B12354   2.439   4.449   6.232 -0.0839  1.0042 -0.3549
  118OSM      P12355   2.631   4.635   6.020 -0.4489 -0.1430  0.1869
  118OSM    O1312356   2.649   4.526   5.925  0.3495  0.1737  0.5530
  118OSM    O1412357   2.603   4.766   5.963  0.0154  0.5470  0.4256
  118OSM    O1112358   2.766   4.645   6.100 -0.2314  0.2670  0.0968
  118OSM    O1212359   2.518   4.604   6.128 -1.0797  0.4373 -0.3501
  118OSM    C1S12360   2.781   4.727   6.218 -0.1174 -0.4022  0.3230
  118OSM    H1S12361   2.717   4.817   6.226 -1.8384 -1.7678  4.4328
  118OSM    H1T12362   2.885   4.766   6.223 -0.1903 -0.2704  0.8661
  118OSM     NF12363   2.763   4.737   6.457  0.7740  0.1316  0.8328
  118OSM    HNF12364   2.841   4.733   6.519  1.8909  0.6727 -0.4956
  118OSM    C2S12365   2.758   4.646   6.348 -0.4367 -1.2003 -0.1374
  118OSM    H2S12366   2.659   4.600   6.329 -0.6748 -0.8732  0.2966
  118OSM    C3S12367   2.852   4.520   6.363 -0.2138 -0.1493  0.5790
  118OSM    H3S12368   2.955   4.558   6.381  0.1221 -0.0881 -1.2351
  118OSM     O312369   2.861   4.443   6.242 -0.0931 -0.2536 -0.0913
  118OSM    HO312370   2.833   4.500   6.170  0.6671  2.8797  1.9237
  118OSM    C4S12371   2.806   4.435   6.477  0.0862  0.1016 -0.1022
  118OSM    H4S12372   2.701   4.409   6.461  0.1253  0.6266 -1.2959
  118OSM    C5S12373   2.884   4.399   6.583  0.3959 -0.2914  0.0649
  118OSM    H5S12374   2.992   4.420   6.589  0.5225 -0.5617 -0.9530
  118OSM    C6S12375   2.846   4.319   6.704 -0.1344 -0.0510 -0.5377
  118OSM    H6S12376   2.912   4.230   6.710 -0.0863  0.0508  0.8875
  118OSM    H6T12377   2.750   4.266   6.685  0.9480 -1.9487 -0.9709
  118OSM    C7S12378   2.825   4.379   6.838 -0.6488 -0.0009  0.8029
  118OSM    H7S12379   2.739   4.449   6.836 -1.3815 -0.8871  1.1721
  118OSM    H7T12380   2.908   4.448   6.866  0.8708 -0.5339 -1.9396
  118OSM    C8S12381   2.808   4.275   6.950 -0.0034 -0.5932 -0.1898
  118OSM    H8S12382   2.906   4.227   6.964 -0.3469 -1.8655 -1.8885
  118OSM    H8T12383   2.750   4.188   6.914 -0.6386  0.0923 -0.8730
  118OSM    C9S12384   2.768   4.346   7.077  0.3607 -0.6461 -0.4717
  118OSM    H9S12385   2.676   4.406   7.056 -0.6357 -2.2074 -0.7697
  118OSM    H9T12386   2.849   4.419   7.092  1.7889 -1.2787 -4.0157
  118OSM   C10S12387   2.727   4.258   7.197  0.4058 -0.0001 -0.4273
  118OSM   H10S12388   2.642   4.190   7.175 -0.3302  0.3714  1.0992
  118OSM   H10T12389   2.688   4.315   7.284  0.4350  0.9930 -1.0506
  118OSM   C11S12390   2.849   4.188   7.256  0.4805 -0.3422  0.2699
  118OSM   H11S12391   2.932   4.262   7.256 -0.5711  0.8980 -0.9649
  118OSM   H11T12392   2.877   4.106   7.186  0.5598  1.4563 -1.9390
  118OSM   C12S12393   2.834   4.126   7.395 -0.5403 -0.7880 -0.0919
  118OSM   H12S12394   2.923   4.063   7.417  0.6867  1.9433  4.1239
  118OSM   H12T12395   2.736   4.074   7.397 -0.4342 -0.9846  1.2547
  118OSM   C13S12396   2.824   4.230   7.501  0.9874 -1.3207  0.2548
  118OSM   H13S12397   2.730   4.288   7.494 -0.0347 -3.1173 -3.6710
  118OSM   H13T12398   2.911   4.300   7.493 -0.9523  1.2721  0.4364
  118OSM   C14S12399   2.831   4.169   7.647 -0.6564 -0.0300 -0.4952
  118OSM   H14S12400   2.813   4.256   7.714  0.6089  0.6792 -1.0446
  118OSM   H14T12401   2.936   4.143   7.675 -1.0256 -0.7368  0.2782
  118OSM   C15S12402   2.740   4.047   7.679  0.2418 -0.6309  0.3868
  118OSM   H15S12403   2.773   3.971   7.606 -0.4226 -1.0671  0.5295
  118OSM   H15T12404   2.637   4.079   7.651  1.3707  0.4030 -3.1782
  118OSM   C16S12405   2.742   3.997   7.825  0.1738  0.2369 -0.4755
  118OSM   H16S12406   2.673   3.909   7.832 -1.8631  1.8155  0.1864
  118OSM   H16T12407   2.707   4.082   7.886 -0.8405  0.0174 -0.7376
  118OSM   C17S12408   2.880   3.956   7.880 -0.1760  0.9010  0.2526
  118OSM   H17S12409   2.953   4.034   7.851  0.8993  0.0720  0.6867
  118OSM   H17T12410   2.910   3.853   7.850 -0.1222  0.2765  2.2983
  118OSM   C18S12411   2.878   3.957   8.032 -0.0174 -0.7042 -0.3412
  118OSM   H18S12412   2.980   3.988   8.064 -0.5684  2.1142 -1.0460
  118OSM   H18T12413   2.834   3.861   8.067 -3.5574  0.4818 -1.1192
  118OSM   H18U12414   2.814   4.038   8.073 -1.1956 -1.8420  0.1428
  118OSM    C1F12415   2.676   4.827   6.487  0.5835 -0.3713 -0.2549
  118OSM     OF12416   2.585   4.858   6.420  0.1509  0.5414  0.0625
  118OSM    C2F12417   2.691   4.887   6.621 -0.4586  0.2704 -1.4508
  118OSM    H2F12418   2.627   4.974   6.646  1.3436  0.6118  2.9606
  118OSM    H2G12419   2.795   4.924   6.638 -0.8887  0.3316  1.5729
  118OSM    C3F12420   2.661   4.784   6.734 -0.2595  0.4470  0.6312
  118OSM    H3F12421   2.700   4.686   6.699 -2.3790 -0.3466  0.3641
  118OSM    H3G12422   2.552   4.768   6.722 -0.1719  0.9587 -1.1062
  118OSM    C4F12423   2.720   4.826   6.868  1.0052  0.5847  0.0230
  118OSM    H4F12424   2.657   4.903   6.917  0.3710  0.3955 -0.4718
  118OSM    H4G12425   2.815   4.882   6.853  0.9430  0.6482 -0.1435
  118OSM    C5F12426   2.766   4.716   6.968  0.2228 -0.2951  0.2199
  118OSM    H5F12427   2.829   4.650   6.905 -0.6362 -0.4123 -0.5364
  118OSM    H5G12428   2.671   4.669   7.001 -0.3550 -1.6231 -2.9438
  118OSM    C6F12429   2.850   4.775   7.076  1.1804 -0.7184 -0.4005
  118OSM    H6F12430   2.918   4.856   7.039  2.0093 -1.0650  0.3220
  118OSM    H6G12431   2.932   4.710   7.113  0.8460 -0.3398  1.0696
  118OSM    C7F12432   2.774   4.821   7.207 -1.3196  0.1232  0.1452
  118OSM    H7F12433   2.709   4.908   7.184 -0.5652  0.8606  0.7233
  118OSM    H7G12434   2.854   4.872   7.265 -0.0761  0.6469 -1.9206
  118OSM    C8F12435   2.682   4.727   7.285 -0.2069 -0.0105  0.2363
  118OSM    H8F12436   2.610   4.689   7.210 -0.1174  1.4541 -0.6353
  118OSM    H8G12437   2.636   4.794   7.362 -1.3648  0.8222 -1.1330
  118OSM    C9F12438   2.774   4.625   7.345  1.0877  0.1046  0.8085
  118OSM    H9F12439   2.814   4.549   7.276 -2.2641 -2.6728  1.6641
  118OSM   C10F12440   2.802   4.605   7.469 -0.3572 -0.2784 -0.5670
  118OSM   H10F12441   2.840   4.509   7.507  0.4320  0.9301  1.9029
  118OSM   C11F12442   2.748   4.685   7.590 -0.8398  0.0294 -0.0166
  118OSM   H11F12443   2.701   4.781   7.559 -1.2323  0.1153  0.8095
  118OSM   H11G12444   2.825   4.707   7.666 -1.2739 -0.8925  0.7086
  118OSM   C12F12445   2.644   4.589   7.661 -0.1867 -0.8186  0.3960
  118OSM   H12F12446   2.687   4.495   7.702 -1.3996 -2.3552 -1.6597
  118OSM   H12G12447   2.564   4.554   7.592 -1.1060 -1.3417  1.6989
  118OSM   C13F12448   2.576   4.669   7.777  0.1182 -0.0336  0.3808
  118OSM   H13F12449   2.517   4.593   7.831 -0.6340  0.0721 -0.2725
  118OSM   H13G12450   2.505   4.749   7.747 -1.2065 -1.3165  0.0491
  118OSM   C14F12451   2.673   4.728   7.878 -0.0276 -0.5834  0.0220
  118OSM   H14F12452   2.718   4.822   7.839 -0.7703 -0.5487 -0.7964
  118OSM   H14G12453   2.756   4.656   7.889  0.7974  0.1068 -1.3986
  118OSM   C15F12454   2.609   4.754   8.010  0.2419  0.5622 -0.4645
  118OSM   H15F12455   2.500   4.768   7.997 -0.6673 -3.1646  1.6397
  118OSM   H15G12456   2.655   4.844   8.056 -2.0676  1.8356 -0.5013
  118OSM   C16F12457   2.631   4.631   8.102  0.0767 -0.6306 -0.0317
  118OSM   H16F12458   2.723   4.573   8.080  0.5614  0.1845 -0.2278
  118OSM   H16G12459   2.539   4.569   8.098 -0.3588 -0.0223  0.3021
  118OSM   C17F12460   2.626   4.666   8.250 -0.5307 -0.0096  0.1828
  118OSM   H17F12461   2.722   4.708   8.287  0.1295 -0.4462 -0.9694
  118OSM   H17G12462   2.604   4.576   8.310 -0.0348 -1.7067 -2.0400
  118OSM   C18F12463   2.507   4.766   8.290 -0.5984  0.1556 -0.4910
  118OSM   H18F12464   2.409   4.719   8.267 -0.2072 -0.9460 -0.0182
  118OSM   H18G12465   2.528   4.869   8.257  0.4352 -0.2808 -1.2555
  118OSM   H18H12466   2.508   4.765   8.402 -2.5702 -1.0349 -0.4389
  119OSM      N12467   2.130   6.366   5.643  0.3383  0.3085  0.3483
  119OSM    C1512468   2.133   6.515   5.668 -0.9058  0.0082 -0.4276
  119OSM   H15A12469   2.222   6.534   5.727 -1.9199  0.6477  0.9586
  119OSM   H15B12470   2.046   6.548   5.722 -0.2358  1.7820 -0.3691
  119OSM   H15C12471   2.139   6.582   5.584 -2.6824  3.0804  1.6932
  119OSM    C1412472   2.003   6.354   5.550 -0.5720  0.1985 -0.2498
  119OSM   H14A12473   1.924   6.397   5.609  1.9196  1.7322  2.2159
  119OSM   H14B12474   1.980   6.255   5.515  0.0289 -0.0371  0.0043
  119OSM   H14C12475   2.015   6.413   5.460 -0.5377  1.7213  0.7175
  119OSM    C1312476   2.251   6.312   5.577  0.0126  0.0800 -0.0395
  119OSM   H13A12477   2.336   6.314   5.643 -0.8538 -0.1810  1.1204
  119OSM   H13B12478   2.295   6.374   5.500  2.1912 -0.1745  0.9245
  119OSM   H13C12479   2.245   6.210   5.541  0.6287  0.6041 -1.7304
  119OSM    C1212480   2.099   6.297   5.778  0.8173  0.3116 -0.3230
  119OSM   H12A12481   2.068   6.194   5.768  2.2407 -0.2679  0.9242
  119OSM   H12B12482   2.021   6.358   5.822  1.6005  1.2381 -0.1785
  119OSM    C1112483   2.225   6.291   5.876  0.3047 -0.2781  0.5396
  119OSM   H11A12484   2.304   6.233   5.824  0.4178 -0.5603  1.0188
  119OSM   H11B12485   2.206   6.226   5.964  1.9209 -0.1691  1.0027
  119OSM      P12486   2.241   6.510   6.019 -0.1470 -0.2004  0.0141
  119OSM    O1312487   2.328   6.634   6.017  0.0625  0.1491 -0.2774
  119OSM    O1412488   2.095   6.534   6.013  0.5602 -0.1141  0.3962
  119OSM    O1112489   2.283   6.415   6.143  0.7614 -0.0320  0.0034
  119OSM    O1212490   2.284   6.422   5.902  0.1524 -0.3914 -0.0154
  119OSM    C1S12491   2.302   6.462   6.277 -0.0280 -0.2192  0.2972
  119OSM    H1S12492   2.287   6.572   6.280 -1.1575 -0.3736  2.8202
  119OSM    H1T12493   2.403   6.431   6.311  0.0979 -1.7021 -1.2709
  119OSM     NF12494   2.250   6.440   6.512  0.4302  0.2729  0.6236
  119OSM    HNF12495   2.288   6.375   6.578  1.0765 -1.5854 -1.4295
  119OSM    C2S12496   2.208   6.387   6.380  0.2212 -0.3711  0.6344
  119OSM    H2S12497   2.102   6.405   6.352  0.6459  0.8127 -0.3081
  119OSM    C3S12498   2.222   6.230   6.373 -0.2531 -0.5782 -0.1844
  119OSM    H3S12499   2.330   6.209   6.388  0.3534  1.6769 -0.9541
  119OSM     O312500   2.190   6.180   6.246 -0.4027 -0.1023  0.0984
  119OSM    HO312501   2.200   6.260   6.194  0.5897 -1.5505 -2.1018
  119OSM    C4S12502   2.143   6.157   6.478  0.2690  0.5248 -0.1531
  119OSM    H4S12503   2.043   6.199   6.500 -0.7939 -1.4716 -0.9316
  119OSM    C5S12504   2.179   6.042   6.548  0.3617  0.1151  0.7175
  119OSM    H5S12505   2.260   5.979   6.509 -0.2530 -1.4675  1.9004
  119OSM    C6S12506   2.104   5.979   6.654 -1.3883  0.1067 -0.1887
  119OSM    H6S12507   2.174   5.938   6.729 -1.7664  2.5246  1.6079
  119OSM    H6T12508   2.055   5.887   6.615  0.6016 -0.7893 -0.6938
  119OSM    C7S12509   2.002   6.057   6.740  0.1042  0.1438 -0.2319
  119OSM    H7S12510   1.926   6.101   6.672 -1.0093  0.6612  1.2953
  119OSM    H7T12511   2.053   6.143   6.789  0.9490 -0.8298  0.6259
  119OSM    C8S12512   1.940   5.982   6.848 -0.1904 -0.0517  0.4955
  119OSM    H8S12513   1.901   5.886   6.808  2.0824  0.2149 -2.7130
  119OSM    H8T12514   1.852   6.032   6.893  1.4261  3.6251 -0.1358
  119OSM    C9S12515   2.039   5.957   6.964 -0.8989 -0.2238 -0.1966
  119OSM    H9S12516   2.089   6.054   6.986 -2.8583  1.2523 -1.8591
  119OSM    H9T12517   2.106   5.874   6.933 -1.5394 -0.0436 -2.1988
  119OSM   C10S12518   1.971   5.921   7.099 -0.2920  0.3711  0.0225
  119OSM   H10S12519   1.890   5.847   7.082 -0.4869  0.6828 -0.4272
  119OSM   H10T12520   1.915   6.013   7.125 -1.3315 -0.5618  1.2618
  119OSM   C11S12521   2.064   5.876   7.213 -0.1784  0.3175 -0.5693
  119OSM   H11S12522   2.092   5.966   7.271 -1.6728  0.0815  0.5916
  119OSM   H11T12523   2.160   5.838   7.172  0.4194  2.0347 -0.8125
  119OSM   C12S12524   1.990   5.772   7.308  0.0915  0.9011  0.5889
  119OSM   H12S12525   2.074   5.711   7.348  2.4043  4.1123  0.9785
  119OSM   H12T12526   1.923   5.702   7.253 -1.9684  2.6687  0.7201
  119OSM   C13S12527   1.924   5.836   7.425  0.0497 -0.4076 -0.6651
  119OSM   H13S12528   2.001   5.895   7.478 -0.7592 -1.4206  1.7618
  119OSM   H13T12529   1.881   5.766   7.500  0.5110  0.7142  0.6670
  119OSM   C14S12530   1.811   5.926   7.386 -0.0666  0.9322  0.0888
  119OSM   H14S12531   1.745   5.878   7.312  0.3723  2.4038 -1.3223
  119OSM   H14T12532   1.843   6.020   7.335 -1.4017  1.2395 -0.2077
  119OSM   C15S12533   1.731   5.969   7.506  0.1106 -0.2681 -0.6366
  119OSM   H15S12534   1.792   6.024   7.581 -0.4466  0.2031 -0.5253
  119OSM   H15T12535   1.689   5.885   7.565 -0.5904  0.1688 -0.5116
  119OSM   C16S12536   1.614   6.069   7.483  0.0376 -0.6441  0.4863
  119OSM   H16S12537   1.643   6.141   7.404 -1.6579 -0.4861 -0.0463
  119OSM   H16T12538   1.610   6.118   7.582 -0.7130 -1.5346  0.9081
  119OSM   C17S12539   1.474   6.014   7.446  1.0792 -0.5890 -0.7910
  119OSM   H17S12540   1.460   5.918   7.501 -0.5742 -0.3133 -0.6781
  119OSM   H17T12541   1.466   6.001   7.336 -2.4273 -0.6214 -0.6539
  119OSM   C18S12542   1.353   6.109   7.486  0.4198 -0.3151  0.5426
  119OSM   H18S12543   1.342   6.123   7.595  1.6876  0.2871  0.6058
  119OSM   H18T12544   1.256   6.064   7.453 -0.6315  0.5872  2.2683
  119OSM   H18U12545   1.363   6.208   7.436 -0.2251 -0.0279  0.9595
  119OSM    C1F12546   2.248   6.571   6.538 -0.0990 -0.7981 -0.0940
  119OSM     OF12547   2.193   6.655   6.472  0.0918 -0.3053  0.2004
  119OSM    C2F12548   2.308   6.602   6.671 -0.0676  0.7022 -0.6637
  119OSM    H2F12549   2.384   6.524   6.692 -0.2303  0.7201 -0.0006
  119OSM    H2G12550   2.232   6.586   6.750 -2.1010 -2.0002 -2.9527
  119OSM    C3F12551   2.379   6.738   6.662 -0.3562 -0.0923 -0.2449
  119OSM    H3F12552   2.316   6.814   6.611 -2.0580  1.0011  3.1906
  119OSM    H3G12553   2.475   6.727   6.607 -0.6917 -0.2748 -0.8103
  119OSM    C4F12554   2.405   6.790   6.801  0.0848 -0.6016 -0.3866
  119OSM    H4F12555   2.323   6.761   6.870 -2.9045  2.7018 -2.1668
  119OSM    H4G12556   2.409   6.901   6.792  3.9076 -0.5578  0.2465
  119OSM    C5F12557   2.541   6.743   6.854 -0.4739  0.0752 -0.2021
  119OSM    H5F12558   2.618   6.779   6.783 -0.2901 -0.7988 -0.4585
  119OSM    H5G12559   2.545   6.632   6.857 -2.1566 -0.0155 -0.2216
  119OSM    C6F12560   2.562   6.796   7.002  0.4737 -0.5165 -0.2134
  119OSM    H6F12561   2.474   6.780   7.067 -0.7985  1.0445 -1.4830
  119OSM    H6G12562   2.575   6.906   6.997 -0.6050 -0.1996  2.3155
  119OSM    C7F12563   2.690   6.750   7.066 -0.8865  0.7436  0.2128
  119OSM    H7F12564   2.770   6.816   7.027 -0.8541  1.9198  2.1162
  119OSM    H7G12565   2.712   6.647   7.030  2.2382  0.8350  1.5271
  119OSM    C8F12566   2.691   6.750   7.223  0.3966 -0.0988  0.0024
  119OSM    H8F12567   2.594   6.708   7.257  0.2012 -0.2099 -0.6677
  119OSM    H8G12568   2.684   6.857   7.251  0.8924  0.1255 -0.7011
  119OSM    C9F12569   2.811   6.679   7.277 -0.4748  0.5942 -0.0943
  119OSM    H9F12570   2.893   6.683   7.204 -2.4131  1.0300 -2.3907
  119OSM   C10F12571   2.822   6.622   7.397 -0.5699  0.3139 -0.6629
  119OSM   H10F12572   2.916   6.578   7.433 -0.0625  2.9001  1.5268
  119OSM   C11F12573   2.716   6.619   7.503  0.1046 -0.0337 -0.5094
  119OSM   H11F12574   2.692   6.512   7.516 -0.3320  0.1345  0.0973
  119OSM   H11G12575   2.619   6.664   7.471 -1.6353 -2.1319  1.4394
  119OSM   C12F12576   2.767   6.670   7.644  0.4769 -0.0097 -0.4059
  119OSM   H12F12577   2.776   6.781   7.634  0.6435 -0.0384 -0.5851
  119OSM   H12G12578   2.868   6.628   7.661 -0.6906 -2.8501  0.0972
  119OSM   C13F12579   2.666   6.629   7.759 -0.6172 -0.2026  0.4709
  119OSM   H13F12580   2.645   6.521   7.772 -1.6226  0.2687  3.9288
  119OSM   H13G12581   2.567   6.671   7.729  0.1717  0.4246 -1.3964
  119OSM   C14F12582   2.712   6.694   7.887  0.2083  0.0207 -0.3436
  119OSM   H14F12583   2.706   6.804   7.870  0.3081  0.2161  0.8149
  119OSM   H14G12584   2.812   6.651   7.908  0.2287  0.0495 -0.3834
  119OSM   C15F12585   2.620   6.661   8.008 -0.3562 -0.0407  0.0862
  119OSM   H15F12586   2.627   6.552   8.028 -0.5095 -0.3415 -1.3932
  119OSM   H15G12587   2.513   6.682   7.987 -0.3633 -1.7875 -1.8632
  119OSM   C16F12588   2.667   6.737   8.131 -0.3587 -1.2030 -0.1486
  119OSM   H16F12589   2.661   6.847   8.115  0.6856 -0.9995  0.7334
  119OSM   H16G12590   2.773   6.704   8.136  0.9722  2.6082  0.4496
  119OSM   C17F12591   2.592   6.697   8.257  0.6805  0.1526  0.6053
  119OSM   H17F12592   2.592   6.586   8.254  1.0158  0.1503  0.6126
  119OSM   H17G12593   2.489   6.736   8.241  1.9773  2.9550 -1.8568
  119OSM   C18F12594   2.643   6.752   8.389 -0.4825 -1.3337  0.0985
  119OSM   H18F12595   2.740   6.703   8.411  0.1823 -0.5141 -0.9104
  119OSM   H18G12596   2.561   6.734   8.462 -1.4240 -3.3728 -1.3582
  119OSM   H18H12597   2.660   6.861   8.380 -0.7245 -1.3542 -0.7682
  120OSM      N12598   5.504   3.427   5.985  0.4854  0.0403 -0.1378
  120OSM    C1512599   5.577   3.333   5.903 -0.3902 -0.4028  0.2750
  120OSM   H15A12600   5.659   3.384   5.855 -0.1436 -0.6437  0.4362
  120OSM   H15B12601   5.515   3.281   5.832 -1.6139 -0.5484  1.4129
  120OSM   H15C12602   5.622   3.256   5.964  0.0798 -1.5757 -1.4696
  120OSM    C1412603   5.469   3.543   5.896 -0.2532  0.1433  0.2636
  120OSM   H14A12604   5.440   3.501   5.800 -1.2265  0.3068  0.4764
  120OSM   H14B12605   5.549   3.613   5.880 -0.7266  1.6196  3.6931
  120OSM   H14C12606   5.397   3.605   5.946  0.1936  1.7889 -1.0387
  120OSM    C1312607   5.379   3.354   6.031  0.0447 -1.2331 -0.4949
  120OSM   H13A12608   5.318   3.410   6.100  2.4313 -0.1320  0.8229
  120OSM   H13B12609   5.406   3.260   6.078 -0.2228  0.6240  3.8056
  120OSM   H13C12610   5.316   3.310   5.954 -0.5162  0.1023 -0.8167
  120OSM    C1212611   5.577   3.474   6.100  0.0878 -0.0708 -0.0901
  120OSM   H12A12612   5.586   3.395   6.174  0.6280 -1.6344 -1.7483
  120OSM   H12B12613   5.509   3.547   6.141  0.9041  0.8723 -0.3875
  120OSM    C1112614   5.715   3.528   6.076 -0.1747  0.2424  0.4360
  120OSM   H11A12615   5.752   3.591   6.159  1.1873  1.1725 -0.8313
  120OSM   H11B12616   5.719   3.586   5.982 -0.0492 -0.9111 -0.2904
  120OSM      P12617   5.855   3.333   6.180  0.1360  0.0720  0.3200
  120OSM    O1312618   5.741   3.254   6.242 -0.1511 -0.0443  0.5088
  120OSM    O1412619   5.973   3.256   6.129 -0.2463  0.1847 -0.3868
  120OSM    O1112620   5.908   3.439   6.288  0.6195  0.2591  0.0121
  120OSM    O1212621   5.807   3.423   6.062  0.1352  0.1949  0.1908
  120OSM    C1S12622   5.998   3.389   6.389  0.1205  0.1945 -0.0875
  120OSM    H1S12623   6.097   3.365   6.343  0.0183 -2.2554  0.7994
  120OSM    H1T12624   5.969   3.290   6.431  0.7617 -1.0676 -2.4005
  120OSM     NF12625   6.117   3.439   6.608 -0.0598 -0.0894  0.3231
  120OSM    HNF12626   6.093   3.374   6.681  1.3842 -0.5290  0.4369
  120OSM    C2S12627   6.019   3.487   6.514  1.2620 -0.4822  0.3895
  120OSM    H2S12628   6.051   3.587   6.479  0.7317 -0.2611  0.5289
  120OSM    C3S12629   5.888   3.522   6.590  0.0600  0.6444 -0.6029
  120OSM    H3S12630   5.861   3.432   6.648  3.8321  0.5178  1.2020
  120OSM     O312631   5.782   3.549   6.494  0.6669 -0.0095 -0.1753
  120OSM    HO312632   5.827   3.513   6.417  1.8092  0.0630  0.4422
  120OSM    C4S12633   5.906   3.632   6.697  0.3023  0.5173 -0.0921
  120OSM    H4S12634   5.994   3.693   6.671 -0.1265  0.8068 -0.9150
  120OSM    C5S12635   5.843   3.633   6.817 -0.3982  0.3104  0.2018
  120OSM    H5S12636   5.752   3.571   6.828 -0.6557  0.6829  0.1934
  120OSM    C6S12637   5.865   3.734   6.928 -0.0677 -0.1811 -0.6471
  120OSM    H6S12638   5.885   3.677   7.022  1.2006 -0.9583 -1.3647
  120OSM    H6T12639   5.763   3.777   6.940  0.3852  0.9696 -0.7635
  120OSM    C7S12640   5.968   3.846   6.906  0.9027  0.0320  0.6913
  120OSM    H7S12641   5.973   3.872   6.798  1.2234 -1.1573  0.4088
  120OSM    H7T12642   6.069   3.811   6.939  1.5578  0.3645 -0.8671
  120OSM    C8S12643   5.946   3.976   6.991  0.7325 -0.0336  0.5745
  120OSM    H8S12644   5.848   4.019   6.962  0.3810 -1.2814 -0.1738
  120OSM    H8T12645   6.016   4.060   6.971 -1.2241  2.6851  4.0303
  120OSM    C9S12646   5.941   3.941   7.142  0.2563  0.2943  0.2201
  120OSM    H9S12647   6.035   3.894   7.177 -0.8117 -1.9287  0.2278
  120OSM    H9T12648   5.865   3.871   7.182  0.3884  0.4526  0.7535
  120OSM   C10S12649   5.920   4.064   7.237 -0.0937 -0.0520 -0.1992
  120OSM   H10S12650   5.829   4.117   7.201  1.8148  3.4708 -0.2558
  120OSM   H10T12651   6.012   4.122   7.216 -0.4134 -0.0738 -1.7888
  120OSM   C11S12652   5.915   4.020   7.386  0.0377 -0.6870 -0.6603
  120OSM   H11S12653   5.999   3.961   7.429 -0.0912  0.8303  1.8547
  120OSM   H11T12654   5.827   3.956   7.407  0.3700 -0.0097  3.7273
  120OSM   C12S12655   5.912   4.136   7.487 -0.4558  0.6350  0.4420
  120OSM   H12S12656   5.826   4.201   7.458  0.0211  0.5008 -1.3546
  120OSM   H12T12657   6.005   4.196   7.485  1.1337 -1.7183 -1.2109
  120OSM   C13S12658   5.902   4.099   7.640 -0.5118  0.5813  0.2875
  120OSM   H13S12659   5.816   4.030   7.653 -0.4037  0.1645 -1.1153
  120OSM   H13T12660   5.879   4.194   7.693 -0.1924  0.6359  0.3312
  120OSM   C14S12661   6.031   4.041   7.695 -0.2156 -0.1788  0.1543
  120OSM   H14S12662   6.092   4.131   7.718 -1.2077  1.1824 -2.1620
  120OSM   H14T12663   6.085   3.981   7.619  3.0629  1.9213  0.6572
  120OSM   C15S12664   5.995   3.966   7.831 -0.0428  0.0342 -0.5255
  120OSM   H15S12665   6.087   3.910   7.860 -0.1126  0.9300  1.5934
  120OSM   H15T12666   5.920   3.887   7.808 -0.6758  0.1351  1.1126
  120OSM   C16S12667   5.949   4.054   7.954 -0.3924 -0.3880 -0.3377
  120OSM   H16S12668   5.848   4.093   7.930  0.2790  0.9522 -1.0956
  120OSM   H16T12669   6.022   4.138   7.960  0.6608 -1.3241  0.6670
  120OSM   C17S12670   5.943   3.977   8.085  0.6112 -0.5982 -0.9102
  120OSM   H17S12671   6.029   3.915   8.119  0.7579 -0.1333 -0.4104
  120OSM   H17T12672   5.871   3.898   8.055  1.1831 -0.6761 -2.1051
  120OSM   C18S12673   5.899   4.066   8.202 -0.1526  0.2731  0.2758
  120OSM   H18S12674   5.865   4.004   8.289 -1.3364  1.6987  0.8837
  120OSM   H18T12675   5.817   4.127   8.158  1.2003  2.3605  0.5065
  120OSM   H18U12676   5.988   4.127   8.227 -0.5217  1.2887 -0.8178
  120OSM    C1F12677   6.248   3.468   6.592  0.4223 -0.0520 -0.3269
  120OSM     OF12678   6.277   3.566   6.524 -0.5756 -0.4751  0.0216
  120OSM    C2F12679   6.345   3.392   6.672  0.1220  0.6045 -0.3576
  120OSM    H2F12680   6.389   3.308   6.614 -2.7804  0.7573 -3.0751
  120OSM    H2G12681   6.292   3.359   6.763  1.3065 -0.4861 -0.0357
  120OSM    C3F12682   6.462   3.472   6.722 -1.1370  0.1183 -0.2155
  120OSM    H3F12683   6.437   3.555   6.791 -1.2130 -0.0260 -0.0705
  120OSM    H3G12684   6.521   3.504   6.633 -0.5330  0.0391  0.1503
  120OSM    C4F12685   6.569   3.381   6.801  1.2235 -0.3408  0.6395
  120OSM    H4F12686   6.596   3.294   6.737  0.5284  0.7973 -1.2590
  120OSM    H4G12687   6.519   3.341   6.893 -0.4673 -0.6819 -0.3909
  120OSM    C5F12688   6.700   3.449   6.814 -0.3863 -0.1284  0.5387
  120OSM    H5F12689   6.690   3.559   6.806 -1.0417 -0.1678  0.8089
  120OSM    H5G12690   6.773   3.419   6.736 -0.6466 -1.1582  0.6774
  120OSM    C6F12691   6.780   3.422   6.947  0.8381 -0.5641  0.5022
  120OSM    H6F12692   6.876   3.477   6.947  1.1988 -1.1070 -1.2638
  120OSM    H6G12693   6.808   3.315   6.952 -0.1928 -0.8227  0.9920
  120OSM    C7F12694   6.700   3.471   7.067 -0.2797 -0.6371 -0.5966
  120OSM    H7F12695   6.603   3.418   7.077  0.0921 -1.2176  0.0413
  120OSM    H7G12696   6.675   3.579   7.059 -1.3745 -0.8117  0.2241
  120OSM    C8F12697   6.765   3.444   7.201 -0.3859  1.0592 -0.8185
  120OSM    H8F12698   6.781   3.335   7.192 -2.6837  0.6098  0.0414
  120OSM    H8G12699   6.694   3.456   7.285  1.9770  1.2303  1.2559
  120OSM    C9F12700   6.900   3.506   7.223 -0.1899 -0.1876  1.4346
  120OSM    H9F12701   6.985   3.469   7.164 -0.1126  0.8890  0.8312
  120OSM   C10F12702   6.928   3.593   7.317  0.3663  0.0257 -0.4733
  120OSM   H10F12703   7.033   3.618   7.339  0.2570 -1.5162  2.1420
  120OSM   C11F12704   6.830   3.640   7.424  0.1807  0.2427 -0.2918
  120OSM   H11F12705   6.723   3.628   7.398  0.7217 -3.1871 -1.3817
  120OSM   H11G12706   6.840   3.749   7.444 -1.8011  0.3142  0.6389
  120OSM   C12F12707   6.851   3.552   7.550  0.8313  0.0915  0.2092
  120OSM   H12F12708   6.960   3.542   7.569  0.7831 -0.1546  0.3550
  120OSM   H12G12709   6.799   3.455   7.537  0.7887  0.4086 -2.4977
  120OSM   C13F12710   6.793   3.626   7.673  0.0368 -0.5345 -0.1329
  120OSM   H13F12711   6.684   3.646   7.660  0.3209 -0.1398 -2.2733
  120OSM   H13G12712   6.847   3.723   7.674  0.1678 -0.5921 -0.8705
  120OSM   C14F12713   6.834   3.566   7.802 -0.1457  0.0395  0.3446
  120OSM   H14F12714   6.944   3.578   7.809 -0.1070  0.5219 -0.7664
  120OSM   H14G12715   6.812   3.458   7.806 -0.3999  0.0006 -1.1827
  120OSM   C15F12716   6.765   3.632   7.922  0.3330 -0.3524 -0.2393
  120OSM   H15F12717   6.811   3.584   8.011 -2.1942 -2.8069 -0.1005
  120OSM   H15G12718   6.656   3.614   7.934  0.0859  1.3606  0.2592
  120OSM   C16F12719   6.790   3.784   7.929 -1.2275 -0.3062 -0.1004
  120OSM   H16F12720   6.748   3.842   7.844  0.9571  0.4186 -0.7448
  120OSM   H16G12721   6.900   3.799   7.928 -0.9666 -1.9620 -1.9479
  120OSM   C17F12722   6.731   3.834   8.066 -0.3500 -0.4530  0.3048
  120OSM   H17F12723   6.631   3.791   8.084 -0.9875  0.8128 -0.1215
  120OSM   H17G12724   6.706   3.941   8.047 -2.0619 -0.9459 -0.3865
  120OSM   C18F12725   6.828   3.832   8.185 -0.8193 -0.8407  0.2218
  120OSM   H18F12726   6.927   3.861   8.145 -1.0033 -0.0578  0.3125
  120OSM   H18G12727   6.843   3.734   8.234  0.5392 -0.6441  0.2168
  120OSM   H18H12728   6.793   3.915   8.250 -2.2479  0.7580 -2.4036
  121OSM      N12729   3.285   2.372   5.587  0.3890 -0.5713 -0.5393
  121OSM    C1512730   3.161   2.355   5.667  0.4187  0.1042  0.2319
  121OSM   H15A12731   3.115   2.258   5.654 -1.6899  1.1558 -0.5328
  121OSM   H15B12732   3.087   2.429   5.642  1.1951  0.2941 -1.6628
  121OSM   H15C12733   3.187   2.358   5.772  1.3385  1.8352 -0.0088
  121OSM    C1412734   3.382   2.259   5.621 -0.1393 -1.0276  0.4818
  121OSM   H14A12735   3.379   2.260   5.729 -0.2073 -0.3798  0.4779
  121OSM   H14B12736   3.476   2.289   5.578 -0.8024  0.8358  0.2010
  121OSM   H14C12737   3.346   2.165   5.582 -1.6610 -0.1115 -0.4415
  121OSM    C1312738   3.256   2.359   5.445  0.3446 -0.2198  0.2601
  121OSM   H13A12739   3.347   2.379   5.389  0.3746 -0.8885  0.0554
  121OSM   H13B12740   3.175   2.420   5.410 -1.3707 -3.1548 -1.2474
  121OSM   H13C12741   3.230   2.258   5.415 -1.4602  0.5315 -0.8111
  121OSM    C1212742   3.348   2.507   5.611  0.1226 -1.0526 -0.2673
  121OSM   H12A12743   3.277   2.588   5.600  2.1374  0.8673  0.0781
  121OSM   H12B12744   3.412   2.531   5.528 -1.2978  1.0533 -0.8334
  121OSM    C1112745   3.431   2.531   5.746  0.2430  0.5718 -0.2097
  121OSM   H11A12746   3.511   2.608   5.733 -0.2051  1.3414  1.3661
  121OSM   H11B12747   3.499   2.445   5.762  0.2018  0.6682  0.5149
  121OSM      P12748   3.332   2.478   5.989  0.1139  0.0928  0.3598
  121OSM    O1312749   3.195   2.435   6.001 -0.1044  0.5323  0.6976
  121OSM    O1412750   3.438   2.378   5.982  0.8272  0.3432  0.2626
  121OSM    O1112751   3.363   2.574   6.110  0.2000 -0.2714  0.3236
  121OSM    O1212752   3.345   2.573   5.860  0.0012  0.0955 -0.2615
  121OSM    C1S12753   3.447   2.686   6.118 -0.2365  0.2605  0.6113
  121OSM    H1S12754   3.392   2.779   6.091  0.1193  0.7789  1.6167
  121OSM    H1T12755   3.543   2.669   6.063 -0.4715 -1.7019  0.7403
  121OSM     NF12756   3.508   2.843   6.294  1.0156 -0.1704  0.3384
  121OSM    HNF12757   3.601   2.877   6.300  0.4861  2.0396 -2.2217
  121OSM    C2S12758   3.487   2.704   6.266 -0.0404 -0.1020 -0.3009
  121OSM    H2S12759   3.401   2.678   6.331 -0.4002  1.6721 -0.0143
  121OSM    C3S12760   3.604   2.615   6.309 -0.3623 -0.2620 -0.5477
  121OSM    H3S12761   3.687   2.654   6.246  0.4985 -0.3565  0.4983
  121OSM     O312762   3.586   2.482   6.267  0.4150  0.0518  0.3063
  121OSM    HO312763   3.502   2.479   6.221  0.6916 -2.1981 -0.1430
  121OSM    C4S12764   3.629   2.611   6.450 -0.2919 -0.0185  0.3132
  121OSM    H4S12765   3.572   2.533   6.502 -0.3558  0.1442  0.4869
  121OSM    C5S12766   3.726   2.673   6.525 -0.6030 -0.8370 -0.4227
  121OSM    H5S12767   3.808   2.733   6.482  0.0529 -0.5741  1.1227
  121OSM    C6S12768   3.749   2.653   6.674  0.0297 -0.6060  0.2298
  121OSM    H6S12769   3.749   2.758   6.711  0.2283  0.2766 -2.1131
  121OSM    H6T12770   3.852   2.616   6.691 -0.4313 -1.6113  0.9078
  121OSM    C7S12771   3.651   2.561   6.753  0.7476  0.7997 -0.2885
  121OSM    H7S12772   3.668   2.460   6.709 -0.2034  0.5904 -0.1928
  121OSM    H7T12773   3.545   2.582   6.731  0.3450 -2.6355 -2.2698
  121OSM    C8S12774   3.663   2.573   6.911  0.4918 -0.3000  0.0924
  121OSM    H8S12775   3.627   2.673   6.942  1.4458  0.3802 -0.9340
  121OSM    H8T12776   3.772   2.570   6.929  0.2317 -0.8425  1.8588
  121OSM    C9S12777   3.600   2.451   6.975 -0.2257 -0.2160  0.0286
  121OSM    H9S12778   3.640   2.359   6.928  0.0685 -0.1260  0.1044
  121OSM    H9T12779   3.497   2.463   6.934 -0.9187 -1.8047  1.1873
  121OSM   C10S12780   3.605   2.442   7.136 -0.1513 -0.5209  0.5701
  121OSM   H10S12781   3.574   2.545   7.164 -0.9547 -0.0218 -1.8963
  121OSM   H10T12782   3.709   2.433   7.176 -2.1702 -0.2644  6.9952
  121OSM   C11S12783   3.497   2.347   7.196 -0.1475  1.3089 -0.4624
  121OSM   H11S12784   3.519   2.248   7.150 -0.1809  1.0179  0.1296
  121OSM   H11T12785   3.390   2.372   7.178  0.1097  2.7974 -0.0305
  121OSM   C12S12786   3.515   2.325   7.345 -0.5780 -1.0627 -0.1227
  121OSM   H12S12787   3.509   2.421   7.401 -1.0632 -0.4633 -1.1684
  121OSM   H12T12788   3.607   2.263   7.351 -0.8990 -1.4436  1.7920
  121OSM   C13S12789   3.415   2.238   7.413 -0.3199  0.2514 -0.7130
  121OSM   H13S12790   3.398   2.141   7.361 -2.1201 -0.8651  1.7517
  121OSM   H13T12791   3.312   2.276   7.430 -1.3042 -2.1390 -0.8674
  121OSM   C14S12792   3.460   2.192   7.555  0.3410  0.7511  1.3173
  121OSM   H14S12793   3.491   2.286   7.604  0.5955  0.5377  1.5659
  121OSM   H14T12794   3.550   2.128   7.541 -0.3546 -0.2091  1.1197
  121OSM   C15S12795   3.347   2.120   7.630 -0.2133  0.1147 -0.0451
  121OSM   H15S12796   3.305   2.037   7.569 -0.2470 -0.0966  0.2623
  121OSM   H15T12797   3.262   2.190   7.650 -1.6174 -1.0349 -1.6658
  121OSM   C16S12798   3.409   2.075   7.763 -0.6641 -0.1681  0.1575
  121OSM   H16S12799   3.437   2.165   7.822 -0.3166 -0.2749  0.1597
  121OSM   H16T12800   3.501   2.015   7.747 -1.0107 -0.4454 -0.8562
  121OSM   C17S12801   3.307   2.004   7.854  0.4968  0.0120  0.0348
  121OSM   H17S12802   3.283   1.919   7.786  0.4705  0.4071 -0.4544
  121OSM   H17T12803   3.214   2.065   7.856 -0.1429 -0.6569 -3.2041
  121OSM   C18S12804   3.355   1.949   7.994  0.2762 -1.2798  0.1395
  121OSM   H18S12805   3.385   2.040   8.051 -0.0224 -1.4223  0.5276
  121OSM   H18T12806   3.446   1.885   7.988  0.5482 -0.8187 -0.8938
  121OSM   H18U12807   3.285   1.893   8.059  1.7533 -2.4829  0.7578
  121OSM    C1F12808   3.417   2.944   6.291  0.6309 -0.1164  0.2148
  121OSM     OF12809   3.299   2.926   6.261  0.1264  0.1521 -0.3812
  121OSM    C2F12810   3.454   3.085   6.328 -0.0693  0.4187 -0.4012
  121OSM    H2F12811   3.365   3.149   6.309 -0.7046 -0.1471  0.5810
  121OSM    H2G12812   3.540   3.125   6.271 -0.9326  3.1374  0.0823
  121OSM    C3F12813   3.503   3.101   6.477  0.5255  0.6748 -0.2765
  121OSM    H3F12814   3.511   3.210   6.494 -1.8177  0.9002 -0.3076
  121OSM    H3G12815   3.603   3.054   6.489 -0.0455 -0.0916  2.1400
  121OSM    C4F12816   3.415   3.032   6.583  0.1966  0.3904  0.2014
  121OSM    H4F12817   3.420   2.921   6.586 -3.3988  0.0890  3.0900
  121OSM    H4G12818   3.307   3.058   6.571 -0.0429 -0.1493  1.0452
  121OSM    C5F12819   3.447   3.088   6.730 -0.2021  0.3874  0.0571
  121OSM    H5F12820   3.364   3.059   6.797 -2.6501 -0.0295 -2.9576
  121OSM    H5G12821   3.438   3.198   6.717 -1.8234  0.1366 -1.2761
  121OSM    C6F12822   3.587   3.045   6.774  0.5985 -0.8106 -0.5393
  121OSM    H6F12823   3.663   3.098   6.713 -0.3959  0.1440 -0.9909
  121OSM    H6G12824   3.604   2.938   6.751 -0.8040 -1.2367  0.2418
  121OSM    C7F12825   3.622   3.066   6.923  1.2878 -0.5010 -0.5779
  121OSM    H7F12826   3.538   3.035   6.988  2.0900  0.6489  1.0995
  121OSM    H7G12827   3.611   3.176   6.927 -2.2071 -0.7425  3.8994
  121OSM    C8F12828   3.755   3.012   6.957  0.2054  0.2823 -0.4239
  121OSM    H8F12829   3.830   3.048   6.882 -2.7389  1.9793 -2.7727
  121OSM    H8G12830   3.743   2.902   6.946  0.5406  0.2877 -0.8694
  121OSM    C9F12831   3.788   3.051   7.094 -0.4571 -0.7694 -0.1174
  121OSM    H9F12832   3.811   3.158   7.107 -0.1740 -0.9970  1.3902
  121OSM   C10F12833   3.777   2.984   7.212  0.2744 -0.0385  0.5368
  121OSM   H10F12834   3.806   3.029   7.308  0.5121  1.3131 -0.1430
  121OSM   C11F12835   3.722   2.843   7.215  0.2553  0.0894 -0.2982
  121OSM   H11F12836   3.802   2.767   7.202 -0.4701 -0.6812 -0.2814
  121OSM   H11G12837   3.655   2.818   7.131 -0.1814 -0.3910  0.1887
  121OSM   C12F12838   3.655   2.808   7.342  0.0315  0.1407  0.7499
  121OSM   H12F12839   3.631   2.701   7.323 -0.2117  0.8052 -3.7327
  121OSM   H12G12840   3.560   2.867   7.341 -0.1041 -0.0764  0.4858
  121OSM   C13F12841   3.745   2.821   7.464  0.1688  0.7528 -1.3860
  121OSM   H13F12842   3.737   2.926   7.498 -1.4064  1.0869 -2.6785
  121OSM   H13G12843   3.850   2.796   7.441 -0.4638 -2.0924 -1.5750
  121OSM   C14F12844   3.691   2.728   7.581 -0.9719  0.0139  0.9981
  121OSM   H14F12845   3.777   2.663   7.610 -0.9963 -0.0302  0.9714
  121OSM   H14G12846   3.607   2.662   7.551  0.3659 -0.6378 -1.5482
  121OSM   C15F12847   3.670   2.816   7.702 -0.1612  0.7066 -0.3445
  121OSM   H15F12848   3.576   2.871   7.679  0.4630  2.0089  0.1444
  121OSM   H15G12849   3.759   2.875   7.730  1.5057 -2.5864  1.9515
  121OSM   C16F12850   3.639   2.742   7.834  0.2505  0.4935  0.3927
  121OSM   H16F12851   3.724   2.671   7.843 -1.6015 -1.9566 -0.3693
  121OSM   H16G12852   3.541   2.691   7.827  0.9269 -1.0320  1.3409
  121OSM   C17F12853   3.643   2.828   7.956 -0.9237 -0.0846  0.0249
  121OSM   H17F12854   3.607   2.932   7.939 -3.1597 -0.8570 -0.3030
  121OSM   H17G12855   3.752   2.833   7.979 -0.8763 -0.1569 -0.1802
  121OSM   C18F12856   3.569   2.768   8.079  0.1336 -0.1178  0.7582
  121OSM   H18F12857   3.620   2.671   8.098  2.3645  0.4363 -1.7871
  121OSM   H18G12858   3.466   2.746   8.043  0.0219  1.4461  0.0747
  121OSM   H18H12859   3.558   2.841   8.162 -0.0302  1.3429 -0.5088
  122OSM      N12860   1.289   6.600   5.891 -0.7740  0.1561  0.1561
  122OSM    C1512861   1.156   6.536   5.920  0.5982  0.0721  0.1650
  122OSM   H15A12862   1.155   6.461   5.998  1.0526 -1.5447 -1.3306
  122OSM   H15B12863   1.111   6.486   5.837  1.5259 -1.1830  0.3844
  122OSM   H15C12864   1.086   6.612   5.953 -2.6411 -3.7652  3.0737
  122OSM    C1412865   1.337   6.688   6.003 -0.0760  0.3276 -0.0488
  122OSM   H14A12866   1.425   6.741   5.969 -0.4545  0.5069 -0.7751
  122OSM   H14B12867   1.361   6.633   6.093  1.3106  0.8351 -0.0795
  122OSM   H14C12868   1.260   6.760   6.026  0.6961  1.6442 -1.4172
  122OSM    C1312869   1.388   6.492   5.853  0.1995  0.1632  0.3924
  122OSM   H13A12870   1.347   6.422   5.781 -2.0841  0.8307  0.9532
  122OSM   H13B12871   1.406   6.426   5.937  2.1248  1.0170  0.6944
  122OSM   H13C12872   1.471   6.540   5.805  1.5227 -0.4104  2.0159
  122OSM    C1212873   1.269   6.690   5.756 -0.1249  1.1599  0.0819
  122OSM   H12A12874   1.218   6.633   5.680  0.0068  0.0259  0.8219
  122OSM   H12B12875   1.366   6.714   5.715  0.4249 -1.1323 -0.1036
  122OSM    C1112876   1.180   6.813   5.772 -0.1979 -0.0654  0.2472
  122OSM   H11A12877   1.078   6.795   5.812 -0.2068  3.2751  2.1109
  122OSM   H11B12878   1.159   6.849   5.670 -2.7146 -4.6930 -1.1410
  122OSM      P12879   1.378   6.984   5.818  0.2257 -0.0091 -0.0581
  122OSM    O1312880   1.462   6.892   5.739  0.7388 -0.0905 -0.7541
  122OSM    O1412881   1.343   7.122   5.769 -0.0561 -0.0517  0.6423
  122OSM    O1112882   1.448   6.997   5.961 -0.6023  0.0738  0.7360
  122OSM    O1212883   1.244   6.909   5.851  0.0536 -0.1937  0.4452
  122OSM    C1S12884   1.368   7.049   6.065  0.2217  0.1456 -0.0942
  122OSM    H1S12885   1.260   7.022   6.058  0.0941  0.7908 -0.8049
  122OSM    H1T12886   1.380   7.159   6.064  0.7163  0.1001  0.3767
  122OSM     NF12887   1.301   7.005   6.299  0.4624  0.2360 -0.3512
  122OSM    HNF12888   1.321   7.071   6.371 -1.1614  1.4495 -0.9531
  122OSM    C2S12889   1.413   6.990   6.203  0.4877 -0.3625  0.1859
  122OSM    H2S12890   1.429   6.881   6.196 -1.9870 -0.8629  1.1123
  122OSM    C3S12891   1.554   7.050   6.247  0.4908 -0.2798  0.5850
  122OSM    H3S12892   1.562   7.155   6.284  0.2291 -0.4110  1.0139
  122OSM     O312893   1.650   7.048   6.142 -0.4723  0.1074 -0.2625
  122OSM    HO312894   1.601   7.016   6.067 -0.5427  1.3700 -0.7809
  122OSM    C4S12895   1.609   6.965   6.363  0.0650  0.2517 -0.0365
  122OSM    H4S12896   1.656   6.872   6.328 -1.1859 -0.2285 -0.5000
  122OSM    C5S12897   1.619   6.997   6.492 -0.2819 -0.7245 -0.1834
  122OSM    H5S12898   1.570   7.093   6.514  0.8347 -0.2356  0.2400
  122OSM    C6S12899   1.692   6.917   6.602  0.8846 -0.0882  0.1544
  122OSM    H6S12900   1.763   6.985   6.654 -0.2935  4.0998 -3.1684
  122OSM    H6T12901   1.753   6.834   6.561  0.9022  0.8396 -1.8045
  122OSM    C7S12902   1.592   6.841   6.694 -0.6129  0.4344 -0.1002
  122OSM    H7S12903   1.532   6.769   6.633 -1.3385 -0.3204  1.4399
  122OSM    H7T12904   1.515   6.915   6.726 -1.2278  0.5088 -1.6644
  122OSM    C8S12905   1.655   6.779   6.822 -0.0113 -0.0971 -0.3704
  122OSM    H8S12906   1.751   6.729   6.799  0.2852 -0.4324  1.4372
  122OSM    H8T12907   1.586   6.698   6.854  1.5598 -1.1723  0.4190
  122OSM    C9S12908   1.682   6.889   6.932  0.8153  0.1151  0.7226
  122OSM    H9S12909   1.585   6.936   6.959  0.5977  0.3849 -0.4501
  122OSM    H9T12910   1.745   6.977   6.907  0.6121  0.0665  0.0247
  122OSM   C10S12911   1.727   6.817   7.062 -0.2639 -0.6031 -0.6451
  122OSM   H10S12912   1.819   6.765   7.028  0.9792  1.9288 -1.3822
  122OSM   H10T12913   1.648   6.741   7.080  0.7872 -1.6899 -0.5079
  122OSM   C11S12914   1.747   6.909   7.182  0.1684 -0.1960 -0.1255
  122OSM   H11S12915   1.648   6.953   7.207  0.2392 -0.5500  0.8114
  122OSM   H11T12916   1.815   6.994   7.159 -0.1146  0.0604 -0.0198
  122OSM   C12S12917   1.794   6.821   7.300 -0.0975 -0.3079  0.4797
  122OSM   H12S12918   1.894   6.780   7.277 -0.8297 -1.4234 -0.8924
  122OSM   H12T12919   1.725   6.736   7.317 -3.1602  1.9668  0.2331
  122OSM   C13S12920   1.792   6.901   7.434 -0.6446  0.7542 -0.3686
  122OSM   H13S12921   1.683   6.918   7.447 -0.3509  2.3477  0.2253
  122OSM   H13T12922   1.839   7.001   7.420  0.9643 -0.1456 -1.7411
  122OSM   C14S12923   1.851   6.826   7.558  0.1291  0.1066  0.2584
  122OSM   H14S12924   1.952   6.867   7.578  0.4121 -0.1984 -0.5203
  122OSM   H14T12925   1.864   6.720   7.527 -0.3227  0.7010 -2.1530
  122OSM   C15S12926   1.756   6.816   7.680 -0.2422  0.4476  0.1026
  122OSM   H15S12927   1.666   6.754   7.658  0.6480 -1.0324  0.5502
  122OSM   H15T12928   1.727   6.923   7.692  0.7217  0.4904  2.7009
  122OSM   C16S12929   1.831   6.774   7.812  0.7861  0.0887  0.5807
  122OSM   H16S12930   1.922   6.835   7.831  0.7292  0.2459  0.3521
  122OSM   H16T12931   1.863   6.667   7.811  1.0820  0.1773 -0.3245
  122OSM   C17S12932   1.742   6.778   7.934  0.0363  0.2780  0.1536
  122OSM   H17S12933   1.801   6.756   8.026 -0.5233 -1.6316  0.0889
  122OSM   H17T12934   1.666   6.697   7.930 -1.3616  1.5781 -0.8225
  122OSM   C18S12935   1.673   6.913   7.954  0.3767 -0.1473 -0.0050
  122OSM   H18S12936   1.603   6.914   8.041 -0.3914 -0.4370 -0.6128
  122OSM   H18T12937   1.622   6.956   7.866  0.9237  0.2958 -0.1164
  122OSM   H18U12938   1.763   6.975   7.977  2.0351 -1.8050 -1.6792
  122OSM    C1F12939   1.184   6.934   6.295 -0.5057  0.1662 -0.5670
  122OSM     OF12940   1.166   6.856   6.200 -0.0375 -0.8570 -0.2177
  122OSM    C2F12941   1.104   6.947   6.421  0.8728  0.8470  0.0945
  122OSM    H2F12942   1.101   7.055   6.447  0.5302  0.6039  1.0748
  122OSM    H2G12943   1.152   6.902   6.510 -0.7833  2.2496  1.7872
  122OSM    C3F12944   0.957   6.899   6.411  0.0820  0.1852  0.3368
  122OSM    H3F12945   0.955   6.797   6.369  0.2667  1.2331 -2.3982
  122OSM    H3G12946   0.920   6.962   6.327  0.7219  0.2715  0.1137
  122OSM    C4F12947   0.878   6.895   6.543 -0.3352 -0.3096 -0.1362
  122OSM    H4F12948   0.783   6.851   6.507  0.4930 -3.0160  0.7963
  122OSM    H4G12949   0.860   6.998   6.583 -0.6276  0.0035 -1.0438
  122OSM    C5F12950   0.926   6.782   6.636 -0.5279 -0.8405 -1.2773
  122OSM    H5F12951   1.020   6.808   6.690 -0.9257 -2.3262  0.2369
  122OSM    H5G12952   0.940   6.684   6.585  0.2443 -1.5629  0.2513
  122OSM    C6F12953   0.819   6.739   6.744 -0.7696  0.4201  0.6874
  122OSM    H6F12954   0.860   6.648   6.793  0.7422  1.3250  1.1412
  122OSM    H6G12955   0.732   6.720   6.678 -1.2023  1.6810  0.8698
  122OSM    C7F12956   0.778   6.837   6.846 -0.7131 -0.5448  0.4530
  122OSM    H7F12957   0.778   6.932   6.788  1.7997 -1.4811 -1.2290
  122OSM    H7G12958   0.860   6.833   6.921 -1.6635  1.7525  1.7290
  122OSM    C8F12959   0.639   6.817   6.903 -0.0209  0.9931 -0.9423
  122OSM    H8F12960   0.554   6.843   6.837 -0.7946 -2.2169 -1.3605
  122OSM    H8G12961   0.628   6.885   6.991 -2.7086 -1.9945  1.2746
  122OSM    C9F12962   0.615   6.679   6.959 -0.2362 -0.5631 -0.5004
  122OSM    H9F12963   0.594   6.605   6.880 -0.7595 -1.4676  0.4499
  122OSM   C10F12964   0.599   6.642   7.090 -0.3054  0.8987  0.0212
  122OSM   H10F12965   0.584   6.537   7.119 -1.5813  1.1908  0.4590
  122OSM   C11F12966   0.615   6.736   7.207 -0.4986  0.0648 -0.8705
  122OSM   H11F12967   0.521   6.773   7.252  0.1147  0.9542 -0.2969
  122OSM   H11G12968   0.677   6.824   7.182  0.7694 -0.7373 -0.6645
  122OSM   C12F12969   0.692   6.657   7.320  0.0414 -0.0286  0.2269
  122OSM   H12F12970   0.795   6.637   7.283 -0.3554 -3.4906  0.6594
  122OSM   H12G12971   0.656   6.555   7.344  1.4610 -0.9547 -1.3147
  122OSM   C13F12972   0.694   6.729   7.451 -0.1595 -0.5626 -0.4548
  122OSM   H13F12973   0.594   6.715   7.499  0.0937 -0.8202  0.0003
  122OSM   H13G12974   0.700   6.838   7.430  0.7092 -0.9931 -2.7395
  122OSM   C14F12975   0.786   6.667   7.557 -0.5992  0.2324  0.0367
  122OSM   H14F12976   0.888   6.663   7.513 -0.9283  1.4750 -0.8780
  122OSM   H14G12977   0.753   6.566   7.590 -1.4599  0.3785 -0.3676
  122OSM   C15F12978   0.802   6.751   7.685  0.3768  1.0141  0.9749
  122OSM   H15F12979   0.710   6.796   7.729  1.6945  1.3930  3.4843
  122OSM   H15G12980   0.865   6.836   7.650  1.8168 -0.9589 -1.6269
  122OSM   C16F12981   0.885   6.681   7.792  0.0154 -0.2111 -0.2418
  122OSM   H16F12982   0.983   6.654   7.747  0.6474  0.0635  0.9146
  122OSM   H16G12983   0.835   6.587   7.822 -0.7223  0.0698 -0.5744
  122OSM   C17F12984   0.901   6.770   7.909  1.1723  0.2692 -0.2934
  122OSM   H17F12985   0.806   6.803   7.956  1.3396  1.0808 -0.5106
  122OSM   H17G12986   0.943   6.870   7.884  1.6538  0.3662  0.8443
  122OSM   C18F12987   0.989   6.710   8.021 -0.1745 -0.0539 -0.1072
  122OSM   H18F12988   1.001   6.787   8.100 -2.0895  0.4889 -0.2722
  122OSM   H18G12989   1.087   6.681   7.978 -0.8683 -0.9617 -1.1573
  122OSM   H18H12990   0.948   6.622   8.076  0.8305  0.0396  0.8350
  123OSM      N12991   6.034   0.789   6.301  0.3530 -0.6974  0.3984
  123OSM    C1512992   5.909   0.709   6.301  0.5607  0.0675  0.9830
  123OSM   H15A12993   5.891   0.664   6.397  1.7571 -2.1999  0.2035
  123OSM   H15B12994   5.912   0.636   6.222  1.1528  2.0126 -0.8901
  123OSM   H15C12995   5.822   0.770   6.282 -0.2686 -1.1110  0.8788
  123OSM    C1412996   6.145   0.707   6.364 -0.3042  0.1099  0.3705
  123OSM   H14A12997   6.114   0.654   6.453 -0.9956 -1.6010 -0.8368
  123OSM   H14B12998   6.238   0.763   6.371  0.4484 -1.0274 -0.1918
  123OSM   H14C12999   6.164   0.623   6.299 -2.4302 -0.7958  0.8559
  123OSM    C1313000   6.063   0.837   6.159 -0.0006  0.6102  0.1859
  123OSM   H13A13001   6.150   0.901   6.162  1.0254 -0.6748 -1.2592
  123OSM   H13B13002   5.979   0.899   6.129 -0.9616 -0.4125  0.7112
  123OSM   H13C13003   6.098   0.754   6.101  0.1332 -0.3453  1.5744
  123OSM    C1213004   6.018   0.915   6.388  0.1250 -0.5885  0.3706
  123OSM   H12A13005   5.943   0.982   6.349 -0.4464 -0.1213  2.1457
  123OSM   H12B13006   6.115   0.964   6.381 -0.8750  1.3383 -0.9286
  123OSM    C1113007   5.984   0.896   6.540  1.3101  0.0610 -0.3540
  123OSM   H11A13008   5.894   0.833   6.554 -0.5486  1.8602 -3.3060
  123OSM   H11B13009   5.953   0.996   6.576  2.1773  0.3780 -0.4636
  123OSM      P13010   6.249   0.915   6.622 -0.0081  0.1283  0.0387
  123OSM    O1313011   6.319   0.814   6.707 -0.3884 -0.4536  0.0536
  123OSM    O1413012   6.297   0.932   6.481 -0.5943 -0.0674  0.2498
  123OSM    O1113013   6.227   1.053   6.699 -0.2386  0.2946  0.4512
  123OSM    O1213014   6.097   0.863   6.617 -0.0688  0.5454 -0.1096
  123OSM    C1S13015   6.172   1.054   6.837  0.6178  0.1155  0.4164
  123OSM    H1S13016   6.222   0.985   6.908 -0.6104 -0.9938  0.2585
  123OSM    H1T13017   6.066   1.021   6.846  0.3350 -0.0717 -2.6555
  123OSM     NF13018   6.160   1.226   7.027 -0.2480  0.2912 -0.1916
  123OSM    HNF13019   6.067   1.247   7.056  0.0750 -0.4755  1.5050
  123OSM    C2S13020   6.177   1.205   6.882  0.0653  0.4283 -0.1633
  123OSM    H2S13021   6.279   1.240   6.854 -0.0993  0.8436 -0.2490
  123OSM    C3S13022   6.084   1.301   6.804  0.4019  0.3142  0.4711
  123OSM    H3S13023   5.985   1.274   6.847  1.8490 -4.3090  1.4256
  123OSM     O313024   6.076   1.263   6.666  0.2219 -0.1819 -0.5696
  123OSM    HO313025   6.126   1.181   6.669 -0.1591 -0.4031 -0.1609
  123OSM    C4S13026   6.125   1.444   6.828 -0.1937 -0.3115 -0.2659
  123OSM    H4S13027   6.215   1.479   6.776 -0.2977 -0.7694 -0.7706
  123OSM    C5S13028   6.057   1.529   6.908  0.1834  0.5596  0.4524
  123OSM    H5S13029   5.979   1.487   6.974  1.0669 -0.9287  0.6092
  123OSM    C6S13030   6.087   1.676   6.936 -0.9697 -0.1510 -0.7689
  123OSM    H6S13031   6.002   1.707   7.001 -0.3899  0.7158 -0.4101
  123OSM    H6T13032   6.074   1.736   6.844  1.7519 -0.2996 -1.3138
  123OSM    C7S13033   6.225   1.705   6.990 -0.8369 -0.3503 -0.6948
  123OSM    H7S13034   6.236   1.815   6.999 -2.4771 -0.2185  0.0472
  123OSM    H7T13035   6.302   1.677   6.915 -0.4049  2.1916 -1.3054
  123OSM    C8S13036   6.260   1.650   7.126  0.4360 -0.4318 -0.9374
  123OSM    H8S13037   6.356   1.694   7.160  1.2071 -1.3606 -1.8212
  123OSM    H8T13038   6.272   1.539   7.126 -0.7054 -0.5632 -0.8363
  123OSM    C9S13039   6.154   1.690   7.237 -0.3078  0.0806 -0.6947
  123OSM    H9S13040   6.052   1.648   7.231 -0.7419  1.1965 -1.4443
  123OSM    H9T13041   6.138   1.800   7.234  0.0775  0.1723  0.3529
  123OSM   C10S13042   6.215   1.658   7.380 -0.1191  0.3764  0.4067
  123OSM   H10S13043   6.292   1.737   7.397  2.3137 -2.0444  1.4197
  123OSM   H10T13044   6.269   1.561   7.379  0.9446  0.9279 -1.2677
  123OSM   C11S13045   6.110   1.650   7.500  0.6161  0.4617  0.0915
  123OSM   H11S13046   6.041   1.564   7.490  0.0466  0.9251 -0.0504
  123OSM   H11T13047   6.047   1.742   7.494  1.3139  1.0475  1.3165
  123OSM   C12S13048   6.173   1.658   7.643 -0.2659  0.5226  0.0640
  123OSM   H12S13049   6.214   1.760   7.660 -0.9030  0.6823  0.6409
  123OSM   H12T13050   6.246   1.574   7.640 -0.5098  0.1906  2.2135
  123OSM   C13S13051   6.072   1.621   7.760  0.4431 -0.2168 -0.1436
  123OSM   H13S13052   6.054   1.513   7.743 -0.4101  0.0741 -1.1742
  123OSM   H13T13053   5.980   1.683   7.764  0.6290 -0.0125  1.6470
  123OSM   C14S13054   6.137   1.643   7.899  0.0646  0.9866  0.1846
  123OSM   H14S13055   6.066   1.625   7.982  0.4039  2.0140  0.7290
  123OSM   H14T13056   6.161   1.751   7.910  1.7852  0.4783  2.0592
  123OSM   C15S13057   6.263   1.562   7.933  0.3683 -0.5683 -0.0382
  123OSM   H15S13058   6.342   1.592   7.861 -0.7854 -1.4698 -1.7251
  123OSM   H15T13059   6.253   1.455   7.904 -1.1589 -0.4390 -0.0565
  123OSM   C16S13060   6.310   1.583   8.080  0.4273 -0.0291 -0.0273
  123OSM   H16S13061   6.228   1.564   8.152  0.1414  0.7541 -0.1373
  123OSM   H16T13062   6.345   1.687   8.096  1.8570 -0.4338 -0.4123
  123OSM   C17S13063   6.437   1.494   8.104 -0.0079  0.0295 -0.5051
  123OSM   H17S13064   6.452   1.500   8.214  0.7137 -1.1624 -0.5236
  123OSM   H17T13065   6.529   1.539   8.059  0.2581 -0.8335 -0.8351
  123OSM   C18S13066   6.430   1.345   8.051 -0.4827 -0.3254  0.4519
  123OSM   H18S13067   6.499   1.281   8.111  1.4432  0.7229 -0.5410
  123OSM   H18T13068   6.456   1.344   7.943 -0.8812 -1.7515  0.3417
  123OSM   H18U13069   6.333   1.291   8.059  1.0254 -3.1587  1.1953
  123OSM    C1F13070   6.257   1.186   7.114 -0.4100 -0.2461 -0.4327
  123OSM     OF13071   6.375   1.174   7.083 -0.1716 -0.3690  0.1046
  123OSM    C2F13072   6.217   1.147   7.255  0.1651  0.0739 -0.0165
  123OSM    H2F13073   6.223   1.038   7.275 -0.5545  0.1487  0.6684
  123OSM    H2G13074   6.111   1.179   7.264  0.5756  1.3017  0.6480
  123OSM    C3F13075   6.293   1.243   7.348  0.1358  0.5031 -0.3642
  123OSM    H3F13076   6.279   1.349   7.316 -2.7889 -0.2550 -2.0282
  123OSM    H3G13077   6.401   1.220   7.332 -0.3243 -0.2546 -2.9087
  123OSM    C4F13078   6.278   1.215   7.497 -0.2233 -0.0111  0.6872
  123OSM    H4F13079   6.188   1.151   7.510 -0.1346 -0.5315 -1.0824
  123OSM    H4G13080   6.278   1.313   7.549 -0.7778  0.6682 -0.5705
  123OSM    C5F13081   6.401   1.135   7.553  0.1132 -0.2740 -0.1019
  123OSM    H5F13082   6.499   1.182   7.531  1.0205 -1.4569  1.1862
  123OSM    H5G13083   6.401   1.034   7.507 -3.0233 -0.3631 -0.0925
  123OSM    C6F13084   6.391   1.118   7.699  0.2937  0.0658  0.0746
  123OSM    H6F13085   6.382   1.215   7.752  0.2852  0.0276  0.1430
  123OSM    H6G13086   6.482   1.067   7.736 -1.3958 -2.8512  0.5791
  123OSM    C7F13087   6.278   1.018   7.744 -0.1516  0.1626 -0.0730
  123OSM    H7F13088   6.297   0.925   7.686  2.3996  0.9246 -0.5997
  123OSM    H7G13089   6.188   1.072   7.708  0.7222 -0.1978 -3.0778
  123OSM    C8F13090   6.270   1.000   7.894 -0.1345  0.1697  0.1029
  123OSM    H8F13091   6.278   1.099   7.943 -1.8238  0.7292 -0.6921
  123OSM    H8G13092   6.345   0.927   7.933 -0.4621 -0.3311 -0.2028
  123OSM    C9F13093   6.135   0.947   7.939 -0.5225 -0.7295 -0.4818
  123OSM    H9F13094   6.112   0.846   7.902  1.2744 -1.1900 -0.4394
  123OSM   C10F13095   6.043   1.014   8.008  0.3388  0.2675  0.8762
  123OSM   H10F13096   5.945   0.965   8.022  2.0654 -3.5400  0.7520
  123OSM   C11F13097   6.053   1.149   8.074 -0.0230 -0.0638 -0.1185
  123OSM   H11F13098   6.047   1.232   8.000 -0.4163 -1.1609 -1.3747
  123OSM   H11G13099   6.150   1.168   8.123 -0.2458  2.2514 -0.4338
  123OSM   C12F13100   5.955   1.173   8.195  0.1374  0.5393 -0.3756
  123OSM   H12F13101   5.952   1.077   8.250  0.9051 -1.8579 -4.1666
  123OSM   H12G13102   5.855   1.200   8.155  0.7430 -0.3788 -2.7087
  123OSM   C13F13103   5.997   1.289   8.289  0.2671  0.5307 -0.2809
  123OSM   H13F13104   6.010   1.376   8.221  1.8278  0.3308 -0.2861
  123OSM   H13G13105   6.088   1.270   8.350 -0.1365  2.1872  0.8906
  123OSM   C14F13106   5.882   1.323   8.385 -0.0335 -0.2166  0.0559
  123OSM   H14F13107   5.908   1.381   8.476  2.2097 -0.3487 -0.4521
  123OSM   H14G13108   5.841   1.229   8.429 -0.4108 -1.1593 -2.1695
  123OSM   C15F13109   5.762   1.394   8.315 -0.5688  0.1515 -0.2406
  123OSM   H15F13110   5.737   1.353   8.215 -0.1666  1.9858 -1.1208
  123OSM   H15G13111   5.798   1.494   8.284  0.0157 -0.1674 -0.6132
  123OSM   C16F13112   5.634   1.400   8.394  1.1228  0.3307  0.0639
  123OSM   H16F13113   5.581   1.304   8.411  0.7846  0.5282  0.1337
  123OSM   H16G13114   5.564   1.461   8.332  1.3924  1.8328  1.1670
  123OSM   C17F13115   5.647   1.470   8.528 -0.3730 -0.5058  0.0382
  123OSM   H17F13116   5.717   1.408   8.588  0.3348  2.2300  2.2455
  123OSM   H17G13117   5.548   1.466   8.579  0.2552 -3.8080  1.2283
  123OSM   C18F13118   5.702   1.614   8.533 -0.3709  0.3814 -0.3550
  123OSM   H18F13119   5.811   1.621   8.512 -0.3961  2.1899 -0.0232
  123OSM   H18G13120   5.686   1.654   8.635 -1.0579  0.3901 -0.4578
  123OSM   H18H13121   5.646   1.686   8.469 -2.2560 -0.3734  0.3791
  124OSM      N13122   0.397   4.152   6.047 -0.2547  0.1099  0.9408
  124OSM    C1513123   0.302   4.217   6.145  0.2670 -0.4014  0.9541
  124OSM   H15A13124   0.344   4.252   6.238 -0.0257  0.1911  0.8692
  124OSM   H15B13125   0.216   4.155   6.169 -0.9681  1.7978  2.6004
  124OSM   H15C13126   0.264   4.308   6.101 -0.1019 -0.5157  1.0357
  124OSM    C1413127   0.318   4.106   5.928 -0.2337  0.1432  0.1057
  124OSM   H14A13128   0.229   4.165   5.920  0.8912  1.8902  0.0140
  124OSM   H14B13129   0.275   4.008   5.946  0.5637 -0.0063  1.3297
  124OSM   H14C13130   0.382   4.102   5.841 -1.5678  0.3394 -0.9034
  124OSM    C1313131   0.501   4.252   6.003 -0.0600 -0.5753  0.0147
  124OSM   H13A13132   0.557   4.213   5.919  2.1459  1.6335  0.3459
  124OSM   H13B13133   0.572   4.255   6.084  2.3022  1.5696 -1.9716
  124OSM   H13C13134   0.465   4.349   5.975  0.4707 -0.7167 -1.2256
  124OSM    C1213135   0.467   4.039   6.123 -0.2502 -0.2278  0.1020
  124OSM   H12A13136   0.552   4.012   6.063 -0.0279  0.0195  0.3010
  124OSM   H12B13137   0.405   3.952   6.137  0.3401 -0.5487  0.8284
  124OSM    C1113138   0.514   4.062   6.268  0.3275  0.2984 -0.5035
  124OSM   H11A13139   0.524   3.964   6.319 -4.6409 -0.5943 -0.7199
  124OSM   H11B13140   0.441   4.121   6.327 -2.4448 -2.4315 -0.9630
  124OSM      P13141   0.771   4.092   6.195 -0.0907 -0.2794  0.4442
  124OSM    O1313142   0.743   3.977   6.106  0.1900 -0.5367 -0.7364
  124OSM    O1413143   0.808   4.220   6.122  0.0866  0.5561  0.7322
  124OSM    O1113144   0.872   4.051   6.310 -0.0420  0.6522 -0.2643
  124OSM    O1213145   0.640   4.136   6.271  0.3918  0.0791  0.1408
  124OSM    C1S13146   0.894   4.136   6.422 -0.5439 -0.6010 -0.3185
  124OSM    H1S13147   0.863   4.240   6.400 -2.5242 -1.4703 -1.9934
  124OSM    H1T13148   1.003   4.134   6.441 -0.4168  1.7457 -0.5447
  124OSM     NF13149   0.847   4.181   6.656 -0.0531  0.2134  0.3481
  124OSM    HNF13150   0.898   4.138   6.731 -0.1930  1.2876  1.0690
  124OSM    C2S13151   0.807   4.093   6.542 -0.1229 -0.0339  0.4253
  124OSM    H2S13152   0.697   4.107   6.535 -0.1918 -1.1448 -1.4602
  124OSM    C3S13153   0.832   3.943   6.577  0.0315 -0.3433  0.5096
  124OSM    H3S13154   0.940   3.920   6.581 -0.3808 -2.6884 -0.3296
  124OSM     O313155   0.791   3.850   6.485 -0.3061  0.4248 -0.3305
  124OSM    HO313156   0.790   3.890   6.398 -4.0153 -3.5190 -2.5050
  124OSM    C4S13157   0.773   3.915   6.709  0.5214  0.1932  0.8486
  124OSM    H4S13158   0.664   3.931   6.718  0.1544 -2.1732  1.1054
  124OSM    C5S13159   0.839   3.862   6.807 -0.8499  0.6599  0.4203
  124OSM    H5S13160   0.942   3.826   6.792  0.0137  2.6076  1.2958
  124OSM    C6S13161   0.769   3.835   6.941  0.0562 -0.9599 -0.0768
  124OSM    H6S13162   0.777   3.730   6.974  0.9673 -1.1068 -0.7051
  124OSM    H6T13163   0.665   3.873   6.945  0.9320  1.5059  1.2516
  124OSM    C7S13164   0.846   3.925   7.045  0.6039 -0.0645 -0.1485
  124OSM    H7S13165   0.860   4.034   7.025  2.2323 -0.2429 -0.1123
  124OSM    H7T13166   0.952   3.892   7.037  0.5724 -0.3820  0.6667
  124OSM    C8S13167   0.785   3.915   7.189  0.5970 -0.0419  0.1120
  124OSM    H8S13168   0.776   3.807   7.214  1.9524  0.3017  2.4031
  124OSM    H8T13169   0.682   3.955   7.180  1.5237  2.1178 -2.0412
  124OSM    C9S13170   0.871   3.984   7.299  0.2628 -0.1929  0.2992
  124OSM    H9S13171   0.898   4.089   7.273 -0.5575 -0.7798 -3.5172
  124OSM    H9T13172   0.973   3.939   7.294  0.9190  1.2298  0.4009
  124OSM   C10S13173   0.799   3.981   7.438  0.4136  0.2076  0.1049
  124OSM   H10S13174   0.778   3.876   7.467 -0.0540  0.2718  0.0098
  124OSM   H10T13175   0.701   4.033   7.425  1.8979  2.5835 -2.5688
  124OSM   C11S13176   0.887   4.055   7.541 -0.1298  0.1058  0.4869
  124OSM   H11S13177   0.915   4.159   7.517  1.4973 -0.1399  1.1781
  124OSM   H11T13178   0.981   3.995   7.551 -0.7755 -1.0140  0.0573
  124OSM   C12S13179   0.830   4.042   7.681 -0.2178  0.2773 -0.4000
  124OSM   H12S13180   0.800   3.941   7.715  1.7512  0.7172  2.9861
  124OSM   H12T13181   0.740   4.107   7.684  0.0710  0.6306  1.3713
  124OSM   C13S13182   0.920   4.104   7.783 -0.1900 -0.1502 -0.1102
  124OSM   H13S13183   0.957   4.201   7.745 -1.5779 -0.3783 -2.2222
  124OSM   H13T13184   1.003   4.031   7.792 -1.1362 -1.1373  0.8719
  124OSM   C14S13185   0.854   4.137   7.928 -0.4288  0.4138 -0.1429
  124OSM   H14S13186   0.785   4.054   7.952 -0.6724  0.6157 -0.1408
  124OSM   H14T13187   0.791   4.228   7.923 -2.1282 -0.7178 -0.1043
  124OSM   C15S13188   0.951   4.146   8.045  0.0556 -0.6721 -0.1048
  124OSM   H15S13189   1.023   4.231   8.037 -0.4452 -0.3066 -0.8574
  124OSM   H15T13190   1.014   4.055   8.037  0.7477 -0.2632  0.4936
  124OSM   C16S13191   0.893   4.138   8.189  0.4050 -0.6786  0.8399
  124OSM   H16S13192   0.840   4.040   8.186 -0.8444 -0.0362  1.4095
  124OSM   H16T13193   0.822   4.221   8.208 -0.1406 -0.7860 -0.6191
  124OSM   C17S13194   0.999   4.127   8.293 -0.4182  0.3660  0.0583
  124OSM   H17S13195   1.066   4.216   8.293 -1.6260  1.2948 -0.5707
  124OSM   H17T13196   1.057   4.033   8.282  0.0594  0.6230  0.3290
  124OSM   C18S13197   0.945   4.140   8.437  0.8875 -0.2803 -0.0709
  124OSM   H18S13198   1.018   4.137   8.521  1.8452  0.5676 -0.8516
  124OSM   H18T13199   0.875   4.057   8.461  0.0214  0.4900  0.1273
  124OSM   H18U13200   0.894   4.237   8.453  1.0064 -0.2561  0.1656
  124OSM    C1F13201   0.825   4.310   6.655  0.3231 -0.4418 -0.9829
  124OSM     OF13202   0.743   4.357   6.577  0.7792  0.6950 -0.2933
  124OSM    C2F13203   0.889   4.386   6.759  0.5863 -0.5382  0.8429
  124OSM    H2F13204   0.901   4.488   6.717  0.9779 -0.9937 -0.1845
  124OSM    H2G13205   0.997   4.361   6.773  0.5451  0.0001  2.2823
  124OSM    C3F13206   0.814   4.391   6.888 -0.2799  0.8424  0.1265
  124OSM    H3F13207   0.806   4.291   6.935  1.1388  0.0230 -1.2770
  124OSM    H3G13208   0.712   4.432   6.870 -2.2890 -2.9161  1.8565
  124OSM    C4F13209   0.875   4.487   6.990 -0.1871  0.8434 -0.7651
  124OSM    H4F13210   0.881   4.584   6.938  0.7400  0.6176 -1.1135
  124OSM    H4G13211   0.975   4.451   7.026 -1.0176 -0.7873  0.0443
  124OSM    C5F13212   0.790   4.510   7.118 -0.3683  0.1164 -0.5007
  124OSM    H5F13213   0.681   4.528   7.108 -0.2730  0.6930 -0.5252
  124OSM    H5G13214   0.832   4.590   7.182 -0.5481 -0.7611  0.7612
  124OSM    C6F13215   0.797   4.379   7.204  0.3524 -0.8433 -0.1304
  124OSM    H6F13216   0.903   4.350   7.223  0.8326  0.8128 -0.1032
  124OSM    H6G13217   0.752   4.291   7.154  0.2866  0.1491 -1.8876
  124OSM    C7F13218   0.725   4.400   7.339  0.0967 -0.4912 -0.2643
  124OSM    H7F13219   0.715   4.301   7.388  4.3721 -0.3269  1.3458
  124OSM    H7G13220   0.629   4.450   7.313 -0.1029  0.1230  1.5235
  124OSM    C8F13221   0.805   4.487   7.441  0.6816  1.2434  0.0414
  124OSM    H8F13222   0.815   4.593   7.408  1.2461  0.7528 -1.4381
  124OSM    H8G13223   0.907   4.446   7.453  0.6514  0.6959 -1.4028
  124OSM    C9F13224   0.747   4.484   7.583  0.0671 -0.2672  0.0691
  124OSM    H9F13225   0.638   4.475   7.596  0.1188 -0.3906  0.4020
  124OSM   C10F13226   0.814   4.494   7.699  0.0423 -0.1258 -0.0296
  124OSM   H10F13227   0.754   4.492   7.790 -2.3566  0.0656 -1.5257
  124OSM   C11F13228   0.964   4.505   7.715 -0.5231 -0.4615  0.1121
  124OSM   H11F13229   1.016   4.554   7.629  0.8983 -1.0324  0.6190
  124OSM   H11G13230   1.010   4.405   7.705 -1.6112 -0.7662 -4.3633
  124OSM   C12F13231   0.989   4.585   7.843 -0.2694 -0.1589 -0.8467
  124OSM   H12F13232   0.959   4.517   7.926 -1.0128  1.1195 -0.0248
  124OSM   H12G13233   0.912   4.665   7.850 -1.0505 -0.9028 -0.8162
  124OSM   C13F13234   1.128   4.645   7.871  0.8218 -0.5572  0.2699
  124OSM   H13F13235   1.139   4.729   7.799 -1.6856 -0.5504 -0.1989
  124OSM   H13G13236   1.204   4.568   7.849 -0.0497 -1.4739  0.4168
  124OSM   C14F13237   1.159   4.694   8.011  0.5009  0.2484  0.1225
  124OSM   H14F13238   1.149   4.609   8.081  3.2746  0.3697  0.7894
  124OSM   H14G13239   1.090   4.775   8.044  0.0263 -0.1152  0.0314
  124OSM   C15F13240   1.308   4.750   8.023  0.6667  0.9347 -0.1776
  124OSM   H15F13241   1.309   4.835   7.952 -3.3173 -2.0981 -4.4728
  124OSM   H15G13242   1.373   4.672   7.979 -0.8903  1.2236 -3.2190
  124OSM   C16F13243   1.350   4.775   8.172  0.1519  0.0463  0.3104
  124OSM   H16F13244   1.320   4.690   8.237 -3.7906 -0.2117 -1.5510
  124OSM   H16G13245   1.286   4.856   8.214  1.7370  1.3657  0.2788
  124OSM   C17F13246   1.493   4.816   8.199 -0.3242  0.4913 -0.4860
  124OSM   H17F13247   1.572   4.740   8.180  1.1521  1.6598  0.7041
  124OSM   H17G13248   1.487   4.842   8.307 -0.6271 -0.0560 -0.3671
  124OSM   C18F13249   1.532   4.931   8.115 -0.4636 -0.4847 -1.5242
  124OSM   H18F13250   1.633   4.968   8.146 -0.4491 -0.8806 -1.0899
  124OSM   H18G13251   1.458   5.011   8.138  0.6248 -0.1437  1.1929
  124OSM   H18H13252   1.542   4.918   8.005  2.8031 -2.6723 -1.1050
  125OSM      N13253   3.101   4.494   5.902 -0.5378  0.5695  0.5089
  125OSM    C1513254   2.973   4.570   5.880  0.0004  0.6568  0.2437
  125OSM   H15A13255   2.977   4.678   5.880  2.5939  0.6918 -2.1741
  125OSM   H15B13256   2.902   4.552   5.959  0.4600  1.7639  0.9278
  125OSM   H15C13257   2.926   4.549   5.784  0.2560 -0.6941  0.3891
  125OSM    C1413258   3.079   4.350   5.869 -0.5186 -0.8930 -0.1677
  125OSM   H14A13259   3.072   4.339   5.761  2.8445 -1.6889 -0.4221
  125OSM   H14B13260   3.003   4.294   5.921 -3.3494  1.8236 -1.0366
  125OSM   H14C13261   3.175   4.302   5.874  0.4305  0.8705 -0.4729
  125OSM    C1313262   3.207   4.551   5.812  0.1560  0.1360  1.0449
  125OSM   H13A13263   3.302   4.504   5.833  0.3722 -0.7965 -1.6454
  125OSM   H13B13264   3.214   4.655   5.842  0.0397  0.5315 -0.2564
  125OSM   H13C13265   3.190   4.549   5.706  0.6290  1.3747  0.9264
  125OSM    C1213266   3.150   4.512   6.045  0.1497  0.0735  0.0133
  125OSM   H12A13267   3.236   4.450   6.059 -0.0760 -0.6556 -1.6187
  125OSM   H12B13268   3.069   4.469   6.102 -1.5437 -1.0715 -2.9946
  125OSM    C1113269   3.177   4.648   6.106 -0.4776  0.3228  0.5407
  125OSM   H11A13270   3.198   4.652   6.215 -3.3003  0.7936  1.1495
  125OSM   H11B13271   3.084   4.708   6.096 -0.4915  0.1058 -0.7670
  125OSM      P13272   3.424   4.710   6.058 -0.1318  0.1061 -0.2497
  125OSM    O1313273   3.448   4.568   6.048  0.3006  0.5800 -0.3638
  125OSM    O1413274   3.502   4.804   5.972 -0.0255 -0.0080 -0.5225
  125OSM    O1113275   3.442   4.759   6.204  0.5794  0.0355 -0.2811
  125OSM    O1213276   3.272   4.728   6.031 -0.3646  0.4158  0.5228
  125OSM    C1S13277   3.372   4.872   6.257  0.7211  0.4181  0.0877
  125OSM    H1S13278   3.270   4.881   6.216  1.0967 -1.0048 -1.2497
  125OSM    H1T13279   3.425   4.962   6.219 -0.0356  0.7558 -0.1889
  125OSM     NF13280   3.323   5.003   6.447  0.3486  0.1071 -0.3787
  125OSM    HNF13281   3.395   5.060   6.486  2.2576 -2.7052  0.5249
  125OSM    C2S13282   3.367   4.877   6.406 -0.2991  0.7945  0.5472
  125OSM    H2S13283   3.299   4.798   6.445 -1.1099  1.0481 -0.3360
  125OSM    C3S13284   3.504   4.845   6.474  0.0481  0.0808  0.5708
  125OSM    H3S13285   3.565   4.934   6.451 -1.1820  1.1453  1.2905
  125OSM     O313286   3.580   4.735   6.425  0.6091 -0.4912  0.0768
  125OSM    HO313287   3.546   4.702   6.342  2.0501  0.5887 -0.9913
  125OSM    C4S13288   3.483   4.840   6.625  0.6231 -0.3859 -0.3401
  125OSM    H4S13289   3.487   4.937   6.676 -1.8638  0.3688 -1.4258
  125OSM    C5S13290   3.469   4.729   6.700  0.0511  0.0881  0.2198
  125OSM    H5S13291   3.472   4.633   6.647 -0.4159  0.2690 -0.1452
  125OSM    C6S13292   3.459   4.724   6.846 -0.0593 -0.6674  0.3197
  125OSM    H6S13293   3.484   4.625   6.888 -1.2956  0.0669  3.0554
  125OSM    H6T13294   3.351   4.729   6.871 -0.0715 -3.2902  1.0478
  125OSM    C7S13295   3.541   4.832   6.926 -0.3136  0.0046 -0.2588
  125OSM    H7S13296   3.501   4.934   6.907  0.9111  0.2922 -1.3940
  125OSM    H7T13297   3.646   4.832   6.889 -0.3768  1.2921 -0.4868
  125OSM    C8S13298   3.539   4.792   7.076 -0.1814 -0.0647  0.2421
  125OSM    H8S13299   3.631   4.828   7.126 -0.6253  0.2321  0.8514
  125OSM    H8T13300   3.538   4.683   7.095  1.3035  0.1079  1.4474
  125OSM    C9S13301   3.409   4.842   7.131  0.2465 -0.3607 -0.5317
  125OSM    H9S13302   3.330   4.792   7.073 -0.4288  1.5456 -1.3236
  125OSM    H9T13303   3.393   4.952   7.138 -2.7646 -0.7323 -0.5426
  125OSM   C10S13304   3.383   4.786   7.272  0.0003  0.4045 -0.5964
  125OSM   H10S13305   3.420   4.681   7.272 -0.4314  0.2506 -0.7479
  125OSM   H10T13306   3.277   4.799   7.301  0.1112 -2.2118  1.4011
  125OSM   C11S13307   3.471   4.862   7.371  0.0665 -0.4760 -0.2009
  125OSM   H11S13308   3.443   4.969   7.374 -0.6034 -0.6319 -0.6690
  125OSM   H11T13309   3.579   4.860   7.343  0.4408 -1.8653  1.2170
  125OSM   C12S13310   3.461   4.817   7.516  0.5430  0.5648  0.5262
  125OSM   H12S13311   3.507   4.719   7.540 -1.7770 -0.8725 -0.5411
  125OSM   H12T13312   3.354   4.802   7.542  0.7946 -3.4467 -0.0897
  125OSM   C13S13313   3.497   4.928   7.616 -0.5846 -0.9101 -0.0599
  125OSM   H13S13314   3.422   5.010   7.610  1.6433  1.2842  0.0782
  125OSM   H13T13315   3.593   4.967   7.575 -0.7982 -0.5551 -0.2346
  125OSM   C14S13316   3.521   4.880   7.763  0.6866  0.5499 -0.3990
  125OSM   H14S13317   3.558   4.961   7.830 -1.0692  2.1330 -1.2425
  125OSM   H14T13318   3.609   4.813   7.758 -1.4335 -2.6817  1.6037
  125OSM   C15S13319   3.403   4.807   7.830  0.0540 -0.4239  0.7379
  125OSM   H15S13320   3.369   4.718   7.772 -2.9520  2.2041 -1.9025
  125OSM   H15T13321   3.313   4.871   7.824 -1.9449 -3.1737 -0.8213
  125OSM   C16S13322   3.416   4.784   7.980 -0.7072 -0.1224  0.1393
  125OSM   H16S13323   3.428   4.882   8.032 -1.3494 -1.1555  2.3891
  125OSM   H16T13324   3.512   4.730   7.997  0.2432  0.9681 -1.4845
  125OSM   C17S13325   3.282   4.721   8.024 -0.4652 -0.1485 -0.4371
  125OSM   H17S13326   3.256   4.631   7.964 -2.0587  0.6614 -1.0173
  125OSM   H17T13327   3.205   4.796   7.996 -0.8002 -0.8717 -1.5017
  125OSM   C18S13328   3.292   4.705   8.173  0.1627 -0.2976 -0.5311
  125OSM   H18S13329   3.224   4.630   8.219  1.1380 -1.4892 -0.9468
  125OSM   H18T13330   3.274   4.802   8.224 -4.3748 -2.0464  1.7084
  125OSM   H18U13331   3.395   4.678   8.206  0.6178  0.6902 -1.1078
  125OSM    C1F13332   3.193   5.034   6.440 -0.0305  0.0174 -0.4214
  125OSM     OF13333   3.115   4.956   6.390  0.2208 -0.3273 -0.1870
  125OSM    C2F13334   3.168   5.176   6.474 -1.3991 -0.5282  0.2640
  125OSM    H2F13335   3.179   5.229   6.377 -0.1570 -2.1616 -0.5315
  125OSM    H2G13336   3.236   5.215   6.552 -0.8577  0.4340 -0.6677
  125OSM    C3F13337   3.026   5.201   6.529  0.6237  0.0405  0.4306
  125OSM    H3F13338   2.956   5.162   6.452  0.3485  0.4784  0.4572
  125OSM    H3G13339   3.010   5.310   6.536 -0.2513 -0.0632  0.1753
  125OSM    C4F13340   2.989   5.131   6.656 -0.2766 -0.2553  0.8308
  125OSM    H4F13341   3.017   5.024   6.659  0.5854 -0.1146 -0.6874
  125OSM    H4G13342   2.879   5.129   6.671  0.0291 -0.0151  3.4798
  125OSM    C5F13343   3.044   5.194   6.779 -0.2941 -0.0267 -0.3381
  125OSM    H5F13344   2.996   5.294   6.787  1.6791  0.8773  1.1160
  125OSM    H5G13345   3.155   5.208   6.777 -0.2883 -0.1017 -1.7589
  125OSM    C6F13346   3.023   5.110   6.905  0.4009 -0.1370  1.1080
  125OSM    H6F13347   3.085   5.020   6.891  1.5722  0.2376  3.5367
  125OSM    H6G13348   2.917   5.075   6.910  0.2787 -0.9413 -3.0526
  125OSM    C7F13349   3.061   5.186   7.029  0.3426 -0.3124  0.0570
  125OSM    H7F13350   3.007   5.283   7.025  1.1119  0.1044 -0.3966
  125OSM    H7G13351   3.170   5.206   7.034  0.1430  0.8721 -0.0094
  125OSM    C8F13352   3.020   5.119   7.159  0.2862  0.3328 -0.1151
  125OSM    H8F13353   3.063   5.017   7.151  0.8039  0.5439 -0.0755
  125OSM    H8G13354   2.910   5.110   7.155  0.2831  0.4627 -0.3325
  125OSM    C9F13355   3.069   5.180   7.285 -0.6287 -0.2894 -0.4715
  125OSM    H9F13356   3.079   5.290   7.280  0.3972 -0.3933 -1.0945
  125OSM   C10F13357   3.097   5.116   7.403 -0.0257 -0.6198  0.3211
  125OSM   H10F13358   3.132   5.174   7.490  1.0759  0.0111 -0.5137
  125OSM   C11F13359   3.082   4.967   7.429  0.7724  0.1119 -0.8320
  125OSM   H11F13360   3.181   4.924   7.452 -0.2920 -1.0544  1.8995
  125OSM   H11G13361   3.047   4.914   7.338  0.9112  1.5380 -1.7623
  125OSM   C12F13362   2.988   4.939   7.555  0.1018  0.1487 -0.2954
  125OSM   H12F13363   2.981   4.830   7.575 -0.2283  0.4884  1.6073
  125OSM   H12G13364   2.887   4.984   7.540 -0.3521 -0.1146  1.6963
  125OSM   C13F13365   3.051   4.999   7.688 -0.8359  0.5371  0.5480
  125OSM   H13F13366   3.067   5.109   7.687  1.5629  0.2320  0.7689
  125OSM   H13G13367   3.148   4.950   7.711  1.2363  3.8095 -0.5599
  125OSM   C14F13368   2.969   4.955   7.807 -0.5580  0.3355 -0.3343
  125OSM   H14F13369   2.987   4.847   7.824 -0.8686  0.1832 -0.9245
  125OSM   H14G13370   2.868   4.982   7.769 -0.8793  1.9038  1.5024
  125OSM   C15F13371   3.016   5.021   7.938  0.0391  0.0413 -0.0598
  125OSM   H15F13372   2.991   5.128   7.927 -1.2220 -0.4657 -3.0349
  125OSM   H15G13373   3.125   5.005   7.948  0.7991  1.9092 -3.7715
  125OSM   C16F13374   2.937   4.948   8.052 -0.1270 -0.5397  0.0419
  125OSM   H16F13375   2.972   4.844   8.066 -0.6210 -0.6838  0.2485
  125OSM   H16G13376   2.828   4.949   8.031 -0.3970 -0.8136  1.3545
  125OSM   C17F13377   2.927   5.038   8.178  0.1585 -0.5042 -0.9998
  125OSM   H17F13378   2.880   5.137   8.160  0.2332 -0.7451 -2.6880
  125OSM   H17G13379   3.031   5.045   8.217 -0.4118 -2.3038  1.0190
  125OSM   C18F13380   2.834   4.976   8.280 -0.4065  0.1057 -0.3149
  125OSM   H18F13381   2.859   4.869   8.300  1.6816  0.5683 -0.1569
  125OSM   H18G13382   2.733   4.971   8.234 -0.2382 -1.4100 -0.5777
  125OSM   H18H13383   2.826   5.033   8.374 -0.7662  2.1488 -1.5208
  126OSM      N13384   6.185   1.597   6.223 -0.1014  0.4539 -0.5191
  126OSM    C1513385   6.282   1.490   6.174 -0.8493  0.4223  0.0708
  126OSM   H15A13386   6.233   1.396   6.192  1.9322 -1.1094  0.2073
  126OSM   H15B13387   6.366   1.508   6.240  0.5271 -1.8962 -0.9349
  126OSM   H15C13388   6.311   1.503   6.071  1.7742 -1.5104  0.4625
  126OSM    C1413389   6.255   1.732   6.223  0.6530  0.2035 -0.6293
  126OSM   H14A13390   6.304   1.746   6.128 -0.2674 -0.6037 -1.2486
  126OSM   H14B13391   6.332   1.720   6.297  1.9881  0.8831 -1.8515
  126OSM   H14C13392   6.182   1.809   6.245 -1.2410 -1.5704 -0.4045
  126OSM    C1313393   6.071   1.597   6.132 -0.5509  0.0664 -1.1048
  126OSM   H13A13394   6.017   1.504   6.140  0.3391 -0.2932  2.9072
  126OSM   H13B13395   6.105   1.600   6.030  1.6572  1.8674 -0.4170
  126OSM   H13C13396   6.003   1.676   6.161  0.4152  0.5460 -0.0512
  126OSM    C1213397   6.135   1.568   6.362 -0.5255 -0.3870  0.0454
  126OSM   H12A13398   6.086   1.472   6.356 -0.2298 -0.4574 -1.9402
  126OSM   H12B13399   6.054   1.637   6.380  0.1835  0.1676  1.2435
  126OSM    C1113400   6.235   1.579   6.480  0.1334  0.3846  0.5556
  126OSM   H11A13401   6.173   1.558   6.570 -0.3640 -0.4542  0.0298
  126OSM   H11B13402   6.274   1.681   6.501 -0.3097  0.2656  2.0145
  126OSM      P13403   6.488   1.529   6.470  0.3284  0.2880  0.4048
  126OSM    O1313404   6.564   1.431   6.387 -0.3331  0.1547  0.1751
  126OSM    O1413405   6.498   1.671   6.441  0.2508  0.1517  0.0573
  126OSM    O1113406   6.521   1.509   6.619  0.2426  0.5844 -0.7479
  126OSM    O1213407   6.332   1.480   6.473  1.0366 -0.6164  0.4181
  126OSM    C1S13408   6.516   1.380   6.678  0.3508  0.3351  0.9449
  126OSM    H1S13409   6.573   1.306   6.617 -0.4949  0.0199  0.5220
  126OSM    H1T13410   6.416   1.332   6.683  1.9889 -3.5927  0.1978
  126OSM     NF13411   6.582   1.248   6.878 -0.4783  0.2885 -0.3127
  126OSM    HNF13412   6.523   1.237   6.957 -1.8425  2.1589 -0.9829
  126OSM    C2S13413   6.585   1.374   6.822  0.2972 -0.5006 -0.7025
  126OSM    H2S13414   6.689   1.392   6.788 -0.4744  2.3271 -1.8464
  126OSM    C3S13415   6.536   1.486   6.922 -0.1621  0.3072 -0.6041
  126OSM    H3S13416   6.429   1.481   6.950 -0.5146  0.5414 -1.8648
  126OSM     O313417   6.565   1.615   6.877  0.2494  0.2109 -0.0197
  126OSM    HO313418   6.566   1.598   6.783 -0.1496 -0.2854  0.0611
  126OSM    C4S13419   6.610   1.469   7.052  0.4216  0.1946 -0.2392
  126OSM    H4S13420   6.718   1.485   7.049  0.4987  0.3107  2.0449
  126OSM    C5S13421   6.554   1.442   7.176 -0.7751  0.0165  0.1528
  126OSM    H5S13422   6.446   1.434   7.192 -0.6400  1.2643  2.0675
  126OSM    C6S13423   6.642   1.429   7.301  0.1421 -0.3803 -1.0563
  126OSM    H6S13424   6.747   1.407   7.273  0.0922 -0.0213 -1.5406
  126OSM    H6T13425   6.599   1.358   7.375  1.5673  0.6819  0.9131
  126OSM    C7S13426   6.644   1.559   7.378  0.0243  0.2991  0.4305
  126OSM    H7S13427   6.540   1.596   7.384 -0.3342 -0.7865  1.2602
  126OSM    H7T13428   6.695   1.643   7.325  3.1124 -1.5167  0.2489
  126OSM    C8S13429   6.722   1.547   7.512  0.2865  0.5929  0.4771
  126OSM    H8S13430   6.746   1.651   7.543  2.4516 -0.1889  1.5950
  126OSM    H8T13431   6.821   1.497   7.506  1.5096  2.9825 -0.5477
  126OSM    C9S13432   6.633   1.495   7.629  0.1595 -0.6139 -0.3531
  126OSM    H9S13433   6.572   1.405   7.605 -2.0910  0.3699  1.3124
  126OSM    H9T13434   6.557   1.575   7.644  0.4460 -0.0941 -1.5864
  126OSM   C10S13435   6.707   1.462   7.761  0.5182 -0.0647  0.7795
  126OSM   H10S13436   6.762   1.370   7.732  0.0538  0.4066 -1.8359
  126OSM   H10T13437   6.634   1.430   7.839 -1.4340 -1.9905 -1.6785
  126OSM   C11S13438   6.790   1.564   7.826 -0.2906  0.0487  0.6592
  126OSM   H11S13439   6.735   1.651   7.866 -1.7679 -1.3633  1.8172
  126OSM   H11T13440   6.860   1.598   7.746  1.3433 -1.0827  1.5516
  126OSM   C12S13441   6.856   1.506   7.954  0.2105  0.5229  0.2248
  126OSM   H12S13442   6.921   1.416   7.941 -0.3202 -0.0616  1.4883
  126OSM   H12T13443   6.770   1.477   8.017  0.2393 -1.3427 -0.5170
  126OSM   C13S13444   6.939   1.614   8.022  0.0843 -0.5717  0.1480
  126OSM   H13S13445   6.882   1.709   8.021  2.4671  0.9530  0.5001
  126OSM   H13T13446   7.026   1.622   7.954 -1.0021 -1.0588 -1.3490
  126OSM   C14S13447   6.991   1.580   8.161 -0.5652 -0.1192  1.0380
  126OSM   H14S13448   7.058   1.491   8.153  1.3701  1.1661  2.1467
  126OSM   H14T13449   6.906   1.551   8.226 -0.5576 -4.3127 -0.5284
  126OSM   C15S13450   7.067   1.695   8.229 -0.0936  0.4721  0.3917
  126OSM   H15S13451   7.092   1.676   8.335  0.7229  2.3923  0.5851
  126OSM   H15T13452   6.996   1.780   8.236  0.3524  0.7157  3.7535
  126OSM   C16S13453   7.194   1.736   8.155  0.9732  0.3151  0.2018
  126OSM   H16S13454   7.176   1.779   8.054 -1.4668  0.9941  0.8620
  126OSM   H16T13455   7.255   1.644   8.147 -0.4189 -0.6349  0.3636
  126OSM   C17S13456   7.277   1.840   8.228 -0.7550 -0.0721 -1.4204
  126OSM   H17S13457   7.222   1.874   8.318  0.4638 -0.7308 -0.3883
  126OSM   H17T13458   7.308   1.925   8.164 -1.2950  0.0041 -1.5835
  126OSM   C18S13459   7.407   1.776   8.291  0.2212 -0.2501 -0.6978
  126OSM   H18S13460   7.493   1.769   8.222  1.9913 -0.5589  1.4158
  126OSM   H18T13461   7.389   1.679   8.344 -0.6562 -1.2063 -2.6308
  126OSM   H18U13462   7.442   1.845   8.370 -2.8646 -1.4524  1.9554
  126OSM    C1F13463   6.650   1.151   6.823  0.1624 -0.1457  0.2786
  126OSM     OF13464   6.734   1.180   6.736 -0.4138  0.2912 -0.2314
  126OSM    C2F13465   6.611   1.011   6.868  0.2236 -0.3557 -0.0712
  126OSM    H2F13466   6.625   0.949   6.777 -1.0815  0.8515 -1.1301
  126OSM    H2G13467   6.508   0.999   6.908  0.0929  1.3761  0.1978
  126OSM    C3F13468   6.710   0.972   6.980  0.1027  0.6419 -0.0871
  126OSM    H3F13469   6.817   0.987   6.956 -0.3034  1.8336 -1.3211
  126OSM    H3G13470   6.705   0.861   6.976  0.5962  0.5273  1.6185
  126OSM    C4F13471   6.672   1.020   7.120 -0.3113 -0.6095  0.1673
  126OSM    H4F13472   6.568   0.989   7.143  0.4121 -3.3925  0.0160
  126OSM    H4G13473   6.690   1.130   7.128  0.1176 -0.7645  1.8012
  126OSM    C5F13474   6.760   0.960   7.230 -0.2953  0.4769  0.1360
  126OSM    H5F13475   6.863   0.988   7.201  0.1845  0.2216  1.5226
  126OSM    H5G13476   6.743   0.850   7.221  2.3729  0.0903 -1.3799
  126OSM    C6F13477   6.724   1.022   7.367  0.0722  0.5533  0.5578
  126OSM    H6F13478   6.618   0.996   7.386  0.4991 -1.6699  0.1233
  126OSM    H6G13479   6.743   1.131   7.356  2.2972  0.2685  1.0369
  126OSM    C7F13480   6.807   0.978   7.497  0.0442 -0.9502  0.0532
  126OSM    H7F13481   6.916   0.979   7.472  0.2146 -0.7550  0.7670
  126OSM    H7G13482   6.786   0.871   7.519 -0.4527 -1.5630 -2.9607
  126OSM    C8F13483   6.772   1.061   7.620  0.6595 -0.3262 -0.1723
  126OSM    H8F13484   6.664   1.043   7.637  0.4614  0.4336 -0.5617
  126OSM    H8G13485   6.770   1.171   7.601  1.4262  0.0981  1.9242
  126OSM    C9F13486   6.859   1.043   7.741  0.0101 -0.0467 -0.7229
  126OSM    H9F13487   6.957   1.089   7.723 -0.4179  0.7263 -1.1480
  126OSM   C10F13488   6.824   1.000   7.862  0.0472  0.1605 -0.3024
  126OSM   H10F13489   6.902   0.977   7.936  0.3272 -1.2803 -1.0060
  126OSM   C11F13490   6.692   0.936   7.897 -0.4260  0.3434  0.1191
  126OSM   H11F13491   6.706   0.831   7.928 -2.8722 -0.2086 -0.4600
  126OSM   H11G13492   6.629   0.935   7.806 -1.3487 -1.4903  0.7323
  126OSM   C12F13493   6.628   1.020   8.005 -0.2969  0.1005 -0.0532
  126OSM   H12F13494   6.521   0.992   8.009 -0.4150 -0.0593 -2.6909
  126OSM   H12G13495   6.624   1.126   7.971  0.3918  0.7291  1.6702
  126OSM   C13F13496   6.682   1.007   8.149  0.1037  0.3756  0.0293
  126OSM   H13F13497   6.789   1.038   8.140 -0.1859  1.0236 -1.5078
  126OSM   H13G13498   6.673   0.900   8.176  0.1964 -0.0887 -1.6496
  126OSM   C14F13499   6.605   1.096   8.253 -0.9122  0.6362  0.6173
  126OSM   H14F13500   6.496   1.080   8.236 -0.4108 -0.8486 -1.7822
  126OSM   H14G13501   6.634   1.202   8.237 -2.5146  0.9800 -0.1948
  126OSM   C15F13502   6.633   1.041   8.389 -0.3285 -0.1766  0.0648
  126OSM   H15F13503   6.742   1.024   8.394  0.2396  1.4820 -3.3695
  126OSM   H15G13504   6.579   0.945   8.404 -0.5298  0.2721  2.6201
  126OSM   C16F13505   6.572   1.130   8.500  0.2513  0.3344  0.4247
  126OSM   H16F13506   6.618   1.228   8.473 -2.2530  1.9326  1.5614
  126OSM   H16G13507   6.598   1.107   8.605  1.5479 -1.3184 -0.2199
  126OSM   C17F13508   6.420   1.145   8.496  0.4409 -0.3878  0.1951
  126OSM   H17F13509   6.386   1.163   8.392  1.1590  2.1561  0.3278
  126OSM   H17G13510   6.381   1.234   8.549 -0.5802  1.3595 -3.2120
  126OSM   C18F13511   6.362   1.011   8.537 -0.7830  0.9721 -0.4635
  126OSM   H18F13512   6.407   0.979   8.633 -2.5454  1.4521  0.5707
  126OSM   H18G13513   6.380   0.934   8.459  1.6955  0.3055  0.6733
  126OSM   H18H13514   6.251   1.015   8.547 -0.7330 -0.3535  0.8079
  127OSM      N13515   4.637   2.077   6.310 -0.2176 -0.8755 -0.5043
  127OSM    C1513516   4.725   2.019   6.416 -0.2801 -0.0908 -0.0347
  127OSM   H15A13517   4.677   1.943   6.475  0.2454  0.2090  0.7934
  127OSM   H15B13518   4.755   2.091   6.490  1.8530 -0.6544 -0.2832
  127OSM   H15C13519   4.817   1.979   6.376  0.9021  1.7061  0.7579
  127OSM    C1413520   4.626   1.993   6.188  0.7441 -0.0689  0.8992
  127OSM   H14A13521   4.621   1.885   6.197 -0.3455 -0.3135 -1.6460
  127OSM   H14B13522   4.710   2.013   6.124  2.7231 -1.6706  2.8475
  127OSM   H14C13523   4.540   2.023   6.129 -0.2454 -0.6759  1.9787
  127OSM    C1313524   4.500   2.102   6.375 -0.2485 -0.7049 -0.6348
  127OSM   H13A13525   4.512   2.194   6.431  1.1741 -1.4760  0.4129
  127OSM   H13B13526   4.463   2.026   6.442 -2.6568  1.6236  0.8958
  127OSM   H13C13527   4.427   2.121   6.299  0.7226  1.5433 -1.0982
  127OSM    C1213528   4.686   2.223   6.277  0.4625  0.2399 -0.7600
  127OSM   H12A13529   4.617   2.271   6.209 -1.4916  1.2597  1.7816
  127OSM   H12B13530   4.781   2.215   6.226  0.2030  0.4423 -1.2862
  127OSM    C1113531   4.696   2.327   6.397 -0.6631  0.2591 -0.2433
  127OSM   H11A13532   4.763   2.409   6.365 -1.8802  1.1510 -0.5763
  127OSM   H11B13533   4.750   2.281   6.483  1.6574 -0.2194 -1.8712
  127OSM      P13534   4.504   2.496   6.326  0.3233 -0.2856  0.2855
  127OSM    O1313535   4.580   2.481   6.199 -0.3019  0.0793  0.5051
  127OSM    O1413536   4.354   2.506   6.327 -0.2673 -0.3424  0.2972
  127OSM    O1113537   4.559   2.620   6.392  0.4435 -0.5229 -0.3621
  127OSM    O1213538   4.563   2.375   6.415 -0.2301  0.5944 -0.1391
  127OSM    C1S13539   4.535   2.642   6.538 -0.7801 -0.1465  1.4598
  127OSM    H1S13540   4.459   2.577   6.585  1.0031 -3.3946  0.1331
  127OSM    H1T13541   4.501   2.747   6.552 -0.1037  0.2098  0.5965
  127OSM     NF13542   4.655   2.643   6.762 -0.6612 -0.6640 -0.8001
  127OSM    HNF13543   4.699   2.723   6.802 -1.9359 -0.5929  0.5415
  127OSM    C2S13544   4.675   2.626   6.614  0.0547 -0.2758 -0.6424
  127OSM    H2S13545   4.708   2.521   6.602 -0.1508 -0.9458  3.4240
  127OSM    C3S13546   4.778   2.727   6.553 -0.1893  0.0240  0.1011
  127OSM    H3S13547   4.732   2.825   6.527  2.3619  1.2026 -0.2434
  127OSM     O313548   4.827   2.669   6.430  0.4578 -0.8994 -0.1769
  127OSM    HO313549   4.771   2.596   6.404  0.3699 -0.6363 -0.7561
  127OSM    C4S13550   4.902   2.750   6.637  0.0668  0.1256 -0.4960
  127OSM    H4S13551   4.974   2.667   6.628  1.8003  1.3573  1.1640
  127OSM    C5S13552   4.936   2.858   6.705 -0.2106  0.2127  0.3310
  127OSM    H5S13553   4.886   2.952   6.678  2.6534  1.3907 -1.4152
  127OSM    C6S13554   5.071   2.876   6.769 -0.5453 -0.1636 -0.5748
  127OSM    H6S13555   5.115   2.973   6.737  3.3356 -1.7446 -0.6183
  127OSM    H6T13556   5.153   2.807   6.737 -0.9066 -0.7635 -0.2337
  127OSM    C7S13557   5.084   2.888   6.919  0.6142 -1.1067  0.0296
  127OSM    H7S13558   5.055   2.793   6.969 -1.6761 -0.2322  0.4869
  127OSM    H7T13559   5.017   2.968   6.956 -0.9074 -1.0776 -2.4716
  127OSM    C8S13560   5.229   2.927   6.948 -0.1937 -0.3787  0.0536
  127OSM    H8S13561   5.241   3.036   6.931  0.0076  0.1441  3.0397
  127OSM    H8T13562   5.296   2.865   6.886 -0.3978  0.3678 -0.9288
  127OSM    C9S13563   5.270   2.898   7.098 -0.0744  0.0530 -0.3136
  127OSM    H9S13564   5.375   2.932   7.113 -0.5390  1.8289 -0.8844
  127OSM    H9T13565   5.259   2.790   7.121 -0.2766  0.2905  0.7338
  127OSM   C10S13566   5.207   2.988   7.209  0.7400  0.4887  0.2230
  127OSM   H10S13567   5.097   2.996   7.196  0.7179 -1.1738 -0.9424
  127OSM   H10T13568   5.251   3.089   7.196  1.3984  0.4763  2.0456
  127OSM   C11S13569   5.231   2.943   7.358  0.1455 -0.3797  0.1852
  127OSM   H11S13570   5.331   2.974   7.394  0.1915 -0.4538  0.1217
  127OSM   H11T13571   5.226   2.833   7.376  2.2297 -0.1801  2.4563
  127OSM   C12S13572   5.134   3.000   7.454  0.9373 -0.3692 -0.5620
  127OSM   H12S13573   5.031   2.962   7.435  0.0293  1.6600 -0.0781
  127OSM   H12T13574   5.125   3.109   7.431  1.7034 -0.2723 -0.4070
  127OSM   C13S13575   5.184   2.987   7.597  0.3271 -0.1675 -0.1669
  127OSM   H13S13576   5.118   3.041   7.668  1.5065  1.2207 -0.0853
  127OSM   H13T13577   5.289   3.023   7.608 -0.1508  1.4006 -0.5696
  127OSM   C14S13578   5.171   2.844   7.655 -0.0419  0.2929  0.1894
  127OSM   H14S13579   5.212   2.773   7.581  1.6250  0.2216  1.1194
  127OSM   H14T13580   5.063   2.820   7.660  0.3184 -1.4438  0.3719
  127OSM   C15S13581   5.235   2.815   7.794 -0.4733 -0.2074  0.4957
  127OSM   H15S13582   5.336   2.856   7.811 -0.3297 -0.2523 -0.2176
  127OSM   H15T13583   5.240   2.704   7.797  0.4708 -0.1607  0.9080
  127OSM   C16S13584   5.153   2.874   7.911 -0.1397  0.2470  0.0146
  127OSM   H16S13585   5.046   2.844   7.900 -0.2204  0.3364  0.4997
  127OSM   H16T13586   5.165   2.985   7.909 -0.5436  0.3210  0.9847
  127OSM   C17S13587   5.194   2.844   8.057  0.1671 -0.1300  0.5468
  127OSM   H17S13588   5.138   2.902   8.133  1.5342 -2.3613  3.4626
  127OSM   H17T13589   5.302   2.861   8.078 -0.1977  1.2029  1.3779
  127OSM   C18S13590   5.140   2.701   8.089  0.2235  0.2974  0.3110
  127OSM   H18S13591   5.191   2.623   8.029  1.0600  0.6564  0.5304
  127OSM   H18T13592   5.032   2.700   8.065  0.5504  1.0422 -1.3259
  127OSM   H18U13593   5.154   2.679   8.197 -0.4020 -1.3873  0.0703
  127OSM    C1F13594   4.587   2.558   6.840  0.1131  0.1807  1.4652
  127OSM     OF13595   4.512   2.466   6.805 -0.2274  1.0400  0.3002
  127OSM    C2F13596   4.602   2.572   6.987  0.2050  0.5822 -0.4952
  127OSM    H2F13597   4.514   2.632   7.019 -0.4742 -0.4678 -0.3669
  127OSM    H2G13598   4.691   2.635   7.009  0.0240  0.8512 -0.5333
  127OSM    C3F13599   4.593   2.435   7.057  0.5184  0.3312 -0.6586
  127OSM    H3F13600   4.676   2.367   7.032  0.4716  0.7596 -2.0761
  127OSM    H3G13601   4.503   2.371   7.045 -1.4216  2.2833  2.1042
  127OSM    C4F13602   4.587   2.453   7.209  0.1718  0.2259  0.1650
  127OSM    H4F13603   4.481   2.467   7.240 -0.5713 -1.5862 -1.3611
  127OSM    H4G13604   4.648   2.545   7.220 -0.5848  1.1179 -2.3630
  127OSM    C5F13605   4.635   2.328   7.281 -0.1959 -0.0402 -0.1557
  127OSM    H5F13606   4.745   2.318   7.283 -0.2264 -0.3582  0.0043
  127OSM    H5G13607   4.584   2.241   7.234 -1.1608  0.3510  0.1320
  127OSM    C6F13608   4.598   2.318   7.428 -0.2096  0.0886 -0.3123
  127OSM    H6F13609   4.648   2.226   7.465  0.8145 -0.7646 -3.4757
  127OSM    H6G13610   4.489   2.313   7.447 -0.1595 -0.4865 -0.1687
  127OSM    C7F13611   4.652   2.445   7.506 -0.4470  0.3597 -0.7846
  127OSM    H7F13612   4.596   2.536   7.475 -0.2908  0.5205 -0.5963
  127OSM    H7G13613   4.751   2.463   7.460  0.7639 -0.8426  1.2331
  127OSM    C8F13614   4.662   2.429   7.659  0.3292  0.2707 -0.3929
  127OSM    H8F13615   4.727   2.341   7.674 -0.6093 -0.0826  2.1542
  127OSM    H8G13616   4.562   2.408   7.702  0.9151 -2.5879 -0.2399
  127OSM    C9F13617   4.727   2.551   7.716 -0.4001  0.1940  0.7428
  127OSM    H9F13618   4.825   2.565   7.668 -1.2153  0.1608 -1.0091
  127OSM   C10F13619   4.679   2.637   7.807  0.0015  0.0328 -0.0948
  127OSM   H10F13620   4.739   2.716   7.856 -2.5808  0.3201  2.9422
  127OSM   C11F13621   4.536   2.628   7.862 -0.5847 -0.0426 -1.3042
  127OSM   H11F13622   4.470   2.553   7.812  0.1659 -1.6422  0.0184
  127OSM   H11G13623   4.484   2.724   7.840  1.4250  0.7415 -3.0114
  127OSM   C12F13624   4.524   2.598   8.013  0.5722  0.2253  0.0911
  127OSM   H12F13625   4.591   2.516   8.046 -1.4220 -1.9161 -0.9235
  127OSM   H12G13626   4.421   2.557   8.013  0.5707  0.2034 -1.3882
  127OSM   C13F13627   4.523   2.716   8.111 -0.1298  0.7023 -0.1564
  127OSM   H13F13628   4.490   2.679   8.211  0.8287  1.5311  0.4953
  127OSM   H13G13629   4.449   2.791   8.078 -0.4570  0.5431  0.2051
  127OSM   C14F13630   4.663   2.780   8.120  1.3459 -0.0023  0.1208
  127OSM   H14F13631   4.684   2.824   8.021 -1.4086  1.3012  0.0249
  127OSM   H14G13632   4.738   2.701   8.144 -1.0497 -2.9962 -1.5142
  127OSM   C15F13633   4.667   2.898   8.227  0.3484 -0.5044 -0.3043
  127OSM   H15F13634   4.673   2.843   8.324  1.2768 -0.8284 -0.5303
  127OSM   H15G13635   4.572   2.954   8.223 -0.5649 -1.6963  2.0710
  127OSM   C16F13636   4.780   2.991   8.203 -0.3458  0.1725  0.3277
  127OSM   H16F13637   4.807   2.998   8.095  3.0529 -0.7849  0.9878
  127OSM   H16G13638   4.880   2.950   8.229 -0.2986 -0.7486 -1.2027
  127OSM   C17F13639   4.760   3.135   8.250 -0.1489 -0.2960  0.1141
  127OSM   H17F13640   4.664   3.182   8.219 -0.2961  0.9527  2.2491
  127OSM   H17G13641   4.846   3.191   8.207  0.4106 -1.3024 -0.1207
  127OSM   C18F13642   4.763   3.149   8.407  0.2406  0.4904  0.3880
  127OSM   H18F13643   4.718   3.056   8.446 -1.8533  2.0914  1.9931
  127OSM   H18G13644   4.709   3.243   8.430  1.1402  0.8556  1.0682
  127OSM   H18H13645   4.867   3.165   8.444  1.1474  1.5018 -2.3174
  128OSM      N13646   0.376   4.988   6.016  0.4853 -0.4176 -0.0564
  128OSM    C1513647   0.427   4.848   6.050 -0.3168 -0.4871 -0.4585
  128OSM   H15A13648   0.519   4.830   5.997 -1.2770 -0.8870 -2.0719
  128OSM   H15B13649   0.362   4.765   6.027 -2.0356  0.7439 -0.2561
  128OSM   H15C13650   0.442   4.851   6.157  1.1103 -0.2689 -0.6428
  128OSM    C1413651   0.486   5.092   6.038 -0.1374  0.5172 -0.1093
  128OSM   H14A13652   0.525   5.098   6.138  1.1111  0.9590 -0.5972
  128OSM   H14B13653   0.456   5.194   6.022  2.5721  1.2428 -1.1964
  128OSM   H14C13654   0.561   5.072   5.962 -2.1504 -0.5936 -1.9234
  128OSM    C1313655   0.358   4.991   5.858 -0.9046  0.1736 -0.0083
  128OSM   H13A13656   0.449   4.959   5.810  0.9724  2.6574  1.6349
  128OSM   H13B13657   0.340   5.092   5.825 -0.4845  0.1008 -0.4731
  128OSM   H13C13658   0.292   4.917   5.815 -1.5018  1.1202 -0.7745
  128OSM    C1213659   0.241   5.033   6.066 -0.0998  0.0653 -0.1536
  128OSM   H12A13660   0.171   4.960   6.028 -0.6431 -0.9486  2.5473
  128OSM   H12B13661   0.214   5.131   6.028  1.8673  1.2689  1.3461
  128OSM    C1113662   0.228   5.037   6.221  0.7229 -0.2810  0.7224
  128OSM   H11A13663   0.237   4.938   6.270  1.2673 -0.2622  0.6604
  128OSM   H11B13664   0.127   5.082   6.235 -0.4875 -2.5317 -0.1147
  128OSM      P13665   0.329   5.253   6.339  0.1404 -0.1642 -0.0064
  128OSM    O1313666   0.436   5.274   6.443  0.0035 -0.3084  0.4350
  128OSM    O1413667   0.335   5.340   6.225  0.2248 -0.3535  0.2692
  128OSM    O1113668   0.186   5.264   6.411  0.3443 -0.3446  0.0187
  128OSM    O1213669   0.334   5.107   6.288 -0.2668  0.0315  0.2691
  128OSM    C1S13670   0.136   5.169   6.500 -0.1889  0.7813 -1.0613
  128OSM    H1S13671   0.204   5.081   6.513 -0.4363  0.5338 -1.4221
  128OSM    H1T13672   0.045   5.122   6.459  0.2809 -1.1119 -0.0935
  128OSM     NF13673   0.041   5.133   6.727 -0.2716  0.1984  0.1517
  128OSM    HNF13674  -0.058   5.129   6.741  0.1557 -1.2267  3.8511
  128OSM    C2S13675   0.095   5.229   6.641 -0.2272  0.1372  0.0082
  128OSM    H2S13676   0.187   5.264   6.692  0.9114 -0.2649 -1.6718
  128OSM    C3S13677   0.001   5.347   6.626  0.8622  0.4583 -0.0799
  128OSM    H3S13678  -0.096   5.299   6.601  1.3764 -0.9288  0.4578
  128OSM     O313679   0.024   5.448   6.525 -0.4505  0.3159 -0.5067
  128OSM    HO313680   0.091   5.410   6.469  0.5451  1.3892 -0.0849
  128OSM    C4S13681  -0.017   5.412   6.759 -0.3418  0.1625 -0.0459
  128OSM    H4S13682   0.070   5.459   6.808 -0.7886 -0.7125  1.6895
  128OSM    C5S13683  -0.134   5.421   6.829 -0.7338 -0.4109  0.4321
  128OSM    H5S13684  -0.221   5.376   6.779  1.1311 -1.8449 -1.6758
  128OSM    C6S13685  -0.146   5.481   6.972  0.6412 -0.1655  1.2671
  128OSM    H6S13686  -0.241   5.445   7.017 -1.5337 -0.1047 -2.7272
  128OSM    H6T13687  -0.177   5.587   6.956 -2.7646 -1.4564 -2.5905
  128OSM    C7S13688  -0.039   5.454   7.077  0.4502  0.6208 -1.3098
  128OSM    H7S13689   0.052   5.508   7.044  2.7559 -1.8583  0.5701
  128OSM    H7T13690  -0.009   5.349   7.095  3.1893  1.8622  3.0528
  128OSM    C8S13691  -0.064   5.533   7.212 -0.0585  0.9084 -0.6431
  128OSM    H8S13692  -0.146   5.485   7.270  0.6544 -0.0110 -0.3825
  128OSM    H8T13693  -0.101   5.637   7.198 -1.6374  0.6842  1.3493
  128OSM    C9S13694   0.055   5.535   7.309  0.3605  0.6921 -0.3399
  128OSM    H9S13695   0.140   5.593   7.269  0.1438  2.0630  1.0939
  128OSM    H9T13696   0.092   5.431   7.327 -1.7469 -0.0004  0.2979
  128OSM   C10S13697  -0.000   5.590   7.442  0.5251  0.1906  0.0919
  128OSM   H10S13698  -0.079   5.525   7.485  0.4545  0.7399  0.8073
  128OSM   H10T13699  -0.056   5.685   7.427 -0.7317 -0.7668 -1.5558
  128OSM   C11S13700   0.111   5.613   7.540 -0.5854  0.7163 -0.2176
  128OSM   H11S13701   0.173   5.702   7.513  2.0148 -1.2382 -1.1665
  128OSM   H11T13702   0.181   5.527   7.545 -1.2928  0.1712  0.6438
  128OSM   C12S13703   0.051   5.639   7.678 -0.5152 -0.1981 -0.2553
  128OSM   H12S13704  -0.006   5.549   7.708  1.5053 -1.4923 -0.0690
  128OSM   H12T13705  -0.014   5.727   7.657  0.5080  1.0881  1.5788
  128OSM   C13S13706   0.141   5.691   7.790  0.1908 -0.2264  0.1781
  128OSM   H13S13707   0.184   5.782   7.743  1.7064 -0.9534  0.0904
  128OSM   H13T13708   0.218   5.614   7.815  0.1687 -0.2723  0.1047
  128OSM   C14S13709   0.072   5.727   7.914  0.2332 -0.5599 -0.3702
  128OSM   H14S13710  -0.029   5.771   7.902 -0.6732 -2.4261  0.0252
  128OSM   H14T13711   0.140   5.796   7.967 -1.2639  1.2886 -0.7247
  128OSM   C15S13712   0.048   5.611   8.018 -0.5294  0.1012 -0.6681
  128OSM   H15S13713   0.146   5.570   8.050 -0.5722  0.1955 -0.4079
  128OSM   H15T13714  -0.012   5.534   7.966  0.6968 -0.0779 -1.8458
  128OSM   C16S13715  -0.022   5.657   8.147  0.2198 -0.2541 -0.2755
  128OSM   H16S13716  -0.096   5.737   8.123  0.6676  0.8935  1.9207
  128OSM   H16T13717   0.062   5.710   8.196  1.7273 -2.5381 -0.2288
  128OSM   C17S13718  -0.074   5.544   8.230  0.1506 -0.4632 -0.6770
  128OSM   H17S13719  -0.000   5.460   8.229  0.1447 -0.4794 -0.0238
  128OSM   H17T13720  -0.160   5.506   8.171 -1.0137  1.2223 -0.1355
  128OSM   C18S13721  -0.131   5.581   8.366 -0.3598 -0.4593 -0.2518
  128OSM   H18S13722  -0.201   5.500   8.396 -1.3280  0.5873  0.4065
  128OSM   H18T13723  -0.196   5.671   8.359 -1.8526 -1.4800  0.1655
  128OSM   H18U13724  -0.052   5.598   8.442 -0.5482 -0.4198 -0.0647
  128OSM    C1F13725   0.104   5.024   6.781 -0.6377  0.1073  0.5895
  128OSM     OF13726   0.225   5.027   6.782  0.5379  0.6160 -0.5547
  128OSM    C2F13727   0.030   4.909   6.834 -0.8450  0.3754  0.3177
  128OSM    H2F13728   0.096   4.821   6.841 -2.1676 -0.6712 -0.0030
  128OSM    H2G13729  -0.046   4.880   6.759 -0.4232 -1.1739  0.4700
  128OSM    C3F13730  -0.035   4.951   6.966  0.2347 -0.0972  0.0094
  128OSM    H3F13731  -0.090   4.862   7.004  1.8053 -0.9483  0.3849
  128OSM    H3G13732  -0.118   5.024   6.948 -1.7890 -2.3247 -0.2525
  128OSM    C4F13733   0.056   4.999   7.076 -0.1419  0.1706 -0.7246
  128OSM    H4F13734   0.109   5.090   7.041  0.6033  0.4386  0.9839
  128OSM    H4G13735   0.128   4.917   7.098  1.1587  0.9651 -1.8152
  128OSM    C5F13736  -0.013   5.032   7.208  0.8520  0.1523 -0.6900
  128OSM    H5F13737  -0.091   4.958   7.234  0.2079  1.3176  0.8743
  128OSM    H5G13738  -0.077   5.122   7.193  1.3631  0.8397  1.0131
  128OSM    C6F13739   0.082   5.060   7.331 -0.2256  0.0089 -0.1746
  128OSM    H6F13740   0.151   5.136   7.289  0.2463 -0.4901 -0.3004
  128OSM    H6G13741   0.139   4.969   7.361  2.3264  1.3340 -0.6905
  128OSM    C7F13742   0.006   5.134   7.440  0.9818 -0.2517 -0.5573
  128OSM    H7F13743  -0.062   5.060   7.487 -0.7226  1.6847  0.2081
  128OSM    H7G13744  -0.067   5.213   7.409  0.6041 -0.3532  0.0530
  128OSM    C8F13745   0.104   5.179   7.552  0.0871  0.4325  0.1687
  128OSM    H8F13746   0.178   5.253   7.516  0.5489  0.5906  1.3745
  128OSM    H8G13747   0.163   5.095   7.595  1.3905  1.6507  0.8660
  128OSM    C9F13748   0.047   5.249   7.672  0.0266 -0.3697 -0.0162
  128OSM    H9F13749  -0.019   5.334   7.649 -1.7013 -1.3657  0.9919
  128OSM   C10F13750   0.049   5.213   7.806  0.1702  0.1429  0.9920
  128OSM   H10F13751  -0.015   5.267   7.877 -0.7571 -0.2910  0.5154
  128OSM   C11F13752   0.104   5.101   7.885 -0.1051 -0.5052 -0.4985
  128OSM   H11F13753   0.176   5.037   7.831  2.7427 -1.6961  4.1105
  128OSM   H11G13754   0.033   5.034   7.939 -0.9410  1.1093  0.4919
  128OSM   C12F13755   0.185   5.161   7.999  0.0791 -0.3256 -0.2877
  128OSM   H12F13756   0.136   5.253   8.037  0.5245 -0.1301 -0.1753
  128OSM   H12G13757   0.287   5.189   7.966 -0.6430  2.7459 -0.2426
  128OSM   C13F13758   0.215   5.067   8.120 -0.0511 -0.2284 -0.8179
  128OSM   H13F13759   0.140   5.058   8.202  3.2152 -0.6304  2.3502
  128OSM   H13G13760   0.297   5.119   8.175 -0.6872  0.0416 -0.1004
  128OSM   C14F13761   0.262   4.926   8.092 -0.4396  0.4646 -0.9577
  128OSM   H14F13762   0.345   4.929   8.017  0.2611  2.5623 -0.1806
  128OSM   H14G13763   0.185   4.858   8.049 -1.9546 -1.6239  4.2945
  128OSM   C15F13764   0.329   4.867   8.219 -0.3488 -0.1446 -0.4881
  128OSM   H15F13765   0.399   4.944   8.259 -0.4895 -0.0068 -0.5073
  128OSM   H15G13766   0.394   4.785   8.183  3.3685  2.2856  0.0774
  128OSM   C16F13767   0.229   4.824   8.329 -0.2043  0.5740  0.2892
  128OSM   H16F13768   0.191   4.723   8.306 -2.7261  1.5719 -0.2517
  128OSM   H16G13769   0.150   4.902   8.329 -0.4520  0.3203 -0.1089
  128OSM   C17F13770   0.300   4.814   8.461 -0.1153  0.5074  0.2390
  128OSM   H17F13771   0.362   4.904   8.482  0.5929 -0.2633  1.5981
  128OSM   H17G13772   0.367   4.726   8.449 -2.8518 -2.0857  2.3052
  128OSM   C18F13773   0.209   4.803   8.585  0.7190  0.8529  0.2872
  128OSM   H18F13774   0.134   4.722   8.570  1.1124  0.7782 -1.5507
  128OSM   H18G13775   0.153   4.897   8.603 -0.9782  0.0862 -0.6683
  128OSM   H18H13776   0.271   4.786   8.675  3.6266 -0.0883 -1.7252
  129OSM      N13777   3.842   2.348   6.017 -0.2476  0.1913  0.0146
  129OSM    C1513778   3.721   2.283   5.958  0.4287 -0.9291  0.3942
  129OSM   H15A13779   3.707   2.326   5.860 -0.2876  0.3534  1.0377
  129OSM   H15B13780   3.626   2.305   6.004 -0.5243  0.9099 -2.1718
  129OSM   H15C13781   3.728   2.175   5.954 -1.9099 -1.1020 -1.2046
  129OSM    C1413782   3.975   2.305   5.964 -0.6118 -0.4302 -0.0585
  129OSM   H14A13783   3.970   2.198   5.966 -1.8156 -0.3982 -0.4560
  129OSM   H14B13784   4.059   2.342   6.021 -1.4851 -0.0845  1.0429
  129OSM   H14C13785   3.993   2.352   5.868 -1.9077  3.0031  1.1901
  129OSM    C1313786   3.837   2.500   6.003  0.0038  0.1403  0.5828
  129OSM   H13A13787   3.739   2.529   6.037 -0.2253  0.6160 -0.4543
  129OSM   H13B13788   3.845   2.521   5.897  0.3322 -2.8410 -0.0861
  129OSM   H13C13789   3.918   2.553   6.051 -1.8494  2.8840  0.8864
  129OSM    C1213790   3.832   2.320   6.171  0.3991  0.1689  0.0015
  129OSM   H12A13791   3.837   2.213   6.177  2.4129  0.1397 -1.1495
  129OSM   H12B13792   3.738   2.351   6.213 -0.1124 -0.3017 -0.7817
  129OSM    C1113793   3.942   2.377   6.264  0.2646 -0.0605 -0.0698
  129OSM   H11A13794   3.911   2.370   6.370  1.2952  0.9293  0.3194
  129OSM   H11B13795   3.953   2.487   6.249  1.2349 -0.1029  0.2550
  129OSM      P13796   4.101   2.170   6.293 -0.2881  0.0406 -0.0132
  129OSM    O1313797   3.996   2.073   6.252  0.0135  0.2668 -0.3122
  129OSM    O1413798   4.239   2.139   6.248 -0.0819  0.5016 -0.1980
  129OSM    O1113799   4.093   2.191   6.447 -0.2175  0.5584 -0.5409
  129OSM    O1213800   4.067   2.317   6.238 -0.7392 -0.3364  0.0224
  129OSM    C1S13801   4.166   2.298   6.510 -0.2462 -0.3148 -0.5806
  129OSM    H1S13802   4.102   2.388   6.518 -0.2053 -0.3911  0.7054
  129OSM    H1T13803   4.266   2.313   6.463 -0.4555  1.0123 -0.6275
  129OSM     NF13804   4.247   2.383   6.728  0.2373  0.4942 -0.2528
  129OSM    HNF13805   4.342   2.407   6.709  0.3671  0.8601  0.7915
  129OSM    C2S13806   4.206   2.260   6.656  0.2610 -1.3622 -0.0415
  129OSM    H2S13807   4.115   2.214   6.700  0.8593 -0.2088  2.5589
  129OSM    C3S13808   4.312   2.144   6.670 -0.0904  0.0091 -0.5353
  129OSM    H3S13809   4.407   2.181   6.627  1.1918 -1.1516  1.1365
  129OSM     O313810   4.287   2.036   6.582  0.1441 -0.2529  0.4782
  129OSM    HO313811   4.219   2.070   6.524  0.7579  1.7612  0.8801
  129OSM    C4S13812   4.338   2.108   6.812  0.0620  0.5064 -0.4219
  129OSM    H4S13813   4.424   2.162   6.855 -0.6506  0.4207  1.1826
  129OSM    C5S13814   4.272   2.023   6.897 -0.2859  0.9014 -0.0268
  129OSM    H5S13815   4.186   1.965   6.862  1.3550 -1.4748 -0.3440
  129OSM    C6S13816   4.309   1.987   7.042  0.5736  0.1645  0.2719
  129OSM    H6S13817   4.404   2.039   7.068  0.0615  1.2793 -0.0085
  129OSM    H6T13818   4.328   1.878   7.050  1.6355  0.2756 -0.4955
  129OSM    C7S13819   4.213   2.042   7.147  0.0818  0.0072 -0.1211
  129OSM    H7S13820   4.111   2.009   7.118 -1.0467  2.3416  0.9161
  129OSM    H7T13821   4.217   2.152   7.157 -1.5584  0.4581 -3.1260
  129OSM    C8S13822   4.239   1.993   7.286  1.3346  0.4209 -0.0979
  129OSM    H8S13823   4.347   1.986   7.312  0.8706 -2.5855  1.4832
  129OSM    H8T13824   4.205   1.889   7.304  1.0695  0.8446  2.0601
  129OSM    C9S13825   4.175   2.083   7.396  0.0371  0.0841  0.2906
  129OSM    H9S13826   4.065   2.082   7.379  0.2173  0.1981 -0.9590
  129OSM    H9T13827   4.218   2.184   7.382  2.4208 -1.1636 -2.2403
  129OSM   C10S13828   4.207   2.029   7.535 -0.4810  0.5255 -0.3403
  129OSM   H10S13829   4.190   1.919   7.533  0.1959  0.4219 -0.5275
  129OSM   H10T13830   4.146   2.065   7.621 -3.5882  1.5095 -2.7437
  129OSM   C11S13831   4.352   2.050   7.578  0.0496  0.0858 -0.8695
  129OSM   H11S13832   4.370   2.160   7.585 -1.3827  0.2933 -0.0153
  129OSM   H11T13833   4.425   2.012   7.503 -1.4379 -1.0205 -1.8082
  129OSM   C12S13834   4.387   1.988   7.720  0.1867  0.5838 -0.7173
  129OSM   H12S13835   4.357   1.881   7.710  0.7739  0.5168 -1.9579
  129OSM   H12T13836   4.331   2.038   7.802  1.5806  1.1297 -0.0601
  129OSM   C13S13837   4.543   1.982   7.739 -0.8450 -0.0478  0.2913
  129OSM   H13S13838   4.591   2.082   7.738  0.9986 -0.7918 -3.4748
  129OSM   H13T13839   4.575   1.924   7.650  0.0401  1.9029 -0.7241
  129OSM   C14S13840   4.585   1.923   7.870  0.3543  0.2784  0.5372
  129OSM   H14S13841   4.695   1.912   7.879  0.1404 -0.8135  2.5377
  129OSM   H14T13842   4.545   1.821   7.888  0.5476 -0.0016 -0.5668
  129OSM   C15S13843   4.550   2.008   7.992  0.2358 -0.2778  0.1730
  129OSM   H15S13844   4.441   2.006   8.010 -0.1252  0.3232 -1.7278
  129OSM   H15T13845   4.594   2.110   7.983  1.6582 -0.5143  3.0119
  129OSM   C16S13846   4.620   1.975   8.129 -0.2344  0.3886 -0.6606
  129OSM   H16S13847   4.722   2.018   8.129  0.5087 -1.1065  2.3037
  129OSM   H16T13848   4.615   1.866   8.151 -0.9198  0.8820  1.9913
  129OSM   C17S13849   4.554   2.042   8.251  0.3279  0.8446 -0.5561
  129OSM   H17S13850   4.609   2.004   8.340 -0.6396 -0.4970 -0.4944
  129OSM   H17T13851   4.454   1.997   8.271  1.1075  0.1308  2.2101
  129OSM   C18S13852   4.543   2.192   8.250 -0.2799 -0.1475 -0.2400
  129OSM   H18S13853   4.630   2.252   8.215 -2.2081  2.7457 -0.4897
  129OSM   H18T13854   4.530   2.219   8.357  0.4584  0.6390 -0.3299
  129OSM   H18U13855   4.464   2.232   8.184 -0.3693 -0.4324 -0.3045
  129OSM    C1F13856   4.157   2.475   6.761 -0.2924  0.6375 -0.0591
  129OSM     OF13857   4.043   2.445   6.751 -0.3339  0.4040 -0.0068
  129OSM    C2F13858   4.205   2.609   6.811 -0.4747 -0.0087 -0.2869
  129OSM    H2F13859   4.192   2.677   6.724  0.0646 -0.2192 -0.5354
  129OSM    H2G13860   4.315   2.608   6.826 -0.6804 -0.2640  1.3259
  129OSM    C3F13861   4.132   2.654   6.937 -0.1121  0.2417  0.0626
  129OSM    H3F13862   4.021   2.646   6.928 -0.0368 -1.7474  0.3961
  129OSM    H3G13863   4.165   2.757   6.960 -1.8268  1.0089 -0.7295
  129OSM    C4F13864   4.160   2.562   7.060  0.1122  0.7340 -0.4918
  129OSM    H4F13865   4.268   2.564   7.086 -0.2542 -0.9100  1.4275
  129OSM    H4G13866   4.132   2.457   7.037 -0.5753  0.6165  0.8006
  129OSM    C5F13867   4.095   2.610   7.190 -0.0606  0.4289 -0.7159
  129OSM    H5F13868   3.996   2.653   7.167 -0.1132  1.2350  0.8346
  129OSM    H5G13869   4.150   2.701   7.222 -0.1904 -0.6430  3.0751
  129OSM    C6F13870   4.087   2.502   7.301  0.1629 -0.2457  0.0788
  129OSM    H6F13871   4.194   2.483   7.321 -0.1258 -1.3638  0.6087
  129OSM    H6G13872   4.049   2.417   7.241  0.1042  0.1544 -0.4539
  129OSM    C7F13873   4.009   2.538   7.430 -0.0826 -0.3699 -0.6840
  129OSM    H7F13874   3.908   2.566   7.391  0.8544  1.9918 -1.6279
  129OSM    H7G13875   4.038   2.635   7.476  1.2304 -0.7456 -0.6978
  129OSM    C8F13876   4.001   2.415   7.519 -0.3142  0.2351  0.5717
  129OSM    H8F13877   3.968   2.325   7.463  1.0637  1.0248 -1.6058
  129OSM    H8G13878   3.917   2.435   7.589 -1.7811 -2.5566 -0.2335
  129OSM    C9F13879   4.132   2.369   7.577 -0.3480  0.0791 -0.6576
  129OSM    H9F13880   4.221   2.385   7.515  1.8311 -0.7532  2.0795
  129OSM   C10F13881   4.144   2.327   7.705 -0.0074 -0.0144  0.5009
  129OSM   H10F13882   4.242   2.286   7.736  0.4301 -1.0056 -1.9902
  129OSM   C11F13883   4.031   2.299   7.800  0.0650  0.8562  0.5296
  129OSM   H11F13884   3.959   2.233   7.747 -0.6033  0.6883  1.6173
  129OSM   H11G13885   3.980   2.394   7.827 -1.3404  0.6490 -1.2055
  129OSM   C12F13886   4.065   2.208   7.919 -0.5650  0.4241  0.1223
  129OSM   H12F13887   4.138   2.130   7.888 -3.4167 -2.5183  0.2658
  129OSM   H12G13888   3.980   2.150   7.960 -2.2203  2.8050  0.2409
  129OSM   C13F13889   4.106   2.294   8.035 -0.0023 -0.0221 -0.5122
  129OSM   H13F13890   4.006   2.331   8.064 -0.6906 -2.9677  1.2980
  129OSM   H13G13891   4.175   2.377   8.010 -2.1837  1.7199 -0.9954
  129OSM   C14F13892   4.155   2.204   8.153 -0.6593  0.4668  0.4044
  129OSM   H14F13893   4.248   2.148   8.127 -0.7474 -0.2717  1.6304
  129OSM   H14G13894   4.075   2.129   8.168 -0.8032  0.2648 -1.1840
  129OSM   C15F13895   4.186   2.284   8.279  0.5686  0.0211 -0.1430
  129OSM   H15F13896   4.123   2.370   8.308 -2.0274 -2.0663  0.9110
  129OSM   H15G13897   4.292   2.316   8.268  0.0534  1.6065 -0.6867
  129OSM   C16F13898   4.181   2.194   8.408  0.5240 -0.0756  0.0533
  129OSM   H16F13899   4.269   2.208   8.475  1.1633 -2.6105 -0.1575
  129OSM   H16G13900   4.180   2.089   8.373  3.4648  0.1618 -1.0459
  129OSM   C17F13901   4.063   2.222   8.493  0.1387 -0.3437  0.3087
  129OSM   H17F13902   3.973   2.206   8.430  0.2537 -1.0826  0.3215
  129OSM   H17G13903   4.060   2.328   8.527 -0.4400  0.3352 -1.7235
  129OSM   C18F13904   4.055   2.132   8.610 -0.5576  0.6782  0.5147
  129OSM   H18F13905   4.065   2.024   8.586  1.0795  0.9738 -0.2727
  129OSM   H18G13906   3.953   2.138   8.654 -0.0575  1.8750  1.5772
  129OSM   H18H13907   4.121   2.164   8.694 -0.2078 -1.6306  1.1989
  130OSM      N13908   5.893   5.801   6.441 -0.0536  0.1119  0.3080
  130OSM    C1513909   6.038   5.782   6.402 -0.3356  0.9359  0.5568
  130OSM   H15A13910   6.076   5.882   6.384  1.1425  0.0453 -1.6979
  130OSM   H15B13911   6.050   5.730   6.309  3.0375 -0.3086  1.5582
  130OSM   H15C13912   6.096   5.735   6.479  1.2446  0.1288 -1.0621
  130OSM    C1413913   5.884   5.879   6.574  0.2444  0.1957 -0.2798
  130OSM   H14A13914   5.902   5.814   6.659  0.8210 -0.6899 -1.0561
  130OSM   H14B13915   5.781   5.909   6.586 -0.4085 -1.6865 -0.8280
  130OSM   H14C13916   5.948   5.966   6.579  2.2639 -1.1550 -1.2645
  130OSM    C1313917   5.828   5.885   6.331 -0.2821  0.1823 -0.7157
  130OSM   H13A13918   5.841   5.836   6.236  1.3496  1.1618 -1.0430
  130OSM   H13B13919   5.884   5.977   6.335  0.7704 -0.3717 -2.0601
  130OSM   H13C13920   5.723   5.906   6.337 -0.3397 -0.1408 -0.5468
  130OSM    C1213921   5.826   5.666   6.456  0.3275  0.8832 -0.1091
  130OSM   H12A13922   5.720   5.681   6.466  0.4068  0.0774  2.8925
  130OSM   H12B13923   5.866   5.621   6.546  1.6489 -0.8094 -1.4634
  130OSM    C1113924   5.843   5.573   6.322  0.0791  0.1428 -0.4337
  130OSM   H11A13925   5.832   5.468   6.358  0.6622  0.4630  0.7182
  130OSM   H11B13926   5.941   5.575   6.270  0.7564 -1.0155  0.7402
  130OSM      P13927   5.591   5.575   6.230 -0.4495  0.2158 -0.3884
  130OSM    O1313928   5.517   5.674   6.158 -0.5118 -0.2079 -0.0985
  130OSM    O1413929   5.578   5.436   6.185 -0.0802 -0.0662  0.1846
  130OSM    O1113930   5.563   5.583   6.379  0.3829  0.7692 -0.3105
  130OSM    O1213931   5.744   5.610   6.229 -0.3628 -0.2229  0.3327
  130OSM    C1S13932   5.500   5.480   6.459  0.1444  0.4942  0.1254
  130OSM    H1S13933   5.573   5.399   6.481 -1.1893 -0.8910 -0.2945
  130OSM    H1T13934   5.410   5.437   6.409  1.1146 -1.0090 -0.4181
  130OSM     NF13935   5.411   5.417   6.677  0.0252  0.1098 -1.0012
  130OSM    HNF13936   5.315   5.389   6.675  0.3069 -0.8911 -0.5342
  130OSM    C2S13937   5.449   5.527   6.599 -0.3551 -0.6406 -0.2657
  130OSM    H2S13938   5.538   5.576   6.645 -0.8120 -0.8535  0.9005
  130OSM    C3S13939   5.341   5.632   6.584 -0.3935 -0.0607  0.0628
  130OSM    H3S13940   5.248   5.592   6.540 -2.1968  1.6520  2.0715
  130OSM     O313941   5.389   5.746   6.511  0.3086  0.1045 -0.1287
  130OSM    HO313942   5.470   5.713   6.472  0.5922 -0.6215  1.0439
  130OSM    C4S13943   5.294   5.681   6.730  0.0969 -0.0722 -0.6169
  130OSM    H4S13944   5.206   5.622   6.759  0.2517 -0.3928 -0.7921
  130OSM    C5S13945   5.358   5.771   6.803  0.9217 -0.5074  1.0202
  130OSM    H5S13946   5.437   5.828   6.752 -0.1184 -0.5843 -0.7322
  130OSM    C6S13947   5.330   5.800   6.951  0.0792  0.2606 -0.3834
  130OSM    H6S13948   5.225   5.828   6.973  0.4487  1.2934  0.1316
  130OSM    H6T13949   5.411   5.871   6.977  1.7712 -1.1524 -1.4999
  130OSM    C7S13950   5.344   5.668   7.047 -0.1917 -0.6072 -0.0770
  130OSM    H7S13951   5.444   5.620   7.036 -1.9018 -4.2762 -1.1755
  130OSM    H7T13952   5.282   5.584   7.007  0.7338 -1.6811  0.6608
  130OSM    C8S13953   5.320   5.709   7.197  0.3736  0.6127  0.4669
  130OSM    H8S13954   5.213   5.739   7.198  0.2321  0.2616 -1.0993
  130OSM    H8T13955   5.384   5.796   7.225 -0.0476  0.9373  0.4364
  130OSM    C9S13956   5.329   5.590   7.289  0.1375  0.9745  0.2081
  130OSM    H9S13957   5.438   5.570   7.294 -0.2826 -1.2318  2.6660
  130OSM    H9T13958   5.288   5.493   7.253  2.1269 -0.9478  2.7396
  130OSM   C10S13959   5.278   5.613   7.432  0.4386  0.6523 -0.1826
  130OSM   H10S13960   5.303   5.522   7.491 -1.3733  0.3814  0.2110
  130OSM   H10T13961   5.168   5.624   7.425  0.4642 -0.1109 -2.6447
  130OSM   C11S13962   5.336   5.745   7.496  0.5536 -0.3528  0.3248
  130OSM   H11S13963   5.310   5.830   7.430  2.7779  0.2263  0.1190
  130OSM   H11T13964   5.446   5.745   7.510  0.7126 -2.6243 -0.5704
  130OSM   C12S13965   5.285   5.771   7.638  0.1613  0.0516  0.1175
  130OSM   H12S13966   5.174   5.774   7.643  0.1249 -1.3432  0.3776
  130OSM   H12T13967   5.317   5.871   7.676 -2.1171  0.3104  1.5020
  130OSM   C13S13968   5.337   5.660   7.734 -0.4210  0.0426 -0.1944
  130OSM   H13S13969   5.445   5.646   7.713 -0.4343 -0.2092 -0.1011
  130OSM   H13T13970   5.283   5.569   7.701 -1.0459  0.1222  0.5555
  130OSM   C14S13971   5.326   5.700   7.880  0.3125 -0.2371  0.0666
  130OSM   H14S13972   5.225   5.734   7.909 -0.6881 -2.6412 -0.3863
  130OSM   H14T13973   5.390   5.791   7.886  0.9935 -0.4415 -2.6234
  130OSM   C15S13974   5.390   5.604   7.975 -0.1518  0.3390 -0.6385
  130OSM   H15S13975   5.499   5.622   7.981  0.0796 -1.1317  3.9997
  130OSM   H15T13976   5.378   5.495   7.953  1.2421  0.4501 -2.1349
  130OSM   C16S13977   5.345   5.628   8.121  0.1346  0.4833  0.6636
  130OSM   H16S13978   5.383   5.723   8.166  1.8887 -0.1160  0.5213
  130OSM   H16T13979   5.378   5.548   8.191 -0.8201 -0.3024  0.2383
  130OSM   C17S13980   5.199   5.635   8.149  0.2573  0.5639 -0.0519
  130OSM   H17S13981   5.159   5.727   8.102 -2.3942 -0.6952 -0.4073
  130OSM   H17T13982   5.172   5.633   8.257 -2.0850 -3.2590 -0.5317
  130OSM   C18S13983   5.124   5.511   8.090  0.5030  0.3015  0.5005
  130OSM   H18S13984   5.157   5.501   7.984 -1.1219 -2.3053  0.1506
  130OSM   H18T13985   5.014   5.516   8.105  0.3839  0.5082 -0.3765
  130OSM   H18U13986   5.159   5.414   8.131 -1.2040 -1.3065 -1.5737
  130OSM    C1F13987   5.491   5.321   6.731  0.6928 -0.8990  0.0659
  130OSM     OF13988   5.615   5.316   6.721  0.3381 -0.6285 -0.4639
  130OSM    C2F13989   5.425   5.206   6.791  0.3504 -0.3826 -0.3967
  130OSM    H2F13990   5.409   5.119   6.723  0.4205 -1.1337  0.5134
  130OSM    H2G13991   5.333   5.239   6.844  0.6121 -1.6916  0.9590
  130OSM    C3F13992   5.505   5.157   6.920  0.2444  0.4777  0.6249
  130OSM    H3F13993   5.523   5.243   6.987  0.1981 -0.7666  2.3029
  130OSM    H3G13994   5.602   5.133   6.871  0.0474  0.4239  0.2548
  130OSM    C4F13995   5.440   5.027   6.983  0.0996  0.2494 -0.0222
  130OSM    H4F13996   5.516   4.968   7.040 -0.0826  1.7472  1.8582
  130OSM    H4G13997   5.390   4.959   6.911 -2.9582  1.7783  0.5333
  130OSM    C5F13998   5.327   5.056   7.088  1.1205  0.2602 -0.1525
  130OSM    H5F13999   5.267   4.964   7.106  1.4462  0.0274 -0.2565
  130OSM    H5G14000   5.253   5.126   7.043 -1.4604 -1.8613  0.5215
  130OSM    C6F14001   5.380   5.112   7.213  0.1802 -0.3004  0.0909
  130OSM    H6F14002   5.454   5.190   7.183 -2.4341  1.0579 -3.5849
  130OSM    H6G14003   5.437   5.032   7.264  2.4472  1.2446  0.1367
  130OSM    C7F14004   5.272   5.172   7.309 -0.2271  1.2074  0.3241
  130OSM    H7F14005   5.189   5.098   7.315  0.3690  0.5396  0.4737
  130OSM    H7G14006   5.228   5.249   7.242  0.7599  0.8638 -0.7574
  130OSM    C8F14007   5.324   5.210   7.447 -0.1171  0.8084  0.1698
  130OSM    H8F14008   5.384   5.303   7.453  2.0688 -0.4848 -0.4244
  130OSM    H8G14009   5.406   5.144   7.482 -1.2861 -0.0620  1.3756
  130OSM    C9F14010   5.209   5.219   7.551 -0.2903  0.0040  0.3723
  130OSM    H9F14011   5.160   5.318   7.550  1.0997  0.7288  1.5442
  130OSM   C10F14012   5.196   5.150   7.660  0.0932 -0.2717  0.2973
  130OSM   H10F14013   5.111   5.182   7.722  0.7601  0.5114  0.8390
  130OSM   C11F14014   5.282   5.030   7.700 -0.3815  0.2976  0.1365
  130OSM   H11F14015   5.379   5.013   7.647  0.5258 -1.8868  2.2962
  130OSM   H11G14016   5.217   4.941   7.684  0.2806 -0.1483 -0.1560
  130OSM   C12F14017   5.303   5.028   7.852  0.2170 -0.0622 -0.3478
  130OSM   H12F14018   5.367   4.938   7.860  1.1458  0.6181 -0.0074
  130OSM   H12G14019   5.214   4.998   7.911 -0.1070 -1.3300 -1.4168
  130OSM   C13F14020   5.361   5.154   7.920 -0.3353  0.0229 -0.5078
  130OSM   H13F14021   5.282   5.231   7.908  0.7277  1.0801 -0.9048
  130OSM   H13G14022   5.453   5.184   7.865  0.7843 -1.5740  0.4099
  130OSM   C14F14023   5.402   5.126   8.064 -0.0067 -0.2478  0.4090
  130OSM   H14F14024   5.466   5.036   8.076 -0.6760 -0.6404  1.1930
  130OSM   H14G14025   5.310   5.106   8.124 -2.4773  1.8392 -2.3974
  130OSM   C15F14026   5.473   5.241   8.133  0.9430 -0.6216 -0.2466
  130OSM   H15F14027   5.421   5.338   8.116 -1.8680 -2.1155 -0.9583
  130OSM   H15G14028   5.575   5.239   8.089  0.9778  0.4860 -0.2533
  130OSM   C16F14029   5.486   5.201   8.281 -0.1513  0.5240 -0.2781
  130OSM   H16F14030   5.541   5.105   8.278  1.5075  1.4632 -0.9819
  130OSM   H16G14031   5.397   5.208   8.347  0.1076  0.4200  0.0804
  130OSM   C17F14032   5.593   5.282   8.356  0.5021 -1.1254  0.1306
  130OSM   H17F14033   5.573   5.392   8.354 -1.8337 -1.4478  1.7520
  130OSM   H17G14034   5.693   5.277   8.309  0.5595  0.0079  0.0991
  130OSM   C18F14035   5.618   5.237   8.501  0.2035  0.1740 -0.6615
  130OSM   H18F14036   5.695   5.295   8.555 -0.4537  2.3182 -1.9181
  130OSM   H18G14037   5.642   5.129   8.512 -0.1746  0.2687  1.5903
  130OSM   H18H14038   5.526   5.246   8.562  0.0197 -1.3354 -0.6850
  131OSM      N14039   2.828   3.575   6.257 -0.7231  0.2154 -0.1123
  131OSM    C1514040   2.821   3.494   6.383  0.4673  0.3547  0.5732
  131OSM   H15A14041   2.724   3.498   6.431  0.2756  0.0870  0.2139
  131OSM   H15B14042   2.897   3.536   6.448  1.9446 -0.2720 -0.6919
  131OSM   H15C14043   2.842   3.389   6.369 -0.8751 -0.0295  1.2714
  131OSM    C1414044   2.722   3.528   6.165  0.2426 -0.1020 -0.3210
  131OSM   H14A14045   2.729   3.422   6.149  2.2241 -0.1326  0.4202
  131OSM   H14B14046   2.727   3.561   6.063  1.6897 -1.2565 -0.6614
  131OSM   H14C14047   2.626   3.526   6.213  0.2872 -0.8430 -0.2508
  131OSM    C1314048   2.804   3.716   6.296  0.0321  0.0096 -0.3252
  131OSM   H13A14049   2.699   3.711   6.320  0.3211  1.0010  1.2657
  131OSM   H13B14050   2.803   3.782   6.210 -3.1770  2.2107  1.2188
  131OSM   H13C14051   2.871   3.754   6.372 -2.0298 -0.9530  2.1227
  131OSM    C1214052   2.960   3.554   6.188  0.4282  0.7501 -0.0020
  131OSM   H12A14053   2.960   3.606   6.094  0.7577  1.8181  0.5731
  131OSM   H12B14054   2.975   3.452   6.153  1.9372  0.3968  1.4944
  131OSM    C1114055   3.083   3.601   6.259  0.4724  0.5249 -0.5988
  131OSM   H11A14056   3.118   3.554   6.353  2.3539  0.2504 -1.3884
  131OSM   H11B14057   3.063   3.710   6.268  1.8099  0.9218 -1.9329
  131OSM      P14058   3.326   3.656   6.187  0.3970  0.1215  0.0783
  131OSM    O1314059   3.427   3.587   6.111 -0.3525  0.1062 -0.0097
  131OSM    O1414060   3.322   3.807   6.167  0.5472  0.2532  0.1407
  131OSM    O1114061   3.340   3.634   6.341 -0.0650  0.4773  0.1505
  131OSM    O1214062   3.185   3.588   6.166 -0.0908  0.9445  0.4860
  131OSM    C1S14063   3.458   3.698   6.395  0.0218  0.4153  0.5740
  131OSM    H1S14064   3.445   3.808   6.389 -0.0664  0.3818  0.0961
  131OSM    H1T14065   3.550   3.660   6.346 -1.2874 -1.8041 -0.3262
  131OSM     NF14066   3.562   3.717   6.619 -0.6827 -0.3466  0.2628
  131OSM    HNF14067   3.651   3.676   6.640 -0.9180 -0.1898  1.6915
  131OSM    C2S14068   3.462   3.653   6.540 -0.0968 -0.9401 -1.2501
  131OSM    H2S14069   3.365   3.679   6.589  0.5294  0.6499 -0.8017
  131OSM    C3S14070   3.490   3.500   6.549  0.8430 -0.5224 -0.4140
  131OSM    H3S14071   3.589   3.474   6.505  0.1622  0.8076 -2.9509
  131OSM     O314072   3.401   3.414   6.480  0.5173  0.4160  0.2893
  131OSM    HO314073   3.347   3.477   6.430 -0.4850 -0.4228  0.2880
  131OSM    C4S14074   3.490   3.467   6.704 -0.0595  0.4505  0.2218
  131OSM    H4S14075   3.586   3.448   6.754 -0.0490  1.1450  0.4698
  131OSM    C5S14076   3.389   3.474   6.797  0.3076  0.2245 -0.4578
  131OSM    H5S14077   3.297   3.531   6.776  1.1911  2.4118  1.1957
  131OSM    C6S14078   3.417   3.425   6.941 -0.2319  0.6098  0.0340
  131OSM    H6S14079   3.414   3.508   7.015 -1.3866  1.8212 -1.3035
  131OSM    H6T14080   3.513   3.371   6.950 -0.2283 -0.5227 -4.2989
  131OSM    C7S14081   3.319   3.317   7.010  0.1649  0.0019 -0.1757
  131OSM    H7S14082   3.315   3.223   6.949 -1.7652 -0.2815  0.3393
  131OSM    H7T14083   3.222   3.370   7.017 -1.1402 -2.1226 -1.0569
  131OSM    C8S14084   3.372   3.277   7.146  0.0967  0.0045 -0.0403
  131OSM    H8S14085   3.378   3.373   7.202  1.7421 -0.8547  1.3546
  131OSM    H8T14086   3.476   3.240   7.132  0.4281  0.6473  0.6441
  131OSM    C9S14087   3.285   3.183   7.221 -0.4310  0.6324  0.9714
  131OSM    H9S14088   3.266   3.086   7.170  0.7607 -0.7587  3.0087
  131OSM    H9T14089   3.188   3.234   7.242 -2.4598 -1.6979 -1.8746
  131OSM   C10S14090   3.353   3.133   7.354  0.2095  0.0726  0.5049
  131OSM   H10S14091   3.398   3.217   7.411 -1.6275  1.4686 -0.0167
  131OSM   H10T14092   3.429   3.055   7.332 -0.3248  0.0408 -1.3844
  131OSM   C11S14093   3.254   3.070   7.452  0.8233 -0.0706 -0.4906
  131OSM   H11S14094   3.221   2.975   7.405  0.8928 -0.7617  0.7946
  131OSM   H11T14095   3.172   3.143   7.471 -0.7764 -2.3967  2.5662
  131OSM   C12S14096   3.295   3.032   7.595  0.9055 -0.2960 -0.5037
  131OSM   H12S14097   3.347   3.117   7.644  1.0407 -0.7450  0.1381
  131OSM   H12T14098   3.377   2.958   7.594  0.2053 -1.1739  1.5408
  131OSM   C13S14099   3.192   2.968   7.692 -0.1657  0.0705  0.2096
  131OSM   H13S14100   3.150   2.871   7.661 -1.5820 -0.1926  2.7022
  131OSM   H13T14101   3.100   3.030   7.691 -2.1696 -2.7106 -1.2188
  131OSM   C14S14102   3.259   2.945   7.829 -0.0445  0.0384  0.1153
  131OSM   H14S14103   3.317   3.033   7.865  3.1717 -2.2832  0.9661
  131OSM   H14T14104   3.337   2.867   7.821 -0.8389 -0.8535  0.8159
  131OSM   C15S14105   3.157   2.890   7.930 -1.1390 -0.1370  1.0076
  131OSM   H15S14106   3.213   2.843   8.014  2.9311  0.2558 -1.2391
  131OSM   H15T14107   3.102   2.809   7.877 -0.0464  0.7735 -1.6437
  131OSM   C16S14108   3.053   2.981   7.992  1.0821 -0.2118  0.1987
  131OSM   H16S14109   2.961   2.942   7.944  1.7006  0.2847 -1.4413
  131OSM   H16T14110   3.051   3.091   7.973  0.0243  0.3385  2.9585
  131OSM   C17S14111   3.026   2.960   8.141  0.1113 -0.0321  0.6250
  131OSM   H17S14112   3.127   2.976   8.184  0.8106 -0.2132 -0.9059
  131OSM   H17T14113   3.000   2.857   8.173 -1.0312 -0.4008 -1.3105
  131OSM   C18S14114   2.938   3.066   8.215 -0.5131 -0.4702  0.3139
  131OSM   H18S14115   2.987   3.166   8.212  0.4069 -0.7534  2.9630
  131OSM   H18T14116   2.927   3.042   8.323  0.7301 -1.0144  0.3305
  131OSM   H18U14117   2.838   3.083   8.169  0.3131 -1.7467 -2.0757
  131OSM    C1F14118   3.556   3.844   6.654  0.0784  0.1462 -0.0934
  131OSM     OF14119   3.455   3.906   6.635 -0.0426 -0.4119  0.0823
  131OSM    C2F14120   3.673   3.911   6.718 -0.1325 -0.0149 -0.0076
  131OSM    H2F14121   3.657   4.020   6.733  5.0563  1.4392 -2.5241
  131OSM    H2G14122   3.759   3.895   6.649  1.9804 -1.3919  2.7314
  131OSM    C3F14123   3.704   3.834   6.854 -0.1057  0.0056  0.8266
  131OSM    H3F14124   3.784   3.894   6.903 -1.3016  2.0383  0.3924
  131OSM    H3G14125   3.732   3.728   6.834  1.1162 -0.4216  4.0448
  131OSM    C4F14126   3.577   3.828   6.946  0.1537 -0.2144 -0.1192
  131OSM    H4F14127   3.488   3.779   6.902 -0.2573  0.8093 -0.4761
  131OSM    H4G14128   3.539   3.932   6.957 -1.6168 -0.7647 -0.8350
  131OSM    C5F14129   3.600   3.766   7.089  0.3511 -0.0806  0.2136
  131OSM    H5F14130   3.673   3.830   7.143 -1.1256  0.2447  1.9242
  131OSM    H5G14131   3.640   3.662   7.086 -1.0412 -0.6722  0.7912
  131OSM    C6F14132   3.466   3.765   7.174 -0.2774 -0.3562 -0.7096
  131OSM    H6F14133   3.389   3.726   7.104 -1.1472 -0.8454  0.4836
  131OSM    H6G14134   3.435   3.870   7.193 -0.5023 -0.1678 -2.0169
  131OSM    C7F14135   3.480   3.691   7.308 -0.3702  0.3519  0.4932
  131OSM    H7F14136   3.573   3.725   7.358  1.7748 -3.3980 -0.5324
  131OSM    H7G14137   3.500   3.586   7.279  1.0384  0.8046 -0.2706
  131OSM    C8F14138   3.349   3.691   7.392 -0.2374  0.1470  0.5116
  131OSM    H8F14139   3.270   3.651   7.325  1.5423  0.3069 -1.8362
  131OSM    H8G14140   3.338   3.800   7.409 -0.6888 -0.0441  1.4878
  131OSM    C9F14141   3.375   3.605   7.513 -0.0320  0.5651 -0.1005
  131OSM    H9F14142   3.395   3.498   7.497  2.0180  0.7578  0.7677
  131OSM   C10F14143   3.387   3.642   7.645 -0.3387 -0.0505  0.1329
  131OSM   H10F14144   3.411   3.565   7.721 -0.0509 -0.2409 -0.1493
  131OSM   C11F14145   3.359   3.780   7.691  0.2812 -0.6815  0.5056
  131OSM   H11F14146   3.261   3.807   7.646  1.7334  0.8863 -1.9872
  131OSM   H11G14147   3.435   3.857   7.667  1.1694 -0.7964  2.7022
  131OSM   C12F14148   3.330   3.787   7.844 -0.3299  0.4197  0.4509
  131OSM   H12F14149   3.271   3.696   7.867 -0.6844 -0.0530 -1.9929
  131OSM   H12G14150   3.259   3.871   7.861 -2.1053 -0.3624 -2.3421
  131OSM   C13F14151   3.459   3.814   7.925 -0.0185  0.4346 -0.6329
  131OSM   H13F14152   3.499   3.913   7.896 -3.2349  2.4879  1.2076
  131OSM   H13G14153   3.532   3.731   7.917 -3.2932 -2.9962  1.3877
  131OSM   C14F14154   3.420   3.812   8.076  0.0454  0.0262 -0.4361
  131OSM   H14F14155   3.518   3.838   8.121 -0.8894  2.6685  0.2040
  131OSM   H14G14156   3.401   3.704   8.094  1.8373 -0.3738 -0.7634
  131OSM   C15F14157   3.300   3.893   8.137  0.1552  0.5388 -0.4076
  131OSM   H15F14158   3.215   3.888   8.066 -0.0844  1.0631 -0.1709
  131OSM   H15G14159   3.332   4.000   8.127  2.2021 -0.1320 -1.7436
  131OSM   C16F14160   3.263   3.856   8.275 -0.0159 -0.4647 -0.5488
  131OSM   H16F14161   3.195   3.934   8.315  1.4490  1.2651 -1.2947
  131OSM   H16G14162   3.354   3.833   8.334  0.0720  0.2119 -0.4110
  131OSM   C17F14163   3.169   3.734   8.284  0.2390  0.4669  0.2170
  131OSM   H17F14164   3.215   3.643   8.240 -1.5738 -0.1047 -0.5791
  131OSM   H17G14165   3.075   3.757   8.229  0.7364  1.9667 -0.0676
  131OSM   C18F14166   3.141   3.702   8.429  0.1959 -0.1828  1.0805
  131OSM   H18F14167   3.059   3.628   8.441  0.3500 -0.2953  1.4585
  131OSM   H18G14168   3.124   3.793   8.491 -0.4452  1.5587 -1.5047
  131OSM   H18H14169   3.233   3.655   8.470  1.3277  1.7204  0.8406
  132OSM      N14170   6.735   5.413   6.176 -0.0864 -0.4458  0.3465
  132OSM    C1514171   6.664   5.378   6.052  0.3781  0.1330  0.0490
  132OSM   H15A14172   6.563   5.415   6.056 -0.0897 -0.9190 -1.2342
  132OSM   H15B14173   6.657   5.270   6.043 -3.5690 -0.0316  2.5108
  132OSM   H15C14174   6.710   5.422   5.966 -0.0116  1.0643  0.3086
  132OSM    C1414175   6.876   5.380   6.151 -0.1502 -0.0368 -0.6225
  132OSM   H14A14176   6.948   5.422   6.220  1.2070 -1.8182 -0.8735
  132OSM   H14B14177   6.918   5.412   6.057 -0.2851 -0.2497 -0.7574
  132OSM   H14C14178   6.889   5.273   6.157  1.4505  0.1801  0.2875
  132OSM    C1314179   6.731   5.565   6.200 -0.1880 -0.1267  0.4537
  132OSM   H13A14180   6.630   5.601   6.194  0.3933  1.3411 -1.2200
  132OSM   H13B14181   6.788   5.614   6.122  0.7537  0.7172  1.6412
  132OSM   H13C14182   6.785   5.594   6.289  2.3475  4.3394 -2.1868
  132OSM    C1214183   6.677   5.350   6.309  0.1050  0.4388 -0.0680
  132OSM   H12A14184   6.585   5.400   6.338 -0.4767 -0.7414  0.1727
  132OSM   H12B14185   6.749   5.374   6.386 -1.1953 -1.3310  1.8318
  132OSM    C1114186   6.643   5.200   6.317  0.0449 -0.1763  0.2411
  132OSM   H11A14187   6.620   5.190   6.425  1.8615  0.2356  0.7054
  132OSM   H11B14188   6.739   5.148   6.292  0.5020  0.7966 -0.0780
  132OSM      P14189   6.389   5.184   6.244 -0.4141  0.3773  0.1975
  132OSM    O1314190   6.341   5.262   6.129  0.2308  0.6309  0.1728
  132OSM    O1414191   6.314   5.058   6.276 -0.0472 -0.1510 -0.5124
  132OSM    O1114192   6.369   5.286   6.364 -0.2435  0.3569 -0.3652
  132OSM    O1214193   6.539   5.159   6.227 -0.3623  0.0972 -0.0480
  132OSM    C1S14194   6.306   5.246   6.482 -0.3401 -0.6074  0.3727
  132OSM    H1S14195   6.360   5.166   6.538  0.7657 -1.5498 -1.9197
  132OSM    H1T14196   6.200   5.214   6.469 -1.2887  2.0956  0.7926
  132OSM     NF14197   6.243   5.331   6.708  0.2390 -0.2464  0.1316
  132OSM    HNF14198   6.151   5.361   6.728 -0.4041 -1.3491 -1.0174
  132OSM    C2S14199   6.298   5.377   6.579 -0.2649  0.3400  0.4589
  132OSM    H2S14200   6.404   5.407   6.591  0.1763 -0.8311 -0.2801
  132OSM    C3S14201   6.219   5.496   6.515 -0.2710 -0.1531  0.2499
  132OSM    H3S14202   6.110   5.475   6.516 -0.4990  0.9412 -0.3112
  132OSM     O314203   6.256   5.536   6.385 -0.3618  0.1508 -0.0620
  132OSM    HO314204   6.292   5.455   6.347  0.8319  0.1456  1.0061
  132OSM    C4S14205   6.255   5.610   6.598  0.5230  0.3867 -0.8605
  132OSM    H4S14206   6.357   5.645   6.576  2.8714 -2.9199  3.2227
  132OSM    C5S14207   6.179   5.666   6.703 -0.1565  0.4025 -0.3298
  132OSM    H5S14208   6.078   5.629   6.726 -0.2270  0.8373  0.0909
  132OSM    C6S14209   6.236   5.767   6.799  0.2505 -0.1400  0.8920
  132OSM    H6S14210   6.161   5.829   6.853 -0.8536 -0.7425  0.1050
  132OSM    H6T14211   6.286   5.836   6.728 -2.0239 -1.2437 -2.0269
  132OSM    C7S14212   6.325   5.717   6.902 -0.2757 -0.2045  0.3634
  132OSM    H7S14213   6.420   5.672   6.864  0.1968  0.4993  0.6879
  132OSM    H7T14214   6.271   5.650   6.972 -2.0594  0.8589  0.0742
  132OSM    C8S14215   6.386   5.825   6.989 -0.9962 -0.5235 -0.0962
  132OSM    H8S14216   6.355   5.926   6.953 -1.6452 -0.6941 -0.0262
  132OSM    H8T14217   6.497   5.824   6.979 -0.8066 -0.3020  1.6263
  132OSM    C9S14218   6.359   5.805   7.144 -0.7435 -0.3824 -0.7395
  132OSM    H9S14219   6.389   5.701   7.171  0.6955  0.4467  1.1019
  132OSM    H9T14220   6.252   5.820   7.167 -0.0835  1.7945  1.3459
  132OSM   C10S14221   6.443   5.908   7.227 -0.0660  0.2188 -0.0138
  132OSM   H10S14222   6.395   6.008   7.220  0.0084  0.3271  0.8717
  132OSM   H10T14223   6.546   5.920   7.187  0.3856 -2.2744  0.2205
  132OSM   C11S14224   6.470   5.851   7.370  0.6885 -0.0949  0.4057
  132OSM   H11S14225   6.526   5.754   7.367  1.7485  0.5256 -0.5861
  132OSM   H11T14226   6.371   5.821   7.410 -0.1442  2.4738  0.3886
  132OSM   C12S14227   6.545   5.946   7.462  0.1274 -0.0547  0.0348
  132OSM   H12S14228   6.494   6.045   7.458 -3.3013 -1.7127 -2.1958
  132OSM   H12T14229   6.650   5.962   7.429  0.0505 -1.3764 -0.9216
  132OSM   C13S14230   6.549   5.905   7.609  0.2478  0.4357  0.9897
  132OSM   H13S14231   6.598   5.805   7.610 -0.1699  0.1184 -1.8350
  132OSM   H13T14232   6.443   5.909   7.642  0.1279  0.2538  0.6448
  132OSM   C14S14233   6.636   5.990   7.701 -0.3462  0.3219 -0.2979
  132OSM   H14S14234   6.618   6.094   7.666 -2.4128 -0.1243 -0.6680
  132OSM   H14T14235   6.742   5.959   7.688  0.4571  2.9398 -0.6755
  132OSM   C15S14236   6.595   5.975   7.846  0.2355 -0.5168  0.3462
  132OSM   H15S14237   6.632   5.878   7.885  1.6317 -0.5500 -0.9730
  132OSM   H15T14238   6.484   5.975   7.851  0.2134 -0.1648 -0.0528
  132OSM   C16S14239   6.643   6.090   7.934  0.3501  0.4574 -0.5927
  132OSM   H16S14240   6.639   6.188   7.882  1.7070  0.5140 -0.6252
  132OSM   H16T14241   6.752   6.076   7.949 -0.0075 -0.7697  1.2775
  132OSM   C17S14242   6.579   6.102   8.078 -0.1711 -0.4547  0.4618
  132OSM   H17S14243   6.472   6.072   8.068  0.0905 -1.4291  0.5049
  132OSM   H17T14244   6.584   6.204   8.121  2.5144 -0.5991  0.6684
  132OSM   C18S14245   6.630   5.995   8.180  0.5113 -0.1368  0.4647
  132OSM   H18S14246   6.738   5.976   8.163  0.7221  3.2109 -3.4672
  132OSM   H18T14247   6.590   5.894   8.157 -0.0884  0.4075 -0.9931
  132OSM   H18U14248   6.610   6.016   8.288  1.5002  2.5039  0.2065
  132OSM    C1F14249   6.304   5.252   6.796 -0.0300  0.6369 -0.3339
  132OSM     OF14250   6.420   5.215   6.783  0.2890  0.2502  0.4509
  132OSM    C2F14251   6.220   5.210   6.913  0.8807 -0.4678 -0.1390
  132OSM    H2F14252   6.198   5.101   6.909 -0.1952 -0.4163  2.5795
  132OSM    H2G14253   6.117   5.249   6.905 -0.4854 -3.6584  0.3112
  132OSM    C3F14254   6.279   5.252   7.047  0.2673  0.0384  0.1099
  132OSM    H3F14255   6.264   5.361   7.061 -1.2219 -0.4674  3.2262
  132OSM    H3G14256   6.387   5.227   7.042  0.3190  0.2207  0.3209
  132OSM    C4F14257   6.221   5.177   7.169 -0.6426 -0.4824  0.2130
  132OSM    H4F14258   6.185   5.079   7.130  0.3046 -0.3895 -0.9717
  132OSM    H4G14259   6.126   5.227   7.199 -1.9370 -1.8150 -1.4533
  132OSM    C5F14260   6.324   5.159   7.285  0.2591  0.3901  0.6661
  132OSM    H5F14261   6.425   5.128   7.248 -0.6869 -0.8879 -0.9769
  132OSM    H5G14262   6.277   5.081   7.347  1.6905 -1.0460  0.0326
  132OSM    C6F14263   6.325   5.293   7.363  0.3572 -0.4065 -0.2089
  132OSM    H6F14264   6.218   5.316   7.384 -0.4886 -2.9144 -1.3840
  132OSM    H6G14265   6.375   5.378   7.311  0.0401  0.0677  0.2611
  132OSM    C7F14266   6.399   5.272   7.493 -0.1079  0.2794  0.0537
  132OSM    H7F14267   6.497   5.232   7.461  1.3407  1.5800  2.5265
  132OSM    H7G14268   6.347   5.192   7.550 -0.0547 -0.2012 -0.5590
  132OSM    C8F14269   6.423   5.398   7.573  0.0531 -0.4552  0.1972
  132OSM    H8F14270   6.329   5.423   7.627 -1.3993 -2.1133 -1.4113
  132OSM    H8G14271   6.443   5.479   7.501 -0.3953  0.3925  1.0032
  132OSM    C9F14272   6.529   5.370   7.673 -0.2622  0.1331 -0.6376
  132OSM    H9F14273   6.626   5.379   7.623  0.2538  1.6439  0.5466
  132OSM   C10F14274   6.512   5.346   7.802 -0.0977 -0.7242  0.1868
  132OSM   H10F14275   6.598   5.320   7.866  0.5338 -0.1041 -0.4063
  132OSM   C11F14276   6.382   5.335   7.876 -0.2455  0.1686 -0.0897
  132OSM   H11F14277   6.377   5.236   7.926 -1.3650  1.0583  1.6391
  132OSM   H11G14278   6.292   5.320   7.812 -0.7244 -2.6907  1.0922
  132OSM   C12F14279   6.348   5.430   7.996 -0.0572  1.0497  0.9705
  132OSM   H12F14280   6.397   5.401   8.091 -1.1363  1.2339  1.6022
  132OSM   H12G14281   6.239   5.411   8.010 -0.1464  0.6295 -0.1165
  132OSM   C13F14282   6.358   5.578   7.972  0.1342  0.5454  0.1149
  132OSM   H13F14283   6.333   5.596   7.865 -0.7219  2.4387  0.5887
  132OSM   H13G14284   6.465   5.591   7.997  0.1175 -0.9827  1.1187
  132OSM   C14F14285   6.266   5.656   8.063 -0.6319  0.5166  0.0191
  132OSM   H14F14286   6.318   5.655   8.161  1.1290 -1.7092 -0.8371
  132OSM   H14G14287   6.165   5.614   8.082 -0.4744  0.0179 -0.2352
  132OSM   C15F14288   6.248   5.796   8.008 -0.0077  0.3959  0.7314
  132OSM   H15F14289   6.215   5.795   7.902 -1.1148 -0.0318  1.0707
  132OSM   H15G14290   6.354   5.831   8.012  0.5002 -0.7621 -1.3581
  132OSM   C16F14291   6.158   5.891   8.088 -0.0104 -0.4845 -0.3687
  132OSM   H16F14292   6.167   5.994   8.046  0.5861 -0.8482 -1.1489
  132OSM   H16G14293   6.190   5.890   8.194 -2.4750 -0.3156  0.4541
  132OSM   C17F14294   6.014   5.841   8.092  0.1199 -0.1813  0.4259
  132OSM   H17F14295   6.009   5.742   8.142  0.4581  0.6010  2.0761
  132OSM   H17G14296   5.989   5.822   7.985 -1.8116  0.7952  0.6693
  132OSM   C18F14297   5.916   5.939   8.164  0.2900  0.3830 -0.5681
  132OSM   H18F14298   5.972   5.988   8.246  0.1455 -1.7669  0.8875
  132OSM   H18G14299   5.827   5.890   8.209  1.9265 -1.7373  0.4766
  132OSM   H18H14300   5.879   6.016   8.092 -0.3648 -1.5205 -2.3458
  133SAPE     N14301   2.928   5.051  10.905 -0.6307 -0.5554  0.1957
  133SAPE   HN114302   2.958   5.111  10.826 -0.5200 -0.7475  0.0931
  133SAPE   HN214303   2.866   4.973  10.876 -1.2526 -0.5590  1.4341
  133SAPE   HN314304   2.863   5.104  10.967 -1.4297 -2.7785  1.3839
  133SAPE   C1214305   3.049   5.020  10.987  0.1471 -0.8709  0.0663
  133SAPE  H12A14306   3.027   4.942  11.063 -0.9477  1.2843  2.1012
  133SAPE  H12B14307   3.084   5.107  11.046  1.9814 -1.5927  0.0955
  133SAPE   C1114308   3.160   4.963  10.894 -0.3032 -0.1352  0.0446
  133SAPE  H11A14309   3.140   4.867  10.843  0.4824 -0.6276  0.6547
  133SAPE  H11B14310   3.240   4.961  10.971 -1.3925  2.1386  1.3887
  133SAPE     P14311   3.149   5.075  10.643 -0.1965 -0.1537 -0.1558
  133SAPE   O1314312   3.008   5.122  10.643 -0.7490 -0.3086  0.0745
  133SAPE   O1414313   3.252   5.160  10.575  0.5413 -0.0604  0.3589
  133SAPE   O1214314   3.198   5.063  10.800  0.0952 -0.2481  0.5192
  133SAPE   O1114315   3.171   4.922  10.591 -0.1026 -0.5423  0.5540
  133SAPE    C114316   3.065   4.861  10.511 -0.6527 -0.0851 -0.0970
  133SAPE    HA14317   3.095   4.754  10.504 -0.2204 -0.0788  1.3294
  133SAPE    HB14318   2.964   4.871  10.557 -0.7437  1.6760 -0.6207
  133SAPE    C214319   3.074   4.919  10.360  0.5369 -0.2135 -0.2224
  133SAPE    HS14320   3.063   5.029  10.369  1.1936 -0.2180  0.7898
  133SAPE   O2114321   2.977   4.869  10.257 -0.6710 -0.5482 -0.1387
  133SAPE   C2114322   2.850   4.906  10.278  0.4622  0.2629  0.1539
  133SAPE   O2214323   2.808   5.001  10.345 -0.8900  0.1465 -0.2433
  133SAPE   C2214324   2.765   4.834  10.179  0.6337  0.3547 -0.2742
  133SAPE   H2R14325   2.772   4.724  10.196 -1.7765  0.5069  2.8253
  133SAPE   H2S14326   2.658   4.847  10.207  0.5984 -1.2587  0.4608
  133SAPE    C314327   3.224   4.901  10.322  0.5854  0.2087  0.4165
  133SAPE    HX14328   3.241   4.793  10.302 -1.7904  0.1114 -1.4519
  133SAPE    HY14329   3.292   4.933  10.404  2.4253  0.0297 -0.9834
  133SAPE   O3114330   3.260   4.983  10.207 -0.3415 -0.9158 -0.1661
  133SAPE   C3114331   3.362   4.936  10.137 -0.4111  0.3985  0.9655
  133SAPE   O3214332   3.431   4.837  10.169  0.4932  0.4013 -0.4414
  133SAPE   C3214333   3.362   5.014  10.004  0.3354 -0.0801  0.1648
  133SAPE   H2X14334   3.414   5.111  10.022  1.2859 -0.5913  0.2875
  133SAPE   H2Y14335   3.257   5.033   9.973  0.8910  1.9016 -0.6459
  133SAPE   C2314336   2.782   4.883  10.034  0.4762  0.0162  0.4937
  133SAPE   H3R14337   2.747   4.805   9.963 -0.3204  0.6958  0.1274
  133SAPE   H3S14338   2.888   4.911  10.016 -0.0660  1.6581 -0.3139
  133SAPE   C2414339   2.705   5.009  10.005  0.8905 -0.5793 -0.0579
  133SAPE   H4R14340   2.722   5.093  10.077  2.0638 -3.0762  2.7958
  133SAPE   H4S14341   2.597   4.985  10.020  0.5808  0.3416 -0.7149
  133SAPE   C2514342   2.748   5.061   9.866  0.2398  0.3591  0.9463
  133SAPE   H5R14343   2.845   5.111   9.861 -0.4960  2.1050  2.4726
  133SAPE   C2614344   2.687   5.030   9.750 -0.6228  0.1228  0.0317
  133SAPE   H6R14345   2.726   5.084   9.662 -1.0402 -0.4630 -0.5243
  133SAPE   C2714346   2.565   4.947   9.732 -0.2485 -0.6438  0.6944
  133SAPE   H7R14347   2.469   5.000   9.747  0.4702  1.0449 -0.4645
  133SAPE   H7S14348   2.557   4.861   9.802 -3.3633  0.0231  1.3219
  133SAPE   C2814349   2.555   4.883   9.590  0.1791 -0.2915 -0.4903
  133SAPE   H8R14350   2.589   4.779   9.589 -0.0716 -0.3737 -0.5393
  133SAPE   C2914351   2.492   4.931   9.482 -0.5704  0.2379 -0.4445
  133SAPE   H9R14352   2.479   4.871   9.390  0.7315  2.0199 -1.8615
  133SAPE  C21014353   2.434   5.073   9.480  0.5260  0.1518  0.0115
  133SAPE  H10R14354   2.500   5.144   9.426  0.2284  0.1080 -0.4194
  133SAPE  H10S14355   2.418   5.111   9.583 -0.1144 -3.5212  1.4098
  133SAPE  C21114356   2.300   5.077   9.407  0.6929 -0.0733 -0.7624
  133SAPE  H11R14357   2.220   5.036   9.471  1.4875 -0.0260  0.2809
  133SAPE  C21214358   2.283   5.126   9.281  0.7561  0.4959 -0.3462
  133SAPE  H12R14359   2.183   5.131   9.235  0.4019  1.2568  0.4669
  133SAPE  C21314360   2.382   5.190   9.186 -0.7978  0.3359 -0.2272
  133SAPE  H13R14361   2.406   5.113   9.111  0.8376 -1.1793  1.7345
  133SAPE  H13S14362   2.478   5.206   9.239 -0.9630  0.4730  0.0368
  133SAPE  C21414363   2.330   5.319   9.136 -0.3614  0.3864  0.4379
  133SAPE  H14R14364   2.350   5.407   9.198  0.2530 -0.5479  1.6152
  133SAPE  C21514365   2.261   5.340   9.022 -0.0680 -0.2565 -0.4364
  133SAPE  H15R14366   2.238   5.444   8.995  0.0960  0.6637  2.6447
  133SAPE  C21614367   2.216   5.236   8.923 -0.5976 -0.2436 -0.0734
  133SAPE  H16R14368   2.118   5.275   8.887 -0.5974 -0.4801 -0.3252
  133SAPE  H16S14369   2.203   5.138   8.973 -0.8752 -0.8242 -1.2568
  133SAPE  C21714370   2.317   5.229   8.802  0.5195 -0.3122 -0.5931
  133SAPE  H17R14371   2.421   5.199   8.829  0.4005 -1.2462 -1.1202
  133SAPE  H17S14372   2.328   5.328   8.751  0.3922 -0.0948 -0.1987
  133SAPE  C21814373   2.265   5.126   8.699 -0.1430  0.2886 -0.1597
  133SAPE  H18R14374   2.155   5.131   8.711  0.0365  2.3310  0.9698
  133SAPE  H18S14375   2.298   5.034   8.752 -0.4839 -0.5490 -1.3549
  133SAPE  C21914376   2.330   5.138   8.559  0.0302  0.3698  0.1217
  133SAPE  H19R14377   2.438   5.150   8.579 -0.1969  0.4548  1.4078
  133SAPE  H19S14378   2.284   5.227   8.511 -0.8556  0.0807  0.4099
  133SAPE  C22014379   2.312   5.024   8.470 -0.6200  0.1790 -0.0972
  133SAPE  H20R14380   2.207   5.007   8.439 -1.1203  2.5385  0.1126
  133SAPE  H20S14381   2.347   4.929   8.516 -1.1943 -0.0046 -0.0301
  133SAPE  H20T14382   2.378   5.049   8.385  0.3151  1.4099  0.9406
  133SAPE   C3314383   3.435   4.957   9.883 -0.2623  0.2091 -0.1850
  133SAPE   H3X14384   3.379   4.863   9.867 -1.0376  0.7744 -0.8715
  133SAPE   H3Y14385   3.539   4.933   9.915 -0.2660  1.2646  0.6886
  133SAPE   C3414386   3.423   5.047   9.760  0.3428 -0.2592 -0.2171
  133SAPE   H4X14387   3.484   5.135   9.791  0.5450 -0.6216  0.4431
  133SAPE   H4Y14388   3.319   5.078   9.736  0.9869  2.2433 -0.0234
  133SAPE   C3514389   3.484   5.001   9.627  0.4276  0.3689  0.3204
  133SAPE   H5X14390   3.425   4.919   9.582 -0.8672  1.6593 -0.4299
  133SAPE   H5Y14391   3.583   4.959   9.654 -0.1042 -2.4573 -1.6961
  133SAPE   C3614392   3.502   5.116   9.529 -0.3261  0.0318 -0.8487
  133SAPE   H6X14393   3.575   5.191   9.566 -1.6682  1.0484 -0.1415
  133SAPE   H6Y14394   3.405   5.163   9.502 -0.2902 -0.1026 -1.2129
  133SAPE   C3714395   3.554   5.065   9.396  0.1106  0.2619 -0.3502
  133SAPE   H7X14396   3.475   4.996   9.359  1.0752 -0.2971 -1.4245
  133SAPE   H7Y14397   3.646   5.011   9.424  0.1871  0.5157 -0.1128
  133SAPE   C3814398   3.587   5.188   9.297 -0.2480 -0.1920 -0.0820
  133SAPE   H8X14399   3.647   5.256   9.360  0.6085 -1.4938  0.5615
  133SAPE   H8Y14400   3.487   5.234   9.284 -1.6454 -1.8333  3.4253
  133SAPE   C3914401   3.663   5.150   9.169 -0.3459 -0.1244 -0.3225
  133SAPE   H9X14402   3.614   5.063   9.122  0.0070  0.6743 -2.2434
  133SAPE   H9Y14403   3.768   5.126   9.199 -1.0494 -0.7886  1.7986
  133SAPE  C31014404   3.681   5.257   9.050 -0.0628 -0.1775 -0.6283
  133SAPE  H10X14405   3.581   5.283   9.010 -0.7761 -2.5011 -0.4726
  133SAPE  H10Y14406   3.734   5.211   8.965 -0.6295  0.0926 -1.1327
  133SAPE  C31114407   3.746   5.393   9.095 -0.3085 -0.0087 -0.6445
  133SAPE  H11X14408   3.839   5.370   9.151  0.5595 -2.1094 -2.7490
  133SAPE  H11Y14409   3.679   5.442   9.168  0.8135  1.4813 -0.5622
  133SAPE  C31214410   3.772   5.491   8.989  0.6925  0.2370  0.2771
  133SAPE  H12X14411   3.681   5.525   8.935 -0.8530  1.8277  3.6246
  133SAPE  H12Y14412   3.835   5.438   8.914 -1.1599 -1.3912 -0.2164
  133SAPE  C31314413   3.849   5.608   9.037 -0.9609 -0.5566  0.6578
  133SAPE  H13X14414   3.938   5.576   9.095 -0.1542 -1.8124 -1.1797
  133SAPE  H13Y14415   3.788   5.681   9.094 -1.6498  0.2242 -0.9890
  133SAPE  C31414416   3.913   5.692   8.921 -0.1212  0.8059  0.3864
  133SAPE  H14X14417   3.824   5.737   8.871  0.0944 -0.7518 -1.4933
  133SAPE  H14Y14418   3.962   5.619   8.853 -2.5979 -1.0599  0.4766
  133SAPE  C31514419   4.014   5.797   8.958  0.3221 -0.1489  0.1994
  133SAPE  H15X14420   4.112   5.751   8.985  1.0140  1.7493  1.1711
  133SAPE  H15Y14421   3.968   5.851   9.045  1.7419 -0.0724  0.9393
  133SAPE  C31614422   4.036   5.911   8.852  0.4239 -0.8971  0.3065
  133SAPE  H16X14423   4.136   5.953   8.878  0.4469 -1.4593  1.1779
  133SAPE  H16Y14424   3.959   5.991   8.859  1.3605  0.0451  0.0319
  133SAPE  C31714425   4.040   5.872   8.702 -0.6235 -0.1431  0.7664
  133SAPE  H17X14426   3.936   5.843   8.677  0.2268 -1.5095 -1.4693
  133SAPE  H17Y14427   4.114   5.790   8.687  1.0357  1.3908  0.2523
  133SAPE  C31814428   4.081   5.994   8.612 -0.6954  0.1471  0.3443
  133SAPE  H18X14429   4.080   5.965   8.505 -1.9737  0.4561  0.2618
  133SAPE  H18Y14430   4.179   6.038   8.640 -1.4509  1.9543  0.2665
  133SAPE  H18Z14431   4.007   6.076   8.628 -1.1370 -0.4672  1.6823
  134SAPE     N14432   4.771   0.450  11.255  0.0277 -0.3295  0.5094
  134SAPE   HN114433   4.713   0.470  11.338 -2.1407  1.4894 -1.3068
  134SAPE   HN214434   4.848   0.388  11.287 -0.3148  0.1081  2.2612
  134SAPE   HN314435   4.809   0.537  11.213  2.6779 -0.4438  2.4795
  134SAPE   C1214436   4.674   0.386  11.162 -0.1880 -0.6797  0.2375
  134SAPE  H12A14437   4.580   0.443  11.171  0.1615  0.0356 -0.4765
  134SAPE  H12B14438   4.650   0.280  11.185 -1.5751 -0.2962  0.6564
  134SAPE   C1114439   4.730   0.373  11.022  0.7720  0.2861  1.0422
  134SAPE  H11A14440   4.722   0.471  10.971  1.4661  0.4788  1.2972
  134SAPE  H11B14441   4.657   0.317  10.959  1.1320  1.8628 -0.8431
  134SAPE     P14442   4.970   0.370  10.899 -0.2446  0.3181 -0.1118
  134SAPE   O1314443   5.017   0.501  10.944  0.7030  0.2588  0.2208
  134SAPE   O1414444   5.071   0.263  10.906 -0.3907  0.2891  0.1192
  134SAPE   O1214445   4.864   0.324  11.000 -0.4492  0.0221  0.3818
  134SAPE   O1114446   4.910   0.375  10.756 -0.5227 -0.1023 -0.1151
  134SAPE    C114447   4.839   0.490  10.705  0.6753  0.5708 -0.1263
  134SAPE    HA14448   4.730   0.470  10.709  0.9595 -1.0230 -0.0459
  134SAPE    HB14449   4.848   0.583  10.765  2.0369  0.8687 -0.7650
  134SAPE    C214450   4.879   0.527  10.565  0.7290 -0.0025  0.1917
  134SAPE    HS14451   4.818   0.612  10.526  0.8440 -0.4979 -1.1084
  134SAPE   O2114452   4.853   0.418  10.475 -0.0220 -0.2539 -0.1996
  134SAPE   C2114453   4.730   0.381  10.449 -0.2005  0.6660  0.2699
  134SAPE   O2214454   4.633   0.437  10.487  0.2240 -0.6924 -0.1223
  134SAPE   C2214455   4.733   0.261  10.354 -0.2979  0.5362 -0.1400
  134SAPE   H2R14456   4.789   0.181  10.408  1.7136  2.2417  0.4082
  134SAPE   H2S14457   4.628   0.228  10.337 -0.8659  2.5198 -0.7077
  134SAPE    C314458   5.028   0.556  10.551  0.8873 -0.2482  0.3505
  134SAPE    HX14459   5.096   0.486  10.604  0.4866 -0.2376  0.8779
  134SAPE    HY14460   5.038   0.642  10.621 -0.8378 -2.0984  3.0443
  134SAPE   O3114461   5.061   0.585  10.411  0.6431  0.0094 -0.6276
  134SAPE   C3114462   5.151   0.504  10.358  0.1504  0.5033 -0.3284
  134SAPE   O3214463   5.209   0.411  10.414 -0.5765  1.0297 -0.4590
  134SAPE   C3214464   5.195   0.566  10.228 -1.0456  0.4316 -0.4425
  134SAPE   H2X14465   5.301   0.535  10.212 -1.0734 -1.1512  1.9817
  134SAPE   H2Y14466   5.193   0.677  10.231  0.9179  0.5567 -1.6508
  134SAPE   C2314467   4.807   0.297  10.216  0.5451 -0.1576  0.2760
  134SAPE   H3R14468   4.815   0.212  10.145  2.8655  1.3556 -1.3981
  134SAPE   H3S14469   4.914   0.323  10.228  0.4769 -0.2237  1.0959
  134SAPE   C2414470   4.723   0.395  10.135  0.5100 -0.1114  0.1330
  134SAPE   H4R14471   4.792   0.451  10.067 -0.2155  1.6240  0.7507
  134SAPE   H4S14472   4.696   0.479  10.203  1.7696 -0.8518  1.6062
  134SAPE   C2514473   4.600   0.340  10.073  0.2168 -1.1150  0.7559
  134SAPE   H5R14474   4.523   0.303  10.141 -1.7523 -0.9975 -1.3076
  134SAPE   C2614475   4.578   0.335   9.941  0.5622  0.7383  0.2837
  134SAPE   H6R14476   4.480   0.298   9.908  0.2728  0.3840  1.4716
  134SAPE   C2714477   4.668   0.397   9.837 -0.5978  0.2696 -0.1946
  134SAPE   H7R14478   4.722   0.487   9.871 -0.5796  1.2793 -2.7020
  134SAPE   H7S14479   4.612   0.428   9.746  0.5216  0.9320 -0.6700
  134SAPE   C2814480   4.760   0.283   9.802 -0.2948 -0.5996  0.7315
  134SAPE   H8R14481   4.821   0.255   9.888  0.8952 -0.6292 -0.1016
  134SAPE   C2914482   4.766   0.220   9.677  0.0646 -0.2227 -0.4791
  134SAPE   H9R14483   4.817   0.124   9.663 -0.4119 -0.5629  0.0860
  134SAPE  C21014484   4.677   0.251   9.560  0.3105  0.0083 -0.0806
  134SAPE  H10R14485   4.576   0.281   9.596  0.7015 -0.1058  1.1372
  134SAPE  H10S14486   4.660   0.151   9.514 -1.2611  0.7635 -1.2473
  134SAPE  C21114487   4.716   0.353   9.455 -0.6395  0.7274  0.9083
  134SAPE  H11R14488   4.790   0.428   9.487 -0.0127  1.1528 -1.3383
  134SAPE  C21214489   4.663   0.358   9.335 -0.6062  0.3470  0.6389
  134SAPE  H12R14490   4.696   0.435   9.263 -1.0455  0.4824  0.5810
  134SAPE  C21314491   4.553   0.282   9.274 -0.5192  0.2546  0.3275
  134SAPE  H13R14492   4.470   0.353   9.250 -0.6111  0.0049 -0.0919
  134SAPE  H13S14493   4.502   0.220   9.350  0.7353 -0.9915  0.1832
  134SAPE  C21414494   4.590   0.206   9.144  0.3218 -0.1227 -0.3313
  134SAPE  H14R14495   4.660   0.123   9.159 -2.1650 -1.8616  3.0737
  134SAPE  C21514496   4.524   0.221   9.027  0.5070  0.1781 -0.4689
  134SAPE  H15R14497   4.573   0.181   8.937  0.3353  1.0651 -0.9671
  134SAPE  C21614498   4.404   0.311   8.995 -0.2341 -0.3692 -0.3620
  134SAPE  H16R14499   4.339   0.330   9.084 -0.1643 -0.3817 -0.3097
  134SAPE  H16S14500   4.351   0.274   8.905  0.7214  1.1599 -1.5893
  134SAPE  C21714501   4.443   0.451   8.935  1.0627  0.7191  0.5172
  134SAPE  H17R14502   4.507   0.513   9.001  3.8252 -1.0846 -0.2834
  134SAPE  H17S14503   4.345   0.501   8.919  0.0127 -1.0504  1.1189
  134SAPE  C21814504   4.506   0.432   8.793  0.3618  0.2864  0.4768
  134SAPE  H18R14505   4.444   0.369   8.725  1.0267 -0.0588  0.1750
  134SAPE  H18S14506   4.607   0.386   8.807  0.6920  0.3247 -1.4757
  134SAPE  C21914507   4.530   0.559   8.713 -0.1129 -0.2675 -0.7034
  134SAPE  H19R14508   4.609   0.615   8.767 -1.0366 -0.2499  0.6786
  134SAPE  H19S14509   4.448   0.632   8.693 -0.5645 -0.9230 -1.2966
  134SAPE  C22014510   4.578   0.544   8.562  0.3004  0.3866  0.0623
  134SAPE  H20R14511   4.500   0.504   8.493 -0.1121  0.3653  0.5375
  134SAPE  H20S14512   4.660   0.468   8.558 -1.4615 -1.5992 -0.2843
  134SAPE  H20T14513   4.625   0.634   8.516  0.6100  1.3929  2.2263
  134SAPE   C3314514   5.103   0.516  10.115  0.6829  0.0189 -0.2073
  134SAPE   H3X14515   4.995   0.535  10.134  0.5087  0.6767 -1.7135
  134SAPE   H3Y14516   5.115   0.407  10.099  0.6473  0.1601 -1.2763
  134SAPE   C3414517   5.136   0.586   9.988  0.3219  0.4823  0.1209
  134SAPE   H4X14518   5.236   0.558   9.951  0.2485  0.4799 -0.0744
  134SAPE   H4Y14519   5.133   0.697   9.998 -1.9264  0.4496  0.2467
  134SAPE   C3514520   5.026   0.555   9.882  0.1897 -0.3218 -0.6568
  134SAPE   H5X14521   4.944   0.627   9.904 -0.9891 -1.7843 -0.0774
  134SAPE   H5Y14522   4.980   0.454   9.887  0.1800 -0.2883  0.1382
  134SAPE   C3614523   5.084   0.597   9.746  0.3450  0.0722 -0.2355
  134SAPE   H6X14524   5.169   0.532   9.716 -0.7835 -0.0522 -3.6550
  134SAPE   H6Y14525   5.111   0.703   9.766 -2.1578  0.1779  3.4673
  134SAPE   C3714526   4.984   0.593   9.633  0.0840 -0.1903  0.1009
  134SAPE   H7X14527   4.893   0.654   9.653 -1.0161 -0.3375 -3.6998
  134SAPE   H7Y14528   4.939   0.493   9.614 -0.4091 -0.8357  3.7842
  134SAPE   C3814529   5.038   0.657   9.499 -0.1963 -0.2131 -0.0719
  134SAPE   H8X14530   5.122   0.597   9.458  1.8090  2.0132  0.5358
  134SAPE   H8Y14531   5.066   0.763   9.514  0.3677  0.0315 -2.5197
  134SAPE   C3914532   4.929   0.667   9.386 -0.4325  1.0509  0.2238
  134SAPE   H9X14533   4.838   0.707   9.435 -0.0185  2.7630 -0.3330
  134SAPE   H9Y14534   4.905   0.568   9.342  2.7828 -0.2616  1.1069
  134SAPE  C31014535   4.966   0.760   9.271  0.2601  0.2322  0.1919
  134SAPE  H10X14536   5.061   0.727   9.225  0.0052 -0.2204 -0.0181
  134SAPE  H10Y14537   4.988   0.863   9.305  2.0221 -0.2627  0.6460
  134SAPE  C31114538   4.870   0.770   9.147 -0.0453 -0.8052 -0.2122
  134SAPE  H11X14539   4.899   0.856   9.084  2.5289 -0.5689  1.1684
  134SAPE  H11Y14540   4.765   0.791   9.178  0.0808 -0.6309  0.0986
  134SAPE  C31214541   4.867   0.637   9.065  0.0423 -0.6521 -0.3908
  134SAPE  H12X14542   4.813   0.557   9.120 -0.5642 -0.4115 -0.6182
  134SAPE  H12Y14543   4.971   0.601   9.054 -0.0502 -0.6251 -1.3751
  134SAPE  C31314544   4.834   0.650   8.917  0.1496  0.1095  0.4988
  134SAPE  H13X14545   4.727   0.680   8.911  0.3194  0.6874  0.3888
  134SAPE  H13Y14546   4.830   0.553   8.863 -1.6408  1.2650 -1.6276
  134SAPE  C31414547   4.911   0.758   8.839 -0.5559 -0.0796 -0.0925
  134SAPE  H14X14548   4.950   0.709   8.747 -0.0693  1.4530 -0.7466
  134SAPE  H14Y14549   5.002   0.791   8.893 -0.4474  0.1943 -0.4358
  134SAPE  C31514550   4.820   0.878   8.796 -0.0791 -0.1812 -0.0110
  134SAPE  H15X14551   4.774   0.923   8.887  0.8639 -2.1794  1.5351
  134SAPE  H15Y14552   4.731   0.842   8.739 -1.5769  2.8123  0.2138
  134SAPE  C31614553   4.882   0.999   8.719  0.6425 -0.0510 -0.0444
  134SAPE  H16X14554   4.927   1.070   8.791 -0.2024  0.1948  0.2551
  134SAPE  H16Y14555   4.805   1.056   8.662 -0.8384 -0.2523  1.6514
  134SAPE  C31714556   4.997   0.956   8.630  0.2625  0.3057  0.5203
  134SAPE  H17X14557   4.984   0.857   8.581 -0.4309  1.7918 -2.5224
  134SAPE  H17Y14558   5.085   0.949   8.697  1.0681  0.9090 -0.4377
  134SAPE  C31814559   5.033   1.059   8.519 -0.1848 -0.5819  0.2928
  134SAPE  H18X14560   5.126   1.023   8.471  0.5179  0.0744  1.1386
  134SAPE  H18Y14561   5.042   1.159   8.566 -0.6634 -0.1871 -0.4293
  134SAPE  H18Z14562   4.946   1.068   8.450  1.0998 -0.8782 -1.4508
  135SAPE     N14563   2.783   5.216  10.501 -0.6423  0.1787 -0.2747
  135SAPE   HN114564   2.843   5.216  10.586 -0.2966 -0.8559 -0.4996
  135SAPE   HN214565   2.782   5.117  10.468  2.4522 -0.4188  1.0196
  135SAPE   HN314566   2.827   5.273  10.425 -0.5256 -2.4231 -2.3046
  135SAPE   C1214567   2.640   5.251  10.531 -0.1350  0.0335 -0.5117
  135SAPE  H12A14568   2.587   5.158  10.559 -0.6381  0.2915 -0.6004
  135SAPE  H12B14569   2.592   5.283  10.436 -1.6578 -0.7266 -0.0273
  135SAPE   C1114570   2.631   5.376  10.623  0.0772 -0.3684  0.0292
  135SAPE  H11A14571   2.676   5.338  10.717  0.3303 -2.2033 -0.8077
  135SAPE  H11B14572   2.522   5.395  10.636  0.2900  1.3007 -0.3316
  135SAPE     P14573   2.730   5.620  10.642  0.1368  0.2907 -0.2241
  135SAPE   O1314574   2.617   5.713  10.630 -0.5240  0.0446  0.1267
  135SAPE   O1414575   2.780   5.576  10.774  0.7083 -0.9171 -0.0357
  135SAPE   O1214576   2.697   5.489  10.559 -0.1435 -0.1531 -0.4139
  135SAPE   O1114577   2.849   5.683  10.561 -0.0471 -0.0321  0.1459
  135SAPE    C114578   2.943   5.596  10.496 -0.5733 -0.2819  0.1231
  135SAPE    HA14579   3.047   5.628  10.519 -1.1711  1.1530  0.9791
  135SAPE    HB14580   2.946   5.492  10.535  1.4154  0.5728  2.5543
  135SAPE    C214581   2.917   5.598  10.345  0.4222  0.7455  1.1439
  135SAPE    HS14582   2.823   5.538  10.337  1.0735 -0.0535 -1.7172
  135SAPE   O2114583   3.025   5.536  10.268 -0.1788 -0.0868 -0.1312
  135SAPE   C2114584   3.010   5.410  10.250  0.0850  0.0559  0.3442
  135SAPE   O2214585   2.909   5.348  10.282  0.2207 -0.2779  0.0308
  135SAPE   C2214586   3.116   5.357  10.151  0.7997  0.2605 -0.0905
  135SAPE   H2R14587   3.187   5.443  10.143  0.0996  0.7692 -0.9444
  135SAPE   H2S14588   3.170   5.278  10.208  1.2385  1.4316  1.1961
  135SAPE    C314589   2.902   5.738  10.287  0.1136  0.0254  0.0709
  135SAPE    HX14590   2.998   5.794  10.286  0.0102  0.2074  0.2267
  135SAPE    HY14591   2.833   5.793  10.355 -1.8184 -1.9019 -0.2194
  135SAPE   O3114592   2.854   5.736  10.152 -0.1968 -0.1565 -0.1029
  135SAPE   C3114593   2.723   5.739  10.136  0.1785  0.7299  0.2836
  135SAPE   O3214594   2.639   5.747  10.225 -0.2182  0.3051  0.4233
  135SAPE   C3214595   2.679   5.740   9.986 -0.3734 -0.1998 -0.2466
  135SAPE   H2X14596   2.597   5.815   9.983 -1.1182 -1.0221 -0.9314
  135SAPE   H2Y14597   2.640   5.639   9.961 -2.7035 -0.0721  2.2986
  135SAPE   C2314598   3.065   5.312  10.012 -0.3027  0.5642  0.1243
  135SAPE   H3R14599   2.994   5.228  10.033  1.6758 -0.9676  1.0476
  135SAPE   H3S14600   3.138   5.273   9.939 -2.8533  0.1157 -2.3691
  135SAPE   C2414601   2.983   5.418   9.932 -0.4553 -0.4998 -0.4066
  135SAPE   H4R14602   2.904   5.460   9.998  0.4321 -1.5054  1.3654
  135SAPE   H4S14603   2.927   5.365   9.853  1.9422 -2.4241 -0.9339
  135SAPE   C2514604   3.078   5.528   9.887  0.4630  0.2964 -0.6611
  135SAPE   H5R14605   3.090   5.609   9.961  0.7839 -1.3535  1.1698
  135SAPE   C2614606   3.154   5.530   9.777  0.5093 -0.0551 -0.7926
  135SAPE   H6R14607   3.208   5.624   9.758 -0.6072  0.9763  0.8809
  135SAPE   C2714608   3.171   5.421   9.674  0.2074  0.8804 -1.0985
  135SAPE   H7R14609   3.184   5.324   9.725 -1.1039  1.6067  0.7346
  135SAPE   H7S14610   3.268   5.438   9.623 -0.0510 -2.1320 -2.8272
  135SAPE   C2814611   3.060   5.417   9.569  0.1962 -0.1655 -0.5522
  135SAPE   H8R14612   2.970   5.372   9.614  1.5454 -3.0639 -0.4983
  135SAPE   C2914613   3.061   5.470   9.440 -0.6178 -0.5323 -0.5363
  135SAPE   H9R14614   2.990   5.445   9.361 -0.5554 -1.4002 -0.3309
  135SAPE  C21014615   3.172   5.543   9.372 -1.1289 -0.9643  0.2214
  135SAPE  H10R14616   3.253   5.565   9.445  0.5085  1.2893 -2.0942
  135SAPE  H10S14617   3.140   5.644   9.338  0.4398 -0.4713  0.1220
  135SAPE  C21114618   3.226   5.464   9.260 -0.3209 -0.2696 -0.3431
  135SAPE  H11R14619   3.230   5.355   9.269 -0.4229 -0.2196  0.3521
  135SAPE  C21214620   3.255   5.511   9.135 -0.2756 -0.4277 -0.4144
  135SAPE  H12R14621   3.290   5.432   9.066 -0.2089 -1.4013  0.7045
  135SAPE  C21314622   3.228   5.655   9.088 -0.7016  0.2399 -0.0270
  135SAPE  H13R14623   3.301   5.667   9.005 -1.8149 -0.5746 -1.1661
  135SAPE  H13S14624   3.241   5.733   9.165 -1.3625 -0.0157  0.3455
  135SAPE  C21414625   3.092   5.668   9.030 -0.3333  0.1969  0.4827
  135SAPE  H14R14626   3.021   5.728   9.088 -0.8002  1.4882 -1.3097
  135SAPE  C21514627   3.063   5.623   8.905  0.4314 -0.6450  0.3212
  135SAPE  H15R14628   2.966   5.648   8.859  0.6502 -0.0674  0.1672
  135SAPE  C21614629   3.153   5.548   8.809 -0.1787 -0.0900  0.2991
  135SAPE  H16R14630   3.259   5.542   8.842  0.2183  2.2310 -0.3831
  135SAPE  H16S14631   3.148   5.602   8.712 -0.9908 -2.4689 -1.0697
  135SAPE  C21714632   3.106   5.402   8.790 -0.4000 -1.0368  0.1200
  135SAPE  H17R14633   3.122   5.345   8.884  1.1924 -0.5091  0.1984
  135SAPE  H17S14634   3.183   5.349   8.730 -0.1965 -1.8273  1.0491
  135SAPE  C21814635   2.968   5.394   8.721 -0.2195 -0.3645 -0.3737
  135SAPE  H18R14636   2.978   5.457   8.630  1.1796 -1.2478 -0.8511
  135SAPE  H18S14637   2.893   5.422   8.799  1.7892 -1.9461  2.2852
  135SAPE  C21914638   2.928   5.253   8.676  0.3655 -0.4547  0.4822
  135SAPE  H19R14639   2.938   5.192   8.769 -0.0416  1.1120  1.6028
  135SAPE  H19S14640   3.008   5.212   8.611 -0.6929 -1.5027 -0.2099
  135SAPE  C22014641   2.791   5.232   8.604  0.3195 -0.1136  0.1402
  135SAPE  H20R14642   2.774   5.307   8.524  2.8588  1.4459  0.9627
  135SAPE  H20S14643   2.715   5.260   8.680  1.8149  1.6473  1.0553
  135SAPE  H20T14644   2.786   5.128   8.565  2.8024 -1.3766  2.8464
  135SAPE   C3314645   2.791   5.803   9.899 -0.0786  0.4935 -0.3066
  135SAPE   H3X14646   2.875   5.731   9.892  0.1993  0.9471 -2.0855
  135SAPE   H3Y14647   2.815   5.901   9.944  1.0109 -0.7135  1.9129
  135SAPE   C3414648   2.746   5.822   9.751 -0.0864  0.9934 -0.7338
  135SAPE   H4X14649   2.655   5.883   9.730 -2.7254 -1.8379  1.5575
  135SAPE   H4Y14650   2.716   5.722   9.713  1.2030  0.2737  0.0463
  135SAPE   C3514651   2.854   5.866   9.656 -0.4045 -1.0046 -0.3746
  135SAPE   H5X14652   2.952   5.830   9.692  0.3843  0.2234 -1.1951
  135SAPE   H5Y14653   2.855   5.977   9.662 -0.0304 -0.9557 -1.2781
  135SAPE   C3614654   2.851   5.818   9.510  0.3947  0.4972  0.2225
  135SAPE   H6X14655   2.854   5.707   9.508  1.0964  0.4768  1.4149
  135SAPE   H6Y14656   2.952   5.842   9.469  1.0563  0.0951  1.5418
  135SAPE   C3714657   2.745   5.887   9.422 -1.0980  0.1106 -0.1084
  135SAPE   H7X14658   2.647   5.872   9.471 -1.4239  2.7690  0.1931
  135SAPE   H7Y14659   2.755   5.844   9.320  2.8015  0.5981 -0.1031
  135SAPE   C3814660   2.779   6.039   9.412 -0.6841  0.5182 -0.0048
  135SAPE   H8X14661   2.888   6.058   9.418 -0.9689  2.8826 -1.2815
  135SAPE   H8Y14662   2.729   6.087   9.498  0.9539  1.8788  0.2362
  135SAPE   C3914663   2.735   6.092   9.274 -0.4255 -0.6295 -0.1023
  135SAPE   H9X14664   2.639   6.060   9.229 -0.0570  1.2385 -2.3626
  135SAPE   H9Y14665   2.818   6.048   9.214 -1.6549 -2.1921 -0.7119
  135SAPE  C31014666   2.733   6.244   9.269 -0.2501 -0.0802  0.1261
  135SAPE  H10X14667   2.820   6.295   9.221 -0.7448  0.5619 -0.1164
  135SAPE  H10Y14668   2.732   6.283   9.373  0.5310 -0.9255  0.4583
  135SAPE  C31114669   2.610   6.304   9.201 -0.0998 -0.4482  0.3286
  135SAPE  H11X14670   2.596   6.244   9.109 -3.3403  1.8526 -0.8847
  135SAPE  H11Y14671   2.627   6.403   9.154  1.7858 -0.7959  0.2246
  135SAPE  C31214672   2.479   6.307   9.276  0.0419 -0.0596 -0.7148
  135SAPE  H12X14673   2.456   6.206   9.317 -0.5928 -0.1197 -1.1964
  135SAPE  H12Y14674   2.398   6.338   9.207  1.4518 -0.0107 -2.4124
  135SAPE  C31314675   2.476   6.409   9.405  0.1062  0.4043 -0.3234
  135SAPE  H13X14676   2.484   6.513   9.367 -1.8054 -0.2820 -2.9001
  135SAPE  H13Y14677   2.555   6.372   9.473 -2.1675 -1.9887  1.2523
  135SAPE  C31414678   2.346   6.401   9.488 -0.6441  0.0590  0.1097
  135SAPE  H14X14679   2.309   6.296   9.486 -1.7662  0.4078 -3.0567
  135SAPE  H14Y14680   2.276   6.453   9.419  0.1375  1.7504  0.5324
  135SAPE  C31514681   2.352   6.465   9.628  1.2602  0.4793  0.1490
  135SAPE  H15X14682   2.436   6.424   9.689  0.2612  1.0282  1.9904
  135SAPE  H15Y14683   2.267   6.423   9.686  1.4674 -0.3532 -0.1385
  135SAPE  C31614684   2.358   6.619   9.618 -0.5241  0.0389  0.2149
  135SAPE  H16X14685   2.444   6.639   9.551  0.7001 -1.9188  1.1279
  135SAPE  H16Y14686   2.395   6.663   9.713 -1.2086 -0.5839  0.7855
  135SAPE  C31714687   2.233   6.691   9.560  0.3520  0.6007 -0.0418
  135SAPE  H17X14688   2.153   6.719   9.632 -1.9010  0.4242 -2.3457
  135SAPE  H17Y14689   2.183   6.625   9.486 -1.5001  0.8664  0.9036
  135SAPE  C31814690   2.276   6.817   9.485 -0.3822  0.0310  0.2676
  135SAPE  H18X14691   2.335   6.779   9.400 -0.3242 -3.2774  1.6360
  135SAPE  H18Y14692   2.334   6.888   9.548 -1.4698  0.4580  0.8110
  135SAPE  H18Z14693   2.187   6.871   9.446 -0.6494 -0.4766  0.1683
  136SAPE     N14694   5.645   4.368  10.680 -0.7333  0.0226 -0.2185
  136SAPE   HN114695   5.622   4.392  10.778 -0.4888 -2.2324  0.4669
  136SAPE   HN214696   5.744   4.385  10.651 -1.0098  2.1437 -0.0200
  136SAPE   HN314697   5.579   4.399  10.606 -0.2691  1.8780  0.1125
  136SAPE   C1214698   5.624   4.222  10.695 -0.2820  0.0714 -0.1839
  136SAPE  H12A14699   5.515   4.203  10.690 -0.3229  0.3208 -0.2846
  136SAPE  H12B14700   5.666   4.198  10.795  3.3385  0.8709 -1.3260
  136SAPE   C1114701   5.707   4.149  10.590  0.4954  0.0737 -0.6407
  136SAPE  H11A14702   5.680   4.188  10.490 -0.7705 -0.2658 -0.4505
  136SAPE  H11B14703   5.689   4.040  10.599 -0.2553  0.2728  0.5771
  136SAPE     P14704   5.939   4.260  10.550  0.0347  0.0054  0.2396
  136SAPE   O1314705   5.896   4.400  10.547 -0.3206 -0.2694 -0.7270
  136SAPE   O1414706   6.075   4.234  10.604 -0.3157 -0.3324  0.8209
  136SAPE   O1214707   5.842   4.168  10.626 -0.0644  0.6974 -0.7998
  136SAPE   O1114708   5.930   4.187  10.412  0.6465  0.2838  0.9195
  136SAPE    C114709   5.965   4.052  10.393  0.2004  0.3949  0.3551
  136SAPE    HA14710   5.970   3.996  10.488  2.1230  0.3451  0.2633
  136SAPE    HB14711   5.895   3.997  10.327  2.5919  0.3569 -2.3702
  136SAPE    C214712   6.108   4.041  10.325 -0.2843  0.1463 -0.1053
  136SAPE    HS14713   6.175   4.118  10.369 -0.2681 -1.0837  2.1448
  136SAPE   O2114714   6.088   4.068  10.183  0.0084  0.0646 -0.2489
  136SAPE   C2114715   6.195   4.115  10.124 -0.3588  0.2186  1.0656
  136SAPE   O2214716   6.302   4.145  10.178  0.3033  0.0261  0.0696
  136SAPE   C2214717   6.169   4.108   9.972  0.1594 -0.6051  0.4862
  136SAPE   H2R14718   6.077   4.048   9.957 -0.9295  1.7881 -4.7676
  136SAPE   H2S14719   6.148   4.216   9.952 -1.4218 -0.8350  0.7456
  136SAPE    C314720   6.180   3.899  10.340 -0.4687 -0.4471  0.0469
  136SAPE    HX14721   6.212   3.889  10.446 -1.5118 -2.9421  0.1939
  136SAPE    HY14722   6.273   3.890  10.279  0.2808  1.9333  0.7559
  136SAPE   O3114723   6.085   3.795  10.298 -0.3582  0.3344  0.5582
  136SAPE   C3114724   6.124   3.673  10.335 -0.3665  0.1740  0.3792
  136SAPE   O3214725   6.234   3.647  10.382  0.8081  0.0518  0.1652
  136SAPE   C3214726   6.020   3.570  10.298 -0.1819  0.6108  0.6449
  136SAPE   H2X14727   5.925   3.579  10.356 -0.1951  2.8133  0.3750
  136SAPE   H2Y14728   6.071   3.477  10.330  0.6797  1.2794  1.2545
  136SAPE   C2314729   6.284   4.065   9.882  0.1946 -0.4512  0.4368
  136SAPE   H3R14730   6.378   4.117   9.912  0.2099  0.7225 -1.5036
  136SAPE   H3S14731   6.263   4.107   9.781 -1.5660 -1.3741  0.3820
  136SAPE   C2414732   6.325   3.925   9.851  0.4788  0.5155  0.0369
  136SAPE   H4R14733   6.411   3.924   9.781 -1.1101  2.5307 -2.0914
  136SAPE   H4S14734   6.239   3.880   9.797  0.3743 -0.8343  1.2533
  136SAPE   C2514735   6.348   3.840   9.972  0.4378  0.4900 -0.6755
  136SAPE   H5R14736   6.392   3.902  10.052 -2.9011 -0.4881  2.1688
  136SAPE   C2614737   6.329   3.706   9.993  0.2087  0.6574 -0.2308
  136SAPE   H6R14738   6.353   3.653  10.087 -1.4881  1.3574  0.6480
  136SAPE   C2714739   6.283   3.619   9.878 -0.1411  0.0132  0.0098
  136SAPE   H7R14740   6.300   3.665   9.779 -1.0722 -1.1887 -0.7393
  136SAPE   H7S14741   6.173   3.608   9.891 -0.2190  1.4868  0.7790
  136SAPE   C2814742   6.347   3.483   9.877 -0.3236  0.0958 -0.3105
  136SAPE   H8R14743   6.456   3.480   9.861 -0.5283  0.6124 -2.0879
  136SAPE   C2914744   6.277   3.362   9.880 -0.0246 -0.5306  0.3200
  136SAPE   H9R14745   6.342   3.275   9.899  3.6692  1.7849 -0.5663
  136SAPE  C21014746   6.129   3.335   9.882 -0.6133  0.4181  0.3270
  136SAPE  H10R14747   6.080   3.430   9.911  0.9102  1.3501 -0.0141
  136SAPE  H10S14748   6.117   3.277   9.976  2.4691  2.9057  2.4732
  136SAPE  C21114749   6.053   3.268   9.769 -0.0536  0.1532  0.3114
  136SAPE  H11R14750   6.032   3.162   9.786  1.8939 -0.7465 -2.2713
  136SAPE  C21214751   6.009   3.331   9.659  0.3903  0.4837  0.4876
  136SAPE  H12R14752   5.967   3.267   9.580 -0.8701 -0.2660  1.7051
  136SAPE  C21314753   6.040   3.479   9.631  0.4927  0.4513 -0.3986
  136SAPE  H13R14754   6.144   3.515   9.648  0.2359  1.0279  0.0186
  136SAPE  H13S14755   5.982   3.544   9.700  0.0217 -0.5316  0.1376
  136SAPE  C21414756   5.995   3.511   9.488 -0.8225 -0.3734 -0.2413
  136SAPE  H14R14757   5.895   3.472   9.461 -0.3380 -0.3180 -2.3008
  136SAPE  C21514758   6.056   3.570   9.384  0.2237  0.7280  0.1515
  136SAPE  H15R14759   5.996   3.595   9.296  0.4045 -0.2921 -0.2814
  136SAPE  C21614760   6.200   3.633   9.390  0.9940  0.2562  0.6877
  136SAPE  H16R14761   6.256   3.605   9.298  0.8710  0.4317  0.5601
  136SAPE  H16S14762   6.266   3.584   9.464  2.1739 -0.2896 -0.6712
  136SAPE  C21714763   6.192   3.780   9.425 -0.7732  0.4418  0.2306
  136SAPE  H17R14764   6.136   3.786   9.521  2.2248 -0.9014  2.1671
  136SAPE  H17S14765   6.132   3.836   9.349  1.8125  0.7894 -1.6864
  136SAPE  C21814766   6.326   3.845   9.451 -0.3847  0.6831 -0.2213
  136SAPE  H18R14767   6.389   3.835   9.360 -0.3121 -1.9965  0.0594
  136SAPE  H18S14768   6.377   3.789   9.533 -0.5058  2.4374  1.1243
  136SAPE  C21914769   6.318   3.991   9.479 -0.3722 -0.3430 -0.0006
  136SAPE  H19R14770   6.244   4.007   9.560  1.5921 -2.4501  2.3752
  136SAPE  H19S14771   6.279   4.047   9.391  1.4906  0.4208 -0.4060
  136SAPE  C22014772   6.461   4.041   9.521  0.6688 -0.6774  0.2932
  136SAPE  H20R14773   6.462   4.137   9.577 -1.0990  0.2396 -1.1607
  136SAPE  H20S14774   6.523   4.042   9.429 -0.3387  0.1027 -0.3997
  136SAPE  H20T14775   6.508   3.959   9.580  3.1285 -1.0567 -2.0042
  136SAPE   C3314776   5.985   3.556  10.147 -0.3219  0.1050 -0.8001
  136SAPE   H3X14777   5.943   3.459  10.112 -0.8321  1.0089 -2.8443
  136SAPE   H3Y14778   6.082   3.557  10.094  0.4635 -0.8502  0.5599
  136SAPE   C3414779   5.875   3.658  10.103 -0.5179  0.8297  0.8039
  136SAPE   H4X14780   5.901   3.754  10.152  1.2462  1.2800 -0.8919
  136SAPE   H4Y14781   5.774   3.619  10.128 -0.4446 -0.4342 -0.6973
  136SAPE   C3514782   5.869   3.676   9.947 -0.2298  0.2576 -0.6137
  136SAPE   H5X14783   5.843   3.579   9.900  0.1272  0.2834 -0.8751
  136SAPE   H5Y14784   5.977   3.676   9.920 -0.2162 -0.4930 -0.5694
  136SAPE   C3614785   5.804   3.811   9.906  0.4749 -0.2968  0.2537
  136SAPE   H6X14786   5.812   3.886   9.987  0.4238  1.6176 -1.4291
  136SAPE   H6Y14787   5.698   3.785   9.886  0.6203 -0.8774  0.2171
  136SAPE   C3714788   5.869   3.862   9.782 -0.2736 -0.6769 -0.8940
  136SAPE   H7X14789   5.853   3.790   9.699  0.3511 -2.4856  0.4856
  136SAPE   H7Y14790   5.979   3.869   9.796 -0.6008  0.1575  1.9325
  136SAPE   C3814791   5.831   4.005   9.737  0.1231 -0.5250  0.1541
  136SAPE   H8X14792   5.833   4.072   9.826 -2.1728  0.0306 -0.1663
  136SAPE   H8Y14793   5.723   4.002   9.714 -0.4640  0.3506  2.5122
  136SAPE   C3914794   5.914   4.064   9.624 -0.4910  0.2268 -0.0304
  136SAPE   H9X14795   6.022   4.047   9.638 -0.5612 -1.4187 -1.1720
  136SAPE   H9Y14796   5.894   4.173   9.612 -1.9361  0.2380  1.9811
  136SAPE  C31014797   5.882   3.997   9.488 -0.3533 -0.7515 -0.0174
  136SAPE  H10X14798   5.772   4.010   9.480 -0.4540  1.3656  3.0105
  136SAPE  H10Y14799   5.906   3.889   9.488 -3.8322 -1.6549 -0.1869
  136SAPE  C31114800   5.962   4.059   9.373  0.0471 -0.2957 -0.6163
  136SAPE  H11X14801   6.070   4.046   9.397  0.3213 -2.0075 -2.5050
  136SAPE  H11Y14802   5.951   4.170   9.377 -1.3500 -0.2735 -3.2136
  136SAPE  C31214803   5.920   4.006   9.241  0.5060  1.0417  0.0933
  136SAPE  H12X14804   5.811   4.003   9.223  0.5965  1.1994 -0.4986
  136SAPE  H12Y14805   5.943   3.897   9.247 -3.5738  0.0027 -0.2224
  136SAPE  C31314806   5.979   4.073   9.112  0.1353  0.5172 -0.1868
  136SAPE  H13X14807   6.083   4.037   9.104  0.5663  1.9767 -1.6936
  136SAPE  H13Y14808   5.979   4.184   9.122 -1.7640  0.4710  1.0108
  136SAPE  C31414809   5.916   4.032   8.973 -0.5429 -0.6642 -0.0782
  136SAPE  H14X14810   5.813   4.072   8.984 -0.5458 -1.0870  1.6699
  136SAPE  H14Y14811   5.919   3.921   8.974  3.5847 -0.7127  1.2597
  136SAPE  C31514812   5.995   4.090   8.860 -0.4567 -0.0823 -0.7750
  136SAPE  H15X14813   6.098   4.051   8.871 -1.3299 -2.0663  1.2894
  136SAPE  H15Y14814   5.993   4.201   8.868 -2.6201 -0.1169  0.1417
  136SAPE  C31614815   5.937   4.059   8.723 -0.1510  0.4906  0.4808
  136SAPE  H16X14816   5.955   3.952   8.698 -0.6446  0.9656 -2.2198
  136SAPE  H16Y14817   5.996   4.113   8.646 -0.2954 -1.5818 -1.1589
  136SAPE  C31714818   5.789   4.083   8.715 -0.0882  0.3050  0.6630
  136SAPE  H17X14819   5.763   4.168   8.783  0.7331 -0.3927  1.8872
  136SAPE  H17Y14820   5.732   3.993   8.745 -0.8421 -0.1808 -1.9784
  136SAPE  C31814821   5.729   4.123   8.578  0.5045  0.6811  0.1810
  136SAPE  H18X14822   5.781   4.212   8.538  1.2180 -0.3601 -1.2759
  136SAPE  H18Y14823   5.619   4.142   8.576  0.2286 -0.8971 -0.9159
  136SAPE  H18Z14824   5.750   4.045   8.502 -0.3807 -1.1882  1.7525
  137SAPE     N14825   2.531   1.003  11.110  0.1045 -0.2835 -0.2897
  137SAPE   HN114826   2.627   0.980  11.143 -0.3363 -0.1758  1.1432
  137SAPE   HN214827   2.492   1.070  11.180  0.9178 -0.0777 -0.0196
  137SAPE   HN314828   2.472   0.919  11.121  1.5686 -1.5557 -1.7589
  137SAPE   C1214829   2.512   1.042  10.962  0.1884 -0.7935 -0.0346
  137SAPE  H12A14830   2.544   0.954  10.901  0.9211 -1.4666  1.2746
  137SAPE  H12B14831   2.582   1.124  10.935 -0.7506 -0.5910 -2.0814
  137SAPE   C1114832   2.364   1.085  10.936 -0.6209 -0.0626  0.3883
  137SAPE  H11A14833   2.349   1.094  10.826  3.0290 -1.3226 -0.3751
  137SAPE  H11B14834   2.347   1.187  10.975  0.3397 -0.1188  0.9874
  137SAPE     P14835   2.122   0.977  10.964  0.0703 -0.0683  0.1018
  137SAPE   O1314836   2.059   0.916  11.089  0.0887  0.2398  0.3010
  137SAPE   O1414837   2.070   1.101  10.905  0.3882 -0.5462 -0.1836
  137SAPE   O1214838   2.276   0.995  10.998  0.6296  0.5125 -0.2313
  137SAPE   O1114839   2.112   0.862  10.845 -0.4202  0.0782 -0.1505
  137SAPE    C114840   2.206   0.755  10.837  0.0960 -0.2002 -0.4524
  137SAPE    HA14841   2.264   0.745  10.932  0.5809  0.2493 -0.6979
  137SAPE    HB14842   2.159   0.656  10.819 -0.1638  0.2018 -2.0703
  137SAPE    C214843   2.307   0.787  10.723 -0.2811  0.2018  0.1723
  137SAPE    HS14844   2.375   0.861  10.768 -0.2440  0.3819 -0.1768
  137SAPE   O2114845   2.239   0.854  10.615 -0.5217 -0.4561  0.2320
  137SAPE   C2114846   2.327   0.917  10.532  0.1108  0.0366  0.4565
  137SAPE   O2214847   2.446   0.935  10.556 -0.5232 -0.1807  0.5008
  137SAPE   C2214848   2.254   0.979  10.417  0.7951 -0.2125  0.2897
  137SAPE   H2R14849   2.146   0.957  10.423  0.6782  0.5684  1.5146
  137SAPE   H2S14850   2.263   1.084  10.452  0.4141 -0.9321  2.7089
  137SAPE    C314851   2.384   0.658  10.681 -0.7608  0.4146 -0.2761
  137SAPE    HX14852   2.419   0.604  10.772 -0.8886  0.3601 -0.2586
  137SAPE    HY14853   2.480   0.680  10.629 -0.1769  1.2156  1.0965
  137SAPE   O3114854   2.300   0.558  10.626 -0.1285 -0.1809  0.1812
  137SAPE   C3114855   2.271   0.574  10.499 -0.1425 -0.2105 -0.4401
  137SAPE   O3214856   2.331   0.637  10.416 -0.3805 -0.3424  0.5219
  137SAPE   C3214857   2.140   0.499  10.468 -0.0444  0.1361 -0.5621
  137SAPE   H2X14858   2.064   0.577  10.449 -0.1970  0.1778  0.1780
  137SAPE   H2Y14859   2.112   0.429  10.550  1.3397  1.5572  1.2125
  137SAPE   C2314860   2.310   0.942  10.273 -0.5743  0.2352 -0.0885
  137SAPE   H3R14861   2.277   0.840  10.247  1.1305 -0.5145  0.5598
  137SAPE   H3S14862   2.418   0.928  10.291 -0.9902 -1.4101  1.4038
  137SAPE   C2414863   2.288   1.044  10.167 -0.0752 -0.7715  0.2489
  137SAPE   H4R14864   2.301   1.139  10.222 -0.1984 -0.8116  0.3481
  137SAPE   H4S14865   2.180   1.035  10.140 -0.0588 -1.1961  0.3089
  137SAPE   C2514866   2.381   1.044  10.038  0.6233 -0.3036 -0.5643
  137SAPE   H5R14867   2.443   0.954  10.027  0.4446 -0.2009 -3.3105
  137SAPE   C2614868   2.402   1.144   9.949 -0.5873  0.7993  0.3042
  137SAPE   H6R14869   2.456   1.134   9.854 -2.4726  1.9807 -0.9457
  137SAPE   C2714870   2.339   1.275   9.967 -0.4611 -0.2671 -0.0275
  137SAPE   H7R14871   2.415   1.355   9.959 -0.3942  0.2165  3.6889
  137SAPE   H7S14872   2.289   1.285  10.066  3.9608 -0.8716  2.5255
  137SAPE   C2814873   2.237   1.301   9.859 -0.3355 -0.3099 -0.4892
  137SAPE   H8R14874   2.136   1.278   9.896 -0.9616  2.2081 -0.4337
  137SAPE   C2914875   2.250   1.326   9.724  0.0631 -0.1872 -0.3305
  137SAPE   H9R14876   2.154   1.343   9.674 -0.9835 -2.1802  0.8642
  137SAPE  C21014877   2.380   1.347   9.648 -0.0046 -0.8041  0.8923
  137SAPE  H10R14878   2.465   1.335   9.719 -0.2350 -0.0719  1.2958
  137SAPE  H10S14879   2.385   1.451   9.610  0.7400 -1.0342  0.3241
  137SAPE  C21114880   2.387   1.247   9.530  0.3247 -0.3648  0.2287
  137SAPE  H11R14881   2.416   1.141   9.545  0.4852 -0.6538 -1.8468
  137SAPE  C21214882   2.364   1.281   9.401 -0.5496  0.2547  0.0554
  137SAPE  H12R14883   2.348   1.199   9.329 -0.3093 -0.1379  0.4469
  137SAPE  C21314884   2.315   1.416   9.348  0.7230  0.0178 -0.4266
  137SAPE  H13R14885   2.334   1.422   9.239  0.8351  0.2341 -0.3955
  137SAPE  H13S14886   2.353   1.506   9.400 -0.6395 -0.3787  1.3462
  137SAPE  C21414887   2.164   1.417   9.368  0.7654 -0.1104 -0.5905
  137SAPE  H14R14888   2.130   1.372   9.462 -0.0915  0.2148 -0.7344
  137SAPE  C21514889   2.070   1.434   9.271 -0.5988  0.2104  0.2085
  137SAPE  H15R14890   1.963   1.419   9.294 -0.8261 -0.5098 -1.1894
  137SAPE  C21614891   2.091   1.465   9.128 -0.2515  1.4397 -0.2350
  137SAPE  H16R14892   2.183   1.423   9.082 -0.4284 -0.5210  1.0682
  137SAPE  H16S14893   2.106   1.574   9.117  1.7678  1.0214 -2.8963
  137SAPE  C21714894   1.966   1.417   9.050  0.7691  0.2567 -0.7391
  137SAPE  H17R14895   1.867   1.457   9.082  0.3727 -1.2166 -0.0147
  137SAPE  H17S14896   1.947   1.308   9.039 -0.5617  0.4617 -0.6399
  137SAPE  C21814897   1.979   1.474   8.904  0.5460  0.4220  0.8551
  137SAPE  H18R14898   2.074   1.435   8.861 -0.1814  1.4408 -1.8816
  137SAPE  H18S14899   1.985   1.584   8.920  0.2518  0.8156 -1.4024
  137SAPE  C21914900   1.856   1.432   8.818 -1.2760  1.0740  0.8966
  137SAPE  H19R14901   1.764   1.478   8.857 -0.9059  1.1645  1.6816
  137SAPE  H19S14902   1.842   1.322   8.829  0.3336  0.5693 -1.2074
  137SAPE  C22014903   1.863   1.473   8.676  0.2043  0.3152 -0.2467
  137SAPE  H20R14904   1.765   1.441   8.634 -0.4741  1.0650  0.7322
  137SAPE  H20S14905   1.942   1.423   8.615  0.7130  0.1595  0.5331
  137SAPE  H20T14906   1.886   1.582   8.674  0.4825  0.2771  0.7224
  137SAPE   C3314907   2.164   0.418  10.338  0.3201 -0.4436 -0.2539
  137SAPE   H3X14908   2.088   0.338  10.325  1.1729 -1.5652  1.2740
  137SAPE   H3Y14909   2.260   0.365  10.351  0.6925 -0.1521 -1.7231
  137SAPE   C3414910   2.158   0.493  10.202  0.3375 -0.7623  0.1489
  137SAPE   H4X14911   2.172   0.411  10.129 -1.1560 -0.0007 -1.0505
  137SAPE   H4Y14912   2.236   0.571  10.189  1.0614 -1.4280  0.3987
  137SAPE   C3514913   2.027   0.574  10.182  0.2705 -0.5014  0.3351
  137SAPE   H5X14914   2.029   0.662  10.249 -2.1491 -1.6990  2.1472
  137SAPE   H5Y14915   1.940   0.511  10.212 -0.7011  0.2172 -0.8710
  137SAPE   C3614916   2.016   0.614  10.031 -0.8815  0.0414  0.0830
  137SAPE   H6X14917   1.921   0.670  10.016  0.3338  1.4471 -3.4713
  137SAPE   H6Y14918   2.010   0.520   9.971 -2.3852 -1.2462  2.1331
  137SAPE   C3714919   2.128   0.690   9.968 -0.8286  0.8739 -0.3319
  137SAPE   H7X14920   2.216   0.625   9.952 -0.4295  0.5968  2.4915
  137SAPE   H7Y14921   2.173   0.765  10.037 -1.2013  0.8547 -0.0603
  137SAPE   C3814922   2.086   0.750   9.829  0.2340 -0.3444 -0.4409
  137SAPE   H8X14923   2.013   0.831   9.849 -0.0308 -1.0951  2.0239
  137SAPE   H8Y14924   2.039   0.660   9.784 -0.4606  0.1592 -0.7451
  137SAPE   C3914925   2.201   0.807   9.755  0.6521  0.1715  0.5396
  137SAPE   H9X14926   2.289   0.739   9.755 -0.1287 -0.8632  0.4225
  137SAPE   H9Y14927   2.238   0.900   9.802 -0.9236  1.6580 -0.9935
  137SAPE  C31014928   2.166   0.843   9.603 -0.5459 -0.4655 -0.6579
  137SAPE  H10X14929   2.095   0.928   9.613 -1.6762 -1.3635 -0.8064
  137SAPE  H10Y14930   2.123   0.750   9.559  2.0071 -2.5684  0.9517
  137SAPE  C31114931   2.285   0.876   9.515  0.3986  0.3794  1.2342
  137SAPE  H11X14932   2.351   0.787   9.508 -1.1515 -0.7220 -0.2050
  137SAPE  H11Y14933   2.353   0.954   9.555  0.0447  2.1559 -1.4212
  137SAPE  C31214934   2.254   0.907   9.367  1.4344  0.3164  0.0661
  137SAPE  H12X14935   2.211   0.816   9.321  1.0854 -0.2495  1.4444
  137SAPE  H12Y14936   2.340   0.933   9.302  0.1299 -2.2316 -2.9503
  137SAPE  C31314937   2.141   1.010   9.350  0.0445 -0.7766  0.3898
  137SAPE  H13X14938   2.155   1.099   9.415  0.3665 -1.4830  1.3039
  137SAPE  H13Y14939   2.041   0.972   9.381  0.6401 -1.9220  0.9535
  137SAPE  C31414940   2.126   1.070   9.207  0.7226  0.0657 -0.2268
  137SAPE  H14X14941   2.228   1.086   9.167  1.1086 -2.7787 -0.5741
  137SAPE  H14Y14942   2.070   1.165   9.198 -2.3757 -1.7736 -2.4384
  137SAPE  C31514943   2.083   0.962   9.106 -0.2494 -0.4213  0.0958
  137SAPE  H15X14944   1.995   0.917   9.156 -0.7597 -0.2677 -0.6461
  137SAPE  H15Y14945   2.176   0.901   9.099  0.1492  0.3154 -1.6979
  137SAPE  C31614946   2.042   1.023   8.974  0.6660  0.3800  0.5414
  137SAPE  H16X14947   2.134   1.070   8.932  0.6049 -1.4489 -1.8678
  137SAPE  H16Y14948   1.965   1.101   8.991 -1.5851 -1.7762  0.8863
  137SAPE  C31714949   1.988   0.919   8.877  0.6333  0.4095 -0.0662
  137SAPE  H17X14950   1.966   0.964   8.778  0.7409  0.3343 -0.1242
  137SAPE  H17Y14951   1.892   0.869   8.903  0.7268 -0.1758 -0.8315
  137SAPE  C31814952   2.096   0.828   8.836 -0.4025 -0.3571 -0.3910
  137SAPE  H18X14953   2.122   0.756   8.917 -0.8666  0.4064  0.4609
  137SAPE  H18Y14954   2.184   0.895   8.831 -1.7430  1.6886  1.3722
  137SAPE  H18Z14955   2.079   0.793   8.732  3.7670  2.1702 -2.1411
  138SAPE     N14956   0.134   0.797  10.951 -0.3947  0.1199  0.6834
  138SAPE   HN114957   0.049   0.856  10.961 -0.1195  1.1078 -1.9418
  138SAPE   HN214958   0.181   0.766  11.039  0.2558 -1.0318 -0.0412
  138SAPE   HN314959   0.192   0.860  10.892 -1.4607 -0.1743 -0.7581
  138SAPE   C1214960   0.094   0.677  10.870  0.2010 -0.1408  0.2305
  138SAPE  H12A14961   0.186   0.619  10.849 -0.0347 -0.1479 -0.8234
  138SAPE  H12B14962   0.061   0.713  10.770  0.0290 -1.7235 -0.3023
  138SAPE   C1114963  -0.019   0.602  10.935 -0.4727  0.0280  0.3117
  138SAPE  H11A14964   0.011   0.588  11.041  0.8340  2.5520  0.3816
  138SAPE  H11B14965  -0.011   0.508  10.876  0.2549  1.1248 -1.4503
  138SAPE     P14966  -0.278   0.588  10.915 -0.0387  0.0230  0.2274
  138SAPE   O1314967  -0.253   0.462  10.980  0.4456 -0.1590  0.5873
  138SAPE   O1414968  -0.393   0.673  10.954  0.2766 -0.6509  0.2447
  138SAPE   O1214969  -0.143   0.669  10.910 -0.3394 -0.3313  0.2366
  138SAPE   O1114970  -0.281   0.547  10.757 -0.1602  0.0805 -0.6369
  138SAPE    C114971  -0.334   0.633  10.656  0.6948  0.2090  0.3312
  138SAPE    HA14972  -0.433   0.604  10.615 -0.0238  3.1650 -0.2683
  138SAPE    HB14973  -0.349   0.737  10.691 -1.9705 -0.5190  1.5842
  138SAPE    C214974  -0.247   0.640  10.525  0.6139 -0.6276 -0.2044
  138SAPE    HS14975  -0.298   0.713  10.459  1.3424 -1.7943 -2.1483
  138SAPE   O2114976  -0.277   0.511  10.467 -0.5674 -0.0448 -0.1341
  138SAPE   C2114977  -0.299   0.506  10.339  0.5737 -0.1021 -0.5685
  138SAPE   O2214978  -0.300   0.602  10.264 -0.1148  0.2138  0.2413
  138SAPE   C2214979  -0.334   0.361  10.290 -0.5915 -0.0438  0.6023
  138SAPE   H2R14980  -0.272   0.288  10.347 -1.3399 -1.7812 -0.7157
  138SAPE   H2S14981  -0.438   0.353  10.328 -0.8018  2.1343  0.6320
  138SAPE    C314982  -0.099   0.670  10.542 -0.0299  0.5295  0.3370
  138SAPE    HX14983  -0.050   0.578  10.581  0.3313  0.6366  0.1432
  138SAPE    HY14984  -0.081   0.744  10.623 -2.6790  0.9433  0.6169
  138SAPE   O3114985  -0.026   0.723  10.429  0.1546 -0.1394  0.0626
  138SAPE   C3114986   0.048   0.636  10.366 -0.0338 -0.0634 -0.1164
  138SAPE   O3214987   0.057   0.516  10.381 -0.4838 -0.2186  0.4955
  138SAPE   C3214988   0.110   0.709  10.243 -0.2356  0.1688  0.1862
  138SAPE   H2X14989   0.196   0.659  10.194  0.1363  1.4140 -0.4949
  138SAPE   H2Y14990   0.147   0.809  10.274  1.6794 -0.0036 -1.3353
  138SAPE   C2314991  -0.337   0.343  10.146  0.2762 -0.0714 -0.0685
  138SAPE   H3R14992  -0.340   0.234  10.125 -0.7305 -0.0389 -0.1558
  138SAPE   H3S14993  -0.243   0.374  10.097 -1.9123  3.1110 -2.7119
  138SAPE   C2414994  -0.442   0.407  10.064 -0.3218 -0.0129  0.4307
  138SAPE   H4R14995  -0.418   0.386   9.957 -1.8471 -1.0086  0.2427
  138SAPE   H4S14996  -0.414   0.514  10.065 -1.3977  0.2824  1.7857
  138SAPE   C2514997  -0.583   0.381  10.103  0.2877  0.6860  0.2600
  138SAPE   H5R14998  -0.617   0.424  10.198 -0.1874  0.9401 -0.0222
  138SAPE   C2614999  -0.681   0.310  10.039 -0.5358 -0.2727 -0.0827
  138SAPE   H6R15000  -0.779   0.307  10.089  0.3697  2.1959  2.0448
  138SAPE   C2715001  -0.666   0.239   9.905 -0.2911  0.9106 -0.1941
  138SAPE   H7R15002  -0.670   0.130   9.923  0.0515  1.0073  0.4862
  138SAPE   H7S15003  -0.562   0.257   9.869  1.0034 -0.6266  2.5177
  138SAPE   C2815004  -0.769   0.271   9.798  0.4808 -0.0722  0.4381
  138SAPE   H8R15005  -0.863   0.317   9.833 -0.2083 -0.4085 -0.9202
  138SAPE   C2915006  -0.752   0.256   9.666  0.2885 -0.8335 -0.3979
  138SAPE   H9R15007  -0.836   0.276   9.597 -0.5125  1.7443  1.1921
  138SAPE  C21015008  -0.630   0.196   9.592 -0.7716  0.1127  0.4046
  138SAPE  H10R15009  -0.541   0.227   9.651 -0.6828 -2.5147  1.7978
  138SAPE  H10S15010  -0.615   0.253   9.497 -0.3079  0.0137  0.4145
  138SAPE  C21115011  -0.639   0.048   9.562  0.0175  0.5262  0.0444
  138SAPE  H11R15012  -0.730  -0.009   9.588  0.5094 -0.6670 -0.7723
  138SAPE  C21215013  -0.542  -0.019   9.497 -0.0999  0.5785  0.1080
  138SAPE  H12R15014  -0.566  -0.123   9.470  2.0067  0.2565 -0.6793
  138SAPE  C21315015  -0.420   0.030   9.427 -0.0753 -0.7138 -0.7740
  138SAPE  H13R15016  -0.340  -0.047   9.421 -0.3805 -0.9993 -1.2334
  138SAPE  H13S15017  -0.387   0.112   9.494 -0.4888 -0.7900 -0.4684
  138SAPE  C21415018  -0.453   0.093   9.297  0.1430 -0.0008  0.5697
  138SAPE  H14R15019  -0.536   0.164   9.285  0.5625  0.2888 -0.8347
  138SAPE  C21515020  -0.399   0.046   9.182 -0.0316 -0.2492  0.4323
  138SAPE  H15R15021  -0.435   0.092   9.088 -2.0114 -0.0392  1.2590
  138SAPE  C21615022  -0.296  -0.061   9.153 -0.2402  0.7906  0.2015
  138SAPE  H16R15023  -0.351  -0.157   9.147  0.8638 -0.0595  2.4154
  138SAPE  H16S15024  -0.225  -0.081   9.236  1.3529 -0.2686 -1.3570
  138SAPE  C21715025  -0.207  -0.040   9.023  0.7813 -0.7966 -0.1621
  138SAPE  H17R15026  -0.162   0.061   9.039  0.2799 -0.7135  0.8330
  138SAPE  H17S15027  -0.284  -0.017   8.946 -1.5728 -0.3471  2.1635
  138SAPE  C21815028  -0.118  -0.150   8.991  0.5479 -0.9225  0.1607
  138SAPE  H18R15029  -0.162  -0.252   9.002 -0.5490 -0.6915 -1.6305
  138SAPE  H18S15030  -0.032  -0.139   9.060  1.1015 -0.4675 -0.5891
  138SAPE  C21915031  -0.062  -0.138   8.849  0.0267 -0.3976  0.1809
  138SAPE  H19R15032  -0.014  -0.039   8.834 -1.0149 -0.2858 -3.0559
  138SAPE  H19S15033  -0.151  -0.130   8.783  1.8344  1.1281 -2.2683
  138SAPE  C22015034   0.032  -0.252   8.807 -0.1157  0.7055  0.7542
  138SAPE  H20R15035   0.131  -0.246   8.857  0.6947 -1.3447 -0.4817
  138SAPE  H20S15036   0.049  -0.244   8.698  0.3283  1.8565  0.8973
  138SAPE  H20T15037  -0.016  -0.350   8.829  0.2283  1.3710  5.5081
  138SAPE   C3315038   0.001   0.740  10.129  0.6181  0.2886  0.1478
  138SAPE   H3X15039   0.036   0.820  10.061  2.3276  1.0270  1.8038
  138SAPE   H3Y15040  -0.098   0.764  10.175  0.2387 -1.1139  0.1277
  138SAPE   C3415041  -0.022   0.616  10.048 -0.0458  0.1323 -0.2410
  138SAPE   H4X15042  -0.042   0.530  10.114  4.1312 -0.2233  0.8064
  138SAPE   H4Y15043   0.071   0.593   9.992  2.8594  1.9462  3.4649
  138SAPE   C3515044  -0.133   0.643   9.945  0.9159  0.0630  0.3428
  138SAPE   H5X15045  -0.107   0.737   9.892 -0.6098 -0.7351 -1.9540
  138SAPE   H5Y15046  -0.234   0.650   9.991  0.7794  1.0702 -0.0947
  138SAPE   C3615047  -0.132   0.536   9.841  0.3139  0.2601  0.5959
  138SAPE   H6X15048  -0.125   0.433   9.881 -2.1032 -0.6061 -1.0297
  138SAPE   H6Y15049  -0.035   0.547   9.788  0.5491 -1.6661  0.5512
  138SAPE   C3715050  -0.243   0.550   9.731 -0.2267 -0.4151 -0.3341
  138SAPE   H7X15051  -0.347   0.537   9.767  0.3269 -1.6541  0.9308
  138SAPE   H7Y15052  -0.230   0.471   9.653 -0.7973 -1.0902  0.2379
  138SAPE   C3815053  -0.259   0.681   9.645  0.1251  0.3431 -0.1201
  138SAPE   H8X15054  -0.164   0.718   9.601 -0.7650  3.9466  0.6258
  138SAPE   H8Y15055  -0.300   0.769   9.700 -1.1342  0.0100 -0.4776
  138SAPE   C3915056  -0.371   0.674   9.547  1.1360  0.2369 -0.4018
  138SAPE   H9X15057  -0.460   0.618   9.583  0.9106 -1.0748 -2.8147
  138SAPE   H9Y15058  -0.330   0.602   9.473 -0.6195 -0.3445 -0.8699
  138SAPE  C31015059  -0.424   0.802   9.472 -0.0660 -0.0046 -0.0435
  138SAPE  H10X15060  -0.335   0.845   9.422  1.4945 -1.2455  1.5173
  138SAPE  H10Y15061  -0.461   0.880   9.541 -0.0645  1.4193 -1.5906
  138SAPE  C31115062  -0.535   0.765   9.385  0.3717 -0.4015  0.5946
  138SAPE  H11X15063  -0.626   0.731   9.440  2.3018 -1.0960  3.5878
  138SAPE  H11Y15064  -0.505   0.669   9.338 -1.5057 -0.4583 -0.6147
  138SAPE  C31215065  -0.558   0.871   9.278  0.0601 -0.5453  0.1297
  138SAPE  H12X15066  -0.463   0.890   9.222 -1.9171  2.5222 -2.5744
  138SAPE  H12Y15067  -0.594   0.964   9.326  1.0731 -0.1044  0.0720
  138SAPE  C31315068  -0.653   0.832   9.160  0.0914  0.6725 -0.7072
  138SAPE  H13X15069  -0.759   0.829   9.193  0.3602  0.0537  0.1098
  138SAPE  H13Y15070  -0.618   0.732   9.125  3.7355  2.0376 -1.3852
  138SAPE  C31415071  -0.643   0.928   9.035 -0.3161  0.3054  0.0194
  138SAPE  H14X15072  -0.547   0.907   8.983  1.2202  1.9728  1.9788
  138SAPE  H14Y15073  -0.651   1.030   9.079  4.4258  0.0894  1.9768
  138SAPE  C31515074  -0.747   0.895   8.930  0.3477 -0.0830 -0.2483
  138SAPE  H15X15075  -0.839   0.903   8.992  0.4735 -0.4237 -0.0106
  138SAPE  H15Y15076  -0.733   0.790   8.896 -0.0520  0.6213 -2.7803
  138SAPE  C31615077  -0.756   0.980   8.802 -0.1352  0.6415  0.0181
  138SAPE  H16X15078  -0.836   0.932   8.741 -0.8640 -0.0311  1.4472
  138SAPE  H16Y15079  -0.660   0.970   8.747 -0.1987  0.6167 -0.0873
  138SAPE  C31715080  -0.787   1.127   8.820  0.2340 -1.1524 -1.0003
  138SAPE  H17X15081  -0.709   1.178   8.881 -0.8454 -1.8300  1.0421
  138SAPE  H17Y15082  -0.881   1.140   8.877  1.5032 -0.4661  1.0260
  138SAPE  C31815083  -0.791   1.210   8.687  0.5236  0.5436 -0.3658
  138SAPE  H18X15084  -0.871   1.175   8.618  0.8959 -0.6023 -0.2505
  138SAPE  H18Y15085  -0.693   1.209   8.635 -0.4982 -1.3231 -2.4276
  138SAPE  H18Z15086  -0.811   1.314   8.720 -1.8833 -0.6889  2.4570
  139SAPE     N15087   1.132   6.528  10.421  0.6989 -0.3313  0.7458
  139SAPE   HN115088   1.180   6.601  10.366 -0.3253  1.5324  2.1938
  139SAPE   HN215089   1.121   6.447  10.356 -1.2896 -0.0121  0.6112
  139SAPE   HN315090   1.034   6.558  10.440  0.9391 -0.2062  1.8994
  139SAPE   C1215091   1.211   6.500  10.551  0.2556  0.2066  0.5954
  139SAPE  H12A15092   1.312   6.459  10.530  1.1002  1.6105  1.6964
  139SAPE  H12B15093   1.155   6.418  10.600  1.6092 -0.3591  1.2588
  139SAPE   C1115094   1.238   6.626  10.638  0.3377  0.3196 -0.1495
  139SAPE  H11A15095   1.303   6.604  10.726 -1.7331  0.2562  1.4371
  139SAPE  H11B15096   1.143   6.660  10.684  1.9199  0.4798  3.3485
  139SAPE     P15097   1.226   6.867  10.535  0.1544  0.1747 -0.0134
  139SAPE   O1315098   1.084   6.873  10.569 -0.9095  0.1723 -0.0580
  139SAPE   O1415099   1.319   6.971  10.588 -0.5851 -0.2642  0.0470
  139SAPE   O1215100   1.295   6.732  10.559 -0.1999 -0.1100 -0.0515
  139SAPE   O1115101   1.242   6.863  10.373 -0.0051  0.3585 -0.0416
  139SAPE    C115102   1.303   6.979  10.319 -0.1305 -0.0515  0.6948
  139SAPE    HA15103   1.401   7.004  10.366 -0.3258 -0.3851  1.3009
  139SAPE    HB15104   1.328   6.957  10.213 -0.7741  1.3056  0.2473
  139SAPE    C215105   1.209   7.101  10.319 -0.3535 -0.3405  0.0156
  139SAPE    HS15106   1.158   7.095  10.417  0.1785 -1.5893  0.2352
  139SAPE   O2115107   1.112   7.072  10.214 -0.0040 -0.2588  0.2328
  139SAPE   C2115108   0.986   7.108  10.247 -0.2833  0.0131 -0.6533
  139SAPE   O2215109   0.952   7.156  10.355  0.2250 -0.2186  0.2300
  139SAPE   C2215110   0.888   7.066  10.136  0.1836  0.5445  0.3821
  139SAPE   H2R15111   0.941   7.004  10.060 -0.5843  0.4562 -0.0953
  139SAPE   H2S15112   0.812   6.994  10.174  0.9562 -0.9289 -0.7588
  139SAPE    C315113   1.272   7.237  10.295 -0.3511  0.7149  0.6017
  139SAPE    HX15114   1.359   7.244  10.364  1.0128 -0.5604 -0.9111
  139SAPE    HY15115   1.197   7.318  10.313 -1.2275 -0.0158  0.2820
  139SAPE   O3115116   1.329   7.236  10.158 -0.1110 -0.4450  0.0923
  139SAPE   C3115117   1.275   7.333  10.081  0.0076  0.3353 -0.5969
  139SAPE   O3215118   1.175   7.399  10.105  0.3169  1.2191 -0.8650
  139SAPE   C3215119   1.364   7.346   9.953  0.0602  0.3622  0.3927
  139SAPE   H2X15120   1.302   7.401   9.879  0.8538  0.3163 -0.3220
  139SAPE   H2Y15121   1.393   7.246   9.914 -0.9232  0.4066 -0.4993
  139SAPE   C2315122   0.805   7.183  10.075 -0.0847 -0.5263  0.2242
  139SAPE   H3R15123   0.792   7.262  10.152 -1.0737 -0.2721 -0.1948
  139SAPE   H3S15124   0.702   7.150  10.052  0.5807 -2.3880 -0.3029
  139SAPE   C2415125   0.869   7.241   9.943  0.7481  0.3444  0.0161
  139SAPE   H4R15126   0.970   7.279   9.970  0.4784  0.2035  1.2807
  139SAPE   H4S15127   0.808   7.328   9.911  0.4268 -0.6922 -2.4222
  139SAPE   C2515128   0.861   7.148   9.825 -0.0797  0.0028 -0.1239
  139SAPE   H5R15129   0.784   7.070   9.824  2.6901 -3.0146  1.2856
  139SAPE   C2615130   0.952   7.140   9.721  0.1841 -0.7781  0.5713
  139SAPE   H6R15131   0.939   7.076   9.632  0.9589  1.7549 -1.4755
  139SAPE   C2715132   1.070   7.231   9.695  0.2597 -0.3360 -0.0267
  139SAPE   H7R15133   1.162   7.176   9.670  0.3037  0.2677 -1.2633
  139SAPE   H7S15134   1.088   7.291   9.787 -0.3411 -0.4607  0.1796
  139SAPE   C2815135   1.041   7.321   9.572  0.0802  0.1713  0.7296
  139SAPE   H8R15136   0.991   7.417   9.591 -0.3252 -0.2265  1.8014
  139SAPE   C2915137   1.084   7.307   9.446 -0.5685 -0.5424  0.5705
  139SAPE   H9R15138   1.054   7.379   9.369 -1.8934 -0.9179  0.7131
  139SAPE  C21015139   1.164   7.197   9.394  0.5965  0.1288 -0.1711
  139SAPE  H10R15140   1.179   7.120   9.473  0.1062 -0.7175 -0.8815
  139SAPE  H10S15141   1.265   7.234   9.368  1.4450 -1.5516  0.5721
  139SAPE  C21115142   1.092   7.128   9.282  0.3836 -0.3971  0.6829
  139SAPE  H11R15143   1.024   7.046   9.309  0.1573 -0.7290 -0.8224
  139SAPE  C21215144   1.117   7.147   9.153  0.1211  0.3800 -0.1608
  139SAPE  H12R15145   1.064   7.087   9.077  1.2527  1.2016 -1.6481
  139SAPE  C21315146   1.220   7.242   9.098 -0.2251  0.2355 -0.1792
  139SAPE  H13R15147   1.315   7.186   9.090 -0.4054 -0.0832 -0.0972
  139SAPE  H13S15148   1.241   7.320   9.175  0.4198 -0.4931  0.3968
  139SAPE  C21415149   1.189   7.293   8.959 -0.5051  0.3752 -0.7259
  139SAPE  H14R15150   1.117   7.376   8.957  0.8781  1.6395 -0.3785
  139SAPE  C21515151   1.246   7.264   8.840 -0.1935 -0.3493 -0.3168
  139SAPE  H15R15152   1.206   7.311   8.749  3.3300  0.2930 -1.7029
  139SAPE  C21615153   1.352   7.159   8.820 -0.6220 -0.8651  0.2574
  139SAPE  H16R15154   1.408   7.137   8.914 -0.2107  0.5079  0.3639
  139SAPE  H16S15155   1.413   7.195   8.734 -0.8276 -1.3993 -0.1114
  139SAPE  C21715156   1.301   7.021   8.774 -0.0308  0.0072 -0.1295
  139SAPE  H17R15157   1.238   6.968   8.848  0.4450  1.4343  1.3668
  139SAPE  H17S15158   1.396   6.965   8.758  0.7884  1.1762  0.4551
  139SAPE  C21815159   1.221   7.039   8.649  0.4375 -0.0368  0.8409
  139SAPE  H18R15160   1.262   7.115   8.580  0.7116 -2.0911 -1.4027
  139SAPE  H18S15161   1.112   7.056   8.662  0.2905 -0.0471 -0.3081
  139SAPE  C21915162   1.209   6.905   8.573 -0.5946  0.4659  0.5178
  139SAPE  H19R15163   1.266   6.833   8.636 -2.1325 -0.7984  0.5280
  139SAPE  H19S15164   1.256   6.910   8.472 -1.1723  0.0606  0.2208
  139SAPE  C22015165   1.065   6.861   8.562 -0.3934 -0.0860  0.2102
  139SAPE  H20R15166   1.035   6.840   8.666  2.7523  0.8671  1.4245
  139SAPE  H20S15167   1.077   6.763   8.511  0.0569  0.4369 -0.7281
  139SAPE  H20T15168   1.005   6.934   8.503  0.3936 -0.0317 -0.5472
  139SAPE   C3315169   1.486   7.440   9.983 -0.2860  0.0221 -0.5520
  139SAPE   H3X15170   1.534   7.382  10.065 -0.3537  1.7113  0.7281
  139SAPE   H3Y15171   1.455   7.534  10.033 -1.2442 -1.3914  1.6777
  139SAPE   C3415172   1.579   7.463   9.867 -0.2315  0.2457  1.0503
  139SAPE   H4X15173   1.608   7.365   9.823 -0.5382  0.7138 -0.2338
  139SAPE   H4Y15174   1.672   7.520   9.891  0.1533  0.7500 -1.4439
  139SAPE   C3515175   1.513   7.542   9.751  0.1394  0.1914 -0.7571
  139SAPE   H5X15176   1.503   7.641   9.801  0.3640 -0.4876  0.7100
  139SAPE   H5Y15177   1.418   7.492   9.721 -1.1479  1.1548  1.4117
  139SAPE   C3615178   1.612   7.551   9.636 -0.0938  0.1700 -0.8376
  139SAPE   H6X15179   1.641   7.450   9.603  0.2925  0.5624 -1.7250
  139SAPE   H6Y15180   1.704   7.598   9.678 -0.8175 -0.9119  2.2710
  139SAPE   C3715181   1.564   7.617   9.516  0.1679 -0.2298  0.4920
  139SAPE   H7X15182   1.655   7.636   9.455 -0.7339  0.1767 -0.7554
  139SAPE   H7Y15183   1.532   7.722   9.536 -2.4500 -1.2359  2.1325
  139SAPE   C3815184   1.449   7.541   9.441  0.3227 -0.1315 -0.1947
  139SAPE   H8X15185   1.355   7.577   9.488  2.6054  1.8541  3.2887
  139SAPE   H8Y15186   1.455   7.431   9.460 -2.3996 -0.5740 -1.4038
  139SAPE   C3915187   1.453   7.547   9.289  0.4737  0.1793  0.5719
  139SAPE   H9X15188   1.428   7.647   9.246  0.1517 -0.0882  0.1310
  139SAPE   H9Y15189   1.382   7.478   9.241  2.0246 -1.3183  0.3439
  139SAPE  C31015190   1.589   7.498   9.234  0.1872  0.2688 -0.0881
  139SAPE  H10X15191   1.636   7.421   9.298 -1.8128 -0.3465  0.7058
  139SAPE  H10Y15192   1.665   7.580   9.233  0.4176  0.0908  0.9944
  139SAPE  C31115193   1.565   7.440   9.099  0.2419 -0.1126 -0.3800
  139SAPE  H11X15194   1.502   7.515   9.046 -1.1656  1.1451  2.7973
  139SAPE  H11Y15195   1.513   7.342   9.106  3.1572 -1.8717 -1.6531
  139SAPE  C31215196   1.695   7.428   9.030 -0.8902  0.3492  0.3157
  139SAPE  H12X15197   1.752   7.342   9.072 -4.7922 -2.9045 -0.4099
  139SAPE  H12Y15198   1.743   7.528   9.039 -2.2260  0.9757  0.7334
  139SAPE  C31315199   1.678   7.400   8.877  0.1635 -0.4816 -0.0804
  139SAPE  H13X15200   1.644   7.497   8.835 -0.9254 -1.1290 -0.7460
  139SAPE  H13Y15201   1.596   7.326   8.863 -1.3967  0.7909  1.9392
  139SAPE  C31415202   1.809   7.354   8.815  0.0411  0.3610  0.5709
  139SAPE  H14X15203   1.833   7.252   8.850 -0.6042  0.6377  1.8564
  139SAPE  H14Y15204   1.891   7.425   8.839 -0.6435  1.7948 -1.0300
  139SAPE  C31515205   1.798   7.360   8.656  0.3677  0.9328 -0.3131
  139SAPE  H15X15206   1.895   7.330   8.611 -0.9091 -0.1851 -2.5391
  139SAPE  H15Y15207   1.780   7.466   8.625  0.5950  0.9567 -0.3640
  139SAPE  C31615208   1.685   7.274   8.598 -0.1910  0.3035  0.0340
  139SAPE  H16X15209   1.718   7.172   8.571  0.8728 -0.6811  4.2928
  139SAPE  H16Y15210   1.618   7.262   8.686 -0.1218  0.0792  0.0540
  139SAPE  C31715211   1.598   7.328   8.484 -0.2729  0.1708  0.1623
  139SAPE  H17X15212   1.672   7.352   8.404  0.1876  0.1795  0.5851
  139SAPE  H17Y15213   1.535   7.417   8.506 -0.1842  0.6064 -1.2472
  139SAPE  C31815214   1.511   7.211   8.440  0.5872 -0.2905  0.2902
  139SAPE  H18X15215   1.447   7.182   8.526 -1.1378  0.4410 -0.7064
  139SAPE  H18Y15216   1.570   7.122   8.411 -0.7985 -1.1728  0.0811
  139SAPE  H18Z15217   1.440   7.229   8.356 -0.7102  2.7076  1.8743
  140SAPE     N15218   3.510   2.741  10.659  0.4144  0.3580 -0.1021
  140SAPE   HN115219   3.560   2.700  10.577  1.6317  1.3569  0.1011
  140SAPE   HN215220   3.480   2.663  10.720  0.9122  0.4327  0.2447
  140SAPE   HN315221   3.429   2.801  10.634 -0.1318  0.2749  1.3971
  140SAPE   C1215222   3.611   2.819  10.734 -0.5264  0.0319 -0.0189
  140SAPE  H12A15223   3.569   2.822  10.837  0.6419  0.6448  0.4520
  140SAPE  H12B15224   3.614   2.917  10.681  0.8843 -0.8513 -1.6855
  140SAPE   C1115225   3.751   2.759  10.709  0.5360  0.2101  0.0909
  140SAPE  H11A15226   3.824   2.827  10.756 -1.4404  1.4879  1.4784
  140SAPE  H11B15227   3.777   2.758  10.601 -0.9386 -0.6479 -0.2892
  140SAPE     P15228   3.907   2.567  10.770  0.0443  0.0271 -0.1049
  140SAPE   O1315229   3.995   2.676  10.835  0.4055 -0.6597 -0.2778
  140SAPE   O1415230   3.905   2.429  10.828 -0.2237 -0.4436  0.1171
  140SAPE   O1215231   3.754   2.621  10.764 -0.4515  0.1442 -0.1070
  140SAPE   O1115232   3.949   2.558  10.615  0.6931 -0.9527 -0.3910
  140SAPE    C115233   3.853   2.479  10.543 -0.2895 -0.2213 -0.5013
  140SAPE    HA15234   3.825   2.378  10.582 -0.9660 -1.2315 -3.3559
  140SAPE    HB15235   3.760   2.537  10.525  0.0871  0.1872 -1.1707
  140SAPE    C215236   3.900   2.444  10.398  0.3248  0.1524  0.0582
  140SAPE    HS15237   3.983   2.370  10.406  0.4692 -0.0149 -2.3192
  140SAPE   O2115238   3.925   2.567  10.326 -0.1801  0.3053 -0.3946
  140SAPE   C2115239   4.039   2.593  10.285 -0.2906 -0.2445 -0.5550
  140SAPE   O2215240   4.147   2.535  10.311  0.1924  0.7819 -0.7043
  140SAPE   C2215241   4.025   2.735  10.227 -0.2428  0.2014 -0.4607
  140SAPE   H2R15242   3.919   2.755  10.200 -0.4018  0.2776  0.1939
  140SAPE   H2S15243   4.038   2.800  10.317  0.2724  0.0825 -0.4478
  140SAPE    C315244   3.780   2.365  10.331  0.2538 -0.4004  0.4275
  140SAPE    HX15245   3.692   2.433  10.332 -0.8688 -1.7796 -0.4322
  140SAPE    HY15246   3.765   2.275  10.394  0.6305 -2.0313 -1.6977
  140SAPE   O3115247   3.817   2.327  10.196 -0.5501 -0.2981  0.4119
  140SAPE   C3115248   3.757   2.388  10.095 -0.0432  0.4176 -0.2229
  140SAPE   O3215249   3.673   2.472  10.108 -0.2066  0.7789 -0.4570
  140SAPE   C3215250   3.806   2.332   9.950  1.0387  0.1823 -0.6267
  140SAPE   H2X15251   3.771   2.226   9.951  0.8764  0.2100  1.8336
  140SAPE   H2Y15252   3.917   2.333   9.960  0.8877  1.1861  1.3430
  140SAPE   C2315253   4.140   2.788  10.135 -0.2547  0.1779  0.1490
  140SAPE   H3R15254   4.236   2.785  10.191 -0.8205 -0.0920  1.1450
  140SAPE   H3S15255   4.111   2.891  10.106 -1.1629 -0.3497 -0.9250
  140SAPE   C2415256   4.152   2.700  10.007 -0.6273  0.1601  0.6807
  140SAPE   H4R15257   4.178   2.594  10.027  3.2988  0.5833 -1.1844
  140SAPE   H4S15258   4.242   2.751   9.966 -0.4706  2.2188  3.2510
  140SAPE   C2515259   4.031   2.704   9.916  0.2197  0.2859  0.1188
  140SAPE   H5R15260   3.969   2.613   9.923  0.6639  0.1017  4.2410
  140SAPE   C2615261   4.005   2.775   9.806 -0.1601 -0.6846  0.3114
  140SAPE   H6R15262   3.910   2.766   9.752 -0.1253  0.2109  0.0956
  140SAPE   C2715263   4.089   2.898   9.758  0.0149  0.1764 -0.4629
  140SAPE   H7R15264   4.191   2.870   9.726  0.3220 -0.7694  1.2377
  140SAPE   H7S15265   4.102   2.964   9.847  0.4592 -0.6868  0.1280
  140SAPE   C2815266   4.013   2.984   9.653  0.3736 -0.1403  0.2060
  140SAPE   H8R15267   3.988   3.087   9.682  0.7836  0.0783 -0.2094
  140SAPE   C2915268   3.980   2.947   9.529 -0.4677 -0.7441  0.0164
  140SAPE   H9R15269   3.936   3.020   9.460  0.6700  0.6782  0.7275
  140SAPE  C21015270   4.021   2.815   9.463  0.1363 -0.4480  0.4945
  140SAPE  H10R15271   3.949   2.795   9.381 -2.1281 -0.0589  2.2717
  140SAPE  H10S15272   4.022   2.735   9.539  1.8237  1.4713  2.6635
  140SAPE  C21115273   4.157   2.804   9.400  0.2964  0.7380 -0.0947
  140SAPE  H11R15274   4.229   2.755   9.467  1.2697  0.2883 -1.4305
  140SAPE  C21215275   4.196   2.836   9.275 -0.1290 -0.1038  1.1731
  140SAPE  H12R15276   4.295   2.821   9.229 -1.5167  0.6084 -2.3715
  140SAPE  C21315277   4.110   2.898   9.169 -0.6111 -0.3322 -0.1694
  140SAPE  H13R15278   4.172   2.973   9.116 -1.1405 -0.1790 -0.5827
  140SAPE  H13S15279   4.040   2.962   9.228  0.5597  0.8075  0.0268
  140SAPE  C21415280   4.052   2.789   9.084  1.1477 -0.2128 -0.2846
  140SAPE  H14R15281   3.993   2.722   9.147  0.9696  1.2332  1.1427
  140SAPE  C21515282   4.078   2.770   8.952  0.0521 -0.2764  0.7029
  140SAPE  H15R15283   4.022   2.687   8.906  0.2873 -1.0978  1.8455
  140SAPE  C21615284   4.151   2.862   8.854  0.2454 -1.5255 -1.0428
  140SAPE  H16R15285   4.201   2.940   8.915  0.0392 -2.6038  0.5660
  140SAPE  H16S15286   4.084   2.917   8.784  0.1480  0.0283  0.2146
  140SAPE  C21715287   4.253   2.792   8.763  0.4398 -0.5888 -0.1441
  140SAPE  H17R15288   4.200   2.712   8.707  1.5643 -1.3008 -0.2110
  140SAPE  H17S15289   4.327   2.741   8.828  0.9488  0.9537  0.5501
  140SAPE  C21815290   4.312   2.894   8.663 -0.4074 -0.4991  0.2103
  140SAPE  H18R15291   4.420   2.870   8.651  0.2438  0.5116  3.2630
  140SAPE  H18S15292   4.308   2.999   8.697  0.7335 -0.5084  0.4266
  140SAPE  C21915293   4.261   2.874   8.522 -0.3133 -0.3260  0.1649
  140SAPE  H19R15294   4.153   2.899   8.510 -0.4434 -1.6831 -2.4478
  140SAPE  H19S15295   4.270   2.765   8.503  0.9520 -0.3335  0.7701
  140SAPE  C22015296   4.343   2.966   8.436 -0.1241 -0.3907  0.0089
  140SAPE  H20R15297   4.337   3.071   8.472  1.9918 -0.0877 -0.4219
  140SAPE  H20S15298   4.328   2.966   8.326 -0.8181  0.9458  0.0812
  140SAPE  H20T15299   4.453   2.950   8.435 -0.1521 -0.9564 -2.5153
  140SAPE   C3315300   3.758   2.414   9.827 -0.3631 -0.8061  0.2097
  140SAPE   H3X15301   3.798   2.518   9.825 -0.2287 -0.8640 -0.2466
  140SAPE   H3Y15302   3.647   2.422   9.822 -0.1963  1.9211 -1.8921
  140SAPE   C3415303   3.809   2.352   9.695 -0.1004  0.6928 -0.5621
  140SAPE   H4X15304   3.753   2.260   9.669 -1.0618  0.8467  0.9110
  140SAPE   H4Y15305   3.915   2.319   9.705 -0.1249  0.9698  0.8295
  140SAPE   C3515306   3.806   2.450   9.587  0.0729 -0.1467 -0.0360
  140SAPE   H5X15307   3.861   2.539   9.625 -1.2988  0.3598  0.8024
  140SAPE   H5Y15308   3.702   2.481   9.565 -0.0953  0.5694  1.6460
  140SAPE   C3615309   3.874   2.401   9.459 -0.7758  0.8310  0.2910
  140SAPE   H6X15310   3.833   2.299   9.442 -0.0417  0.5200  0.3634
  140SAPE   H6Y15311   3.982   2.381   9.475 -0.8787 -1.0641 -0.9714
  140SAPE   C3715312   3.864   2.477   9.322 -0.3981 -1.2642  0.0265
  140SAPE   H7X15313   3.938   2.558   9.340 -0.3430 -1.0620 -1.0906
  140SAPE   H7Y15314   3.766   2.525   9.307  0.8796  1.2014 -0.9702
  140SAPE   C3815315   3.876   2.389   9.203  0.9840  0.5747  0.3616
  140SAPE   H8X15316   3.778   2.337   9.210 -0.0281  2.4631  0.9804
  140SAPE   H8Y15317   3.959   2.320   9.227  0.5042 -0.1947 -0.1445
  140SAPE   C3915318   3.881   2.455   9.066  0.9545 -0.5613 -0.8101
  140SAPE   H9X15319   3.986   2.445   9.029  1.2862  0.9272 -0.3423
  140SAPE   H9Y15320   3.850   2.562   9.075  0.7319 -0.4643 -2.3442
  140SAPE  C31015321   3.785   2.402   8.961 -0.3970  0.3089 -0.1468
  140SAPE  H10X15322   3.678   2.418   8.986  0.0185  2.1133  0.6511
  140SAPE  H10Y15323   3.793   2.291   8.955 -1.9871  0.2698 -3.4914
  140SAPE  C31115324   3.824   2.464   8.827  0.6782  0.6741  0.6272
  140SAPE  H11X15325   3.931   2.452   8.798  0.2795  3.1618 -2.4005
  140SAPE  H11Y15326   3.815   2.573   8.843  1.3184  0.9522 -0.7094
  140SAPE  C31215327   3.736   2.401   8.712 -0.3535  0.2169 -0.6461
  140SAPE  H12X15328   3.630   2.404   8.747 -0.1789 -1.2458  0.0814
  140SAPE  H12Y15329   3.767   2.295   8.697  2.4271  0.8257  0.1555
  140SAPE  C31315330   3.763   2.471   8.575  0.6282  0.1817 -0.6157
  140SAPE  H13X15331   3.871   2.498   8.571  1.6180 -2.3588  3.3313
  140SAPE  H13Y15332   3.706   2.566   8.579  0.7916  0.2303  1.6284
  140SAPE  C31415333   3.711   2.391   8.454  0.3068  0.1332  0.3468
  140SAPE  H14X15334   3.608   2.356   8.474  1.4295 -2.1789  2.8257
  140SAPE  H14Y15335   3.766   2.294   8.456  0.1048  0.0015 -0.2091
  140SAPE  C31515336   3.717   2.460   8.317 -0.3146  0.4402 -0.0445
  140SAPE  H15X15337   3.812   2.517   8.306 -0.2795  0.1150 -1.7626
  140SAPE  H15Y15338   3.635   2.535   8.315 -0.2570  0.4910 -1.9482
  140SAPE  C31615339   3.696   2.348   8.215 -0.2745 -0.3781  0.1765
  140SAPE  H16X15340   3.599   2.296   8.229  0.9122 -3.1032 -0.8677
  140SAPE  H16Y15341   3.775   2.269   8.214  1.4894  1.2927  0.3206
  140SAPE  C31715342   3.708   2.408   8.062  0.3778  0.2943 -0.2311
  140SAPE  H17X15343   3.801   2.469   8.054  0.4167  0.5174  1.5335
  140SAPE  H17Y15344   3.623   2.476   8.038  0.4030  0.6763  0.7276
  140SAPE  C31815345   3.698   2.299   7.957 -0.5302 -0.8370  0.8022
  140SAPE  H18X15346   3.805   2.269   7.945 -0.6020 -1.1270  0.8667
  140SAPE  H18Y15347   3.671   2.348   7.861  0.4828  2.6493  2.1556
  140SAPE  H18Z15348   3.639   2.211   7.992  0.5502 -2.6870 -1.7270
  141SAPE     N15349   4.541   5.009  10.484 -0.2544 -0.0179  0.1528
  141SAPE   HN115350   4.536   5.100  10.534 -1.0649 -0.3699  0.7350
  141SAPE   HN215351   4.571   5.019  10.385  1.4513 -1.9308  0.3953
  141SAPE   HN315352   4.446   4.966  10.481 -1.0596  1.6952 -0.0427
  141SAPE   C1215353   4.629   4.917  10.553 -0.4556  0.1014  0.2586
  141SAPE  H12A15354   4.729   4.958  10.528 -0.9384  0.9162 -0.3659
  141SAPE  H12B15355   4.611   4.811  10.523 -0.3417 -0.4793  2.0733
  141SAPE   C1115356   4.610   4.938  10.704  0.0433  0.1553 -0.5545
  141SAPE  H11A15357   4.653   5.037  10.729 -1.3373  0.4756  0.6491
  141SAPE  H11B15358   4.665   4.874  10.775 -1.3561  1.8644  2.2495
  141SAPE     P15359   4.393   4.803  10.745  0.4624  0.1241  0.2444
  141SAPE   O1315360   4.486   4.694  10.730  0.0639  0.7154  0.2700
  141SAPE   O1415361   4.294   4.792  10.857 -0.3253 -0.4299  0.1273
  141SAPE   O1215362   4.473   4.936  10.759  0.3885 -0.2817  0.0833
  141SAPE   O1115363   4.319   4.825  10.604 -0.2098  0.1990  0.4802
  141SAPE    C115364   4.235   4.723  10.549  0.0542  0.3154  0.1355
  141SAPE    HA15365   4.177   4.672  10.629  0.0745 -0.3206 -0.2450
  141SAPE    HB15366   4.158   4.780  10.492  0.9348  0.4714 -0.9296
  141SAPE    C215367   4.305   4.630  10.449 -0.2417  0.2782  0.0819
  141SAPE    HS15368   4.362   4.554  10.508 -0.0202 -0.2136 -0.7423
  141SAPE   O2115369   4.394   4.698  10.357 -0.1726 -0.1211  0.6292
  141SAPE   C2115370   4.490   4.622  10.305 -0.3710 -0.4446 -0.8399
  141SAPE   O2215371   4.513   4.515  10.346  0.0254  0.4118  0.3877
  141SAPE   C2215372   4.557   4.703  10.194  0.4351 -0.2993 -0.1180
  141SAPE   H2R15373   4.508   4.802  10.189  1.3637  0.1985  0.4310
  141SAPE   H2S15374   4.665   4.713  10.218  0.1442  3.5026  0.2211
  141SAPE    C315375   4.196   4.542  10.373 -0.0020 -0.5578 -0.3632
  141SAPE    HX15376   4.139   4.497  10.456  0.7501 -0.4111  0.2460
  141SAPE    HY15377   4.263   4.473  10.318  0.8859 -0.4280  0.5276
  141SAPE   O3115378   4.116   4.614  10.286  0.0326 -0.0713 -0.6723
  141SAPE   C3115379   4.035   4.531  10.223  0.9620  0.1162 -0.2177
  141SAPE   O3215380   4.034   4.412  10.220  0.3789 -0.0096  0.0479
  141SAPE   C3215381   3.933   4.613  10.141  0.6652 -0.4481  0.2415
  141SAPE   H2X15382   3.989   4.685  10.077 -0.1215 -0.3068 -0.3136
  141SAPE   H2Y15383   3.872   4.674  10.211 -1.1559  0.3220 -1.8723
  141SAPE   C2315384   4.540   4.646  10.050 -0.2482 -0.2583 -0.2869
  141SAPE   H3R15385   4.587   4.545  10.052  0.2981 -0.0069 -0.0043
  141SAPE   H3S15386   4.604   4.703   9.980 -0.8725  1.5130  0.5230
  141SAPE   C2415387   4.398   4.638   9.995 -0.2970  0.8403  0.8915
  141SAPE   H4R15388   4.329   4.577  10.056 -1.2507 -0.2197 -1.1359
  141SAPE   H4S15389   4.399   4.583   9.898 -0.5739  0.6275  1.0116
  141SAPE   C2515390   4.344   4.780   9.970 -0.7993  0.2112 -0.1924
  141SAPE   H5R15391   4.289   4.818  10.057 -1.6399 -0.6606 -0.3224
  141SAPE   C2615392   4.351   4.857   9.863  0.4769 -0.2782  0.6810
  141SAPE   H6R15393   4.296   4.953   9.869 -1.2823 -1.1659 -0.3603
  141SAPE   C2715394   4.417   4.820   9.730 -0.2723 -0.1218 -0.4699
  141SAPE   H7R15395   4.347   4.858   9.652 -0.6981 -1.7235 -0.8986
  141SAPE   H7S15396   4.410   4.711   9.709 -0.7020 -0.3996  0.9979
  141SAPE   C2815397   4.554   4.878   9.710 -0.0810  0.3862 -0.0458
  141SAPE   H8R15398   4.622   4.858   9.794 -0.7805 -0.4023  0.3603
  141SAPE   C2915399   4.596   4.946   9.607  0.8051 -0.1104  0.7675
  141SAPE   H9R15400   4.702   4.973   9.599  0.8166 -0.3384  0.0439
  141SAPE  C21015401   4.520   4.995   9.483 -0.2513 -0.4006 -0.1042
  141SAPE  H10R15402   4.540   5.104   9.479  0.7244 -0.5948 -3.7129
  141SAPE  H10S15403   4.410   4.981   9.487 -0.0678 -1.7201  1.6580
  141SAPE  C21115404   4.566   4.927   9.355  0.4431  1.1212 -0.9425
  141SAPE  H11R15405   4.543   4.820   9.353  0.6139  1.0836 -2.4913
  141SAPE  C21215406   4.630   4.974   9.247 -0.5019  0.1996  0.5972
  141SAPE  H12R15407   4.658   4.897   9.174  1.5999  0.7427  0.7906
  141SAPE  C21315408   4.676   5.118   9.219 -0.2259  0.3186  0.2420
  141SAPE  H13R15409   4.772   5.143   9.268 -0.4692 -0.1700  0.9885
  141SAPE  H13S15410   4.600   5.189   9.256 -1.6481 -1.7210  1.4719
  141SAPE  C21415411   4.697   5.135   9.069 -0.1140 -0.5775  0.0876
  141SAPE  H14R15412   4.612   5.187   9.022  0.2515 -1.9392 -2.2522
  141SAPE  C21515413   4.790   5.084   8.985 -1.1861 -0.5785 -0.7450
  141SAPE  H15R15414   4.773   5.088   8.877  2.4623  0.5699 -1.4264
  141SAPE  C21615415   4.912   5.002   9.023 -0.5510 -0.2141  0.6552
  141SAPE  H16R15416   4.912   4.900   8.980  1.8107  0.1881 -0.4756
  141SAPE  H16S15417   4.914   4.995   9.134 -2.0519  0.2180  0.7318
  141SAPE  C21715418   5.058   5.054   8.991 -0.4674 -0.2104  0.3567
  141SAPE  H17R15419   5.137   5.031   9.066 -0.9495  0.3638  1.0572
  141SAPE  H17S15420   5.059   5.166   8.990  1.3048 -0.2049 -0.2865
  141SAPE  C21815421   5.098   5.008   8.850  0.5238 -0.8537  0.5271
  141SAPE  H18R15422   5.009   5.038   8.791 -1.1491  0.2569  3.4327
  141SAPE  H18S15423   5.104   4.897   8.848  1.3616 -1.0023  4.3374
  141SAPE  C21915424   5.232   5.063   8.790 -0.6101  0.1681  0.7338
  141SAPE  H19R15425   5.319   5.053   8.858 -0.6777 -4.4084  0.4747
  141SAPE  H19S15426   5.215   5.171   8.768 -1.7202 -0.2709 -0.7211
  141SAPE  C22015427   5.272   5.010   8.657  0.3392 -0.6333 -0.9104
  141SAPE  H20R15428   5.314   4.907   8.663  2.1538  0.1663  1.3873
  141SAPE  H20S15429   5.348   5.072   8.605  0.9779 -0.8701 -0.2708
  141SAPE  H20T15430   5.187   4.985   8.589  0.7825 -0.6349 -1.4716
  141SAPE   C3315431   3.838   4.529  10.056  0.7704 -0.5565  0.0609
  141SAPE   H3X15432   3.787   4.451  10.116 -0.9076  0.8101  0.4856
  141SAPE   H3Y15433   3.887   4.473   9.974  1.7578 -0.4266  0.5441
  141SAPE   C3415434   3.726   4.616   9.994  0.8109  0.4120 -0.3155
  141SAPE   H4X15435   3.774   4.712   9.962 -0.0349  1.0041  0.1551
  141SAPE   H4Y15436   3.638   4.639  10.058  1.8462 -0.7313  1.6018
  141SAPE   C3515437   3.679   4.552   9.863 -0.5202  0.2189 -0.0826
  141SAPE   H5X15438   3.632   4.454   9.884 -0.6738  0.2196 -0.4178
  141SAPE   H5Y15439   3.767   4.530   9.799 -1.4663 -0.6298 -1.1506
  141SAPE   C3615440   3.587   4.629   9.771  0.2299 -0.0338 -0.0457
  141SAPE   H6X15441   3.641   4.725   9.751  2.3534 -0.3618  3.3602
  141SAPE   H6Y15442   3.497   4.658   9.828  1.3608  1.9054  0.8724
  141SAPE   C3715443   3.553   4.557   9.639  0.1664 -0.8437  0.5522
  141SAPE   H7X15444   3.500   4.463   9.665 -0.7542 -0.6028 -0.4211
  141SAPE   H7Y15445   3.624   4.523   9.561 -1.1240 -2.8144  0.1551
  141SAPE   C3815446   3.443   4.628   9.541  0.5985  0.1829  0.1268
  141SAPE   H8X15447   3.481   4.731   9.524 -2.1304  1.2292 -0.0970
  141SAPE   H8Y15448   3.343   4.630   9.590  0.6363 -0.0056  0.2138
  141SAPE   C3915449   3.428   4.549   9.413  0.0260  0.4199 -0.0380
  141SAPE   H9X15450   3.433   4.440   9.435 -1.7109 -0.0219 -1.6085
  141SAPE   H9Y15451   3.511   4.580   9.346 -0.4326  1.4218 -0.1599
  141SAPE  C31015452   3.297   4.593   9.349  0.0999 -0.7745  0.2190
  141SAPE  H10X15453   3.302   4.704   9.342 -1.5380 -0.6939  0.1159
  141SAPE  H10Y15454   3.218   4.564   9.421 -0.4148  0.6320  0.2438
  141SAPE  C31115455   3.283   4.531   9.205  0.4882 -0.6470 -0.2554
  141SAPE  H11X15456   3.296   4.421   9.209 -1.5419 -1.0548 -2.6337
  141SAPE  H11Y15457   3.363   4.565   9.136  0.3757 -0.4310 -0.2803
  141SAPE  C31215458   3.148   4.551   9.139  0.1788  0.3170  0.1629
  141SAPE  H12X15459   3.129   4.661   9.138 -0.0988  0.2703  0.3509
  141SAPE  H12Y15460   3.069   4.491   9.189  0.0245 -0.5286 -1.0512
  141SAPE  C31315461   3.155   4.500   8.990  0.2937 -0.4842 -0.1758
  141SAPE  H13X15462   3.193   4.396   8.976  0.1514 -0.4131 -1.1825
  141SAPE  H13Y15463   3.224   4.568   8.936  0.1831 -1.3147 -1.4130
  141SAPE  C31415464   3.017   4.514   8.926  0.1790 -0.2759  0.5992
  141SAPE  H14X15465   2.963   4.606   8.957  0.8281 -0.2294  1.6358
  141SAPE  H14Y15466   2.952   4.430   8.958 -0.9640  0.1054 -0.6273
  141SAPE  C31515467   3.020   4.522   8.768  0.2204 -0.1324 -0.0698
  141SAPE  H15X15468   2.916   4.501   8.735  0.4786 -0.2252 -0.8228
  141SAPE  H15Y15469   3.089   4.444   8.731 -1.5226 -1.8404  0.1538
  141SAPE  C31615470   3.051   4.671   8.717 -0.4275  0.1673 -0.4385
  141SAPE  H16X15471   3.151   4.683   8.763 -0.7330 -1.6658  0.8420
  141SAPE  H16Y15472   2.982   4.749   8.755  0.6147  1.0566 -0.3528
  141SAPE  C31715473   3.046   4.664   8.568  0.8457  0.5871  0.1677
  141SAPE  H17X15474   2.943   4.636   8.537 -0.3646  1.1376  3.3038
  141SAPE  H17Y15475   3.105   4.574   8.542 -1.3842 -1.1389  0.7546
  141SAPE  C31815476   3.092   4.795   8.506 -1.1359 -0.1258 -0.5015
  141SAPE  H18X15477   3.018   4.876   8.521 -0.9798  0.3807 -2.2414
  141SAPE  H18Y15478   3.112   4.779   8.398  1.7415  1.8324 -0.3656
  141SAPE  H18Z15479   3.184   4.823   8.561 -0.6060 -0.0091 -1.4355
  142SAPE     N15480   2.946   0.912  11.371 -0.5274  0.1136  0.4895
  142SAPE   HN115481   2.986   0.912  11.467  0.1971 -3.2831  0.3290
  142SAPE   HN215482   2.993   0.975  11.303  0.4078  1.1492  2.0476
  142SAPE   HN315483   2.842   0.913  11.370 -0.5937 -1.7405  1.0920
  142SAPE   C1215484   2.991   0.773  11.332 -0.2823 -0.7304  0.3433
  142SAPE  H12A15485   2.986   0.713  11.425  1.6209 -0.9507  0.3443
  142SAPE  H12B15486   3.101   0.775  11.318 -0.0815 -1.1144  1.7282
  142SAPE   C1115487   2.924   0.707  11.216  0.4239  0.6249 -0.4818
  142SAPE  H11A15488   2.815   0.691  11.234  0.8026 -0.0166  1.5679
  142SAPE  H11B15489   2.966   0.604  11.206 -2.3228 -0.5036 -1.3637
  142SAPE     P15490   2.869   0.897  11.029 -0.0057 -0.0691 -0.6670
  142SAPE   O1315491   2.806   0.972  11.132  0.6937 -0.3732 -0.6688
  142SAPE   O1415492   2.946   0.959  10.925 -0.2792 -0.1705  0.1362
  142SAPE   O1215493   2.957   0.782  11.104  0.1013 -0.1518 -0.3154
  142SAPE   O1115494   2.751   0.816  10.965  0.2622  0.3449 -0.5793
  142SAPE    C115495   2.775   0.687  10.908 -0.8295 -0.7740 -0.0031
  142SAPE    HA15496   2.824   0.626  10.987 -2.7088 -0.0105  1.8375
  142SAPE    HB15497   2.676   0.640  10.886 -2.3233  1.6625  1.0886
  142SAPE    C215498   2.851   0.671  10.778 -0.0091  0.1589 -0.4029
  142SAPE    HS15499   2.941   0.735  10.791 -0.9585  1.4290  0.1040
  142SAPE   O2115500   2.776   0.728  10.669  0.1439 -0.2579  0.4734
  142SAPE   C2115501   2.853   0.761  10.560  0.6919 -0.2626  0.3925
  142SAPE   O2215502   2.974   0.765  10.564 -0.1559  0.8624 -0.1089
  142SAPE   C2215503   2.766   0.815  10.453 -0.3989 -0.3811  0.2440
  142SAPE   H2R15504   2.702   0.730  10.420  0.0552 -1.0136  0.9735
  142SAPE   H2S15505   2.700   0.892  10.500  0.1669  1.2674 -1.5186
  142SAPE    C315506   2.895   0.522  10.759  0.0617 -0.2360 -0.2497
  142SAPE    HX15507   2.805   0.462  10.733 -0.1779  0.4683 -1.0727
  142SAPE    HY15508   2.937   0.488  10.856 -1.5121 -0.2533  0.4505
  142SAPE   O3115509   2.994   0.518  10.650  0.4613  0.3571  0.0297
  142SAPE   C3115510   2.997   0.409  10.572  0.3618  0.4569  0.2303
  142SAPE   O3215511   2.953   0.301  10.601 -0.2888  0.1416 -0.2069
  142SAPE   C3215512   3.081   0.440  10.454  0.7454  0.0224 -0.5175
  142SAPE   H2X15513   3.134   0.344  10.434 -0.6709 -1.2565  1.4153
  142SAPE   H2Y15514   3.163   0.512  10.476 -1.9303  3.5882 -1.2976
  142SAPE   C2315515   2.845   0.877  10.337  0.0888 -0.3912 -0.5892
  142SAPE   H3R15516   2.877   0.790  10.275  1.1683  0.3523 -1.1210
  142SAPE   H3S15517   2.930   0.924  10.391  0.6100 -0.1979 -1.5463
  142SAPE   C2415518   2.763   0.986  10.267  0.7546  0.0516  0.0680
  142SAPE   H4R15519   2.690   1.038  10.333 -1.0988 -2.0366 -0.2305
  142SAPE   H4S15520   2.702   0.929  10.194 -0.5317  1.3169  0.0966
  142SAPE   C2515521   2.842   1.095  10.200  0.7000  1.2959  0.4593
  142SAPE   H5R15522   2.906   1.155  10.266  1.9948  0.7800 -0.2978
  142SAPE   C2615523   2.846   1.126  10.064  0.4788  0.0264  0.1552
  142SAPE   H6R15524   2.919   1.197  10.023  1.4971 -0.5448  0.9321
  142SAPE   C2715525   2.767   1.053   9.957 -0.4126 -0.0540  0.2245
  142SAPE   H7R15526   2.718   1.129   9.893 -0.7864  0.2367  0.8465
  142SAPE   H7S15527   2.690   0.985   9.999 -0.1911 -0.4013  0.0737
  142SAPE   C2815528   2.854   0.953   9.879  1.0510 -0.3723  0.0400
  142SAPE   H8R15529   2.954   0.918   9.910  0.3215 -0.7417  2.1119
  142SAPE   C2915530   2.815   0.909   9.759  0.5278 -0.7369 -0.3818
  142SAPE   H9R15531   2.885   0.855   9.692  3.8072  0.3464  1.8980
  142SAPE  C21015532   2.680   0.937   9.701  0.2130 -0.1814 -0.0362
  142SAPE  H10R15533   2.690   1.041   9.665  1.3452 -0.2995 -0.1002
  142SAPE  H10S15534   2.596   0.925   9.773  0.2105 -3.0331 -0.3715
  142SAPE  C21115535   2.665   0.850   9.580  0.0122 -0.1902  0.9420
  142SAPE  H11R15536   2.645   0.745   9.605 -0.7524 -0.3434 -0.2071
  142SAPE  C21215537   2.655   0.869   9.446 -0.0082  0.8173  0.1006
  142SAPE  H12R15538   2.640   0.785   9.376 -1.9939  1.3910 -0.2308
  142SAPE  C21315539   2.657   1.009   9.380  0.3286 -0.3605 -0.3604
  142SAPE  H13R15540   2.596   1.078   9.442  1.7020 -0.8610  1.6525
  142SAPE  H13S15541   2.600   1.019   9.285 -0.0465  1.6318  0.0247
  142SAPE  C21415542   2.794   1.049   9.357 -0.2620 -0.3027  0.5752
  142SAPE  H14R15543   2.869   1.000   9.421  0.7377  1.0460  0.4925
  142SAPE  C21515544   2.832   1.148   9.261  0.1637  0.3345 -0.0839
  142SAPE  H15R15545   2.938   1.180   9.258  1.1576 -2.4935  1.0294
  142SAPE  C21615546   2.732   1.230   9.181 -0.0119  0.2922 -0.0056
  142SAPE  H16R15547   2.750   1.339   9.197 -1.4238  0.2883  1.9876
  142SAPE  H16S15548   2.625   1.222   9.211  0.7535 -1.1290  2.7114
  142SAPE  C21715549   2.747   1.202   9.033 -0.6578 -0.4036  0.2958
  142SAPE  H17R15550   2.732   1.098   8.997  1.3317  0.5584 -4.0431
  142SAPE  H17S15551   2.855   1.215   9.009 -0.2806 -0.4452  1.8413
  142SAPE  C21815552   2.672   1.299   8.949  0.1498 -0.5544  0.3999
  142SAPE  H18R15553   2.712   1.276   8.848 -0.0925  0.1008  0.1518
  142SAPE  H18S15554   2.701   1.404   8.968  3.0716 -0.7526 -2.1816
  142SAPE  C21915555   2.523   1.275   8.945  0.0752  0.1353  0.7749
  142SAPE  H19R15556   2.488   1.275   9.051 -0.5858 -0.0863  0.5573
  142SAPE  H19S15557   2.509   1.173   8.904  1.0579 -0.0989  0.9788
  142SAPE  C22015558   2.428   1.372   8.867  0.2400 -0.0864  1.2131
  142SAPE  H20R15559   2.326   1.337   8.842 -0.0974  1.5518  0.1645
  142SAPE  H20S15560   2.473   1.391   8.768 -1.8878 -1.0445  0.0017
  142SAPE  H20T15561   2.418   1.463   8.930 -0.0254  1.1437 -0.5604
  142SAPE   C3315562   2.999   0.486  10.337  0.2934 -0.1844  0.2100
  142SAPE   H3X15563   2.974   0.594  10.340 -3.0243 -0.8473  0.3532
  142SAPE   H3Y15564   2.901   0.435  10.337  0.1811 -0.0052 -0.8132
  142SAPE   C3415565   3.070   0.452  10.206  0.0859 -0.8224  0.3576
  142SAPE   H4X15566   3.100   0.346  10.198  1.3352 -0.4208 -0.5961
  142SAPE   H4Y15567   3.170   0.501  10.206 -0.2090 -0.1974  1.1017
  142SAPE   C3515568   2.981   0.499  10.091 -0.7342 -0.5528 -0.4424
  142SAPE   H5X15569   2.963   0.609  10.088 -0.8659 -0.5713 -0.3474
  142SAPE   H5Y15570   2.876   0.464  10.103  0.1573 -2.8894  1.3151
  142SAPE   C3615571   3.038   0.450   9.957 -0.9850  0.8171 -0.5197
  142SAPE   H6X15572   3.051   0.339   9.952  0.6773  1.0084 -1.4423
  142SAPE   H6Y15573   3.142   0.488   9.958  0.4043 -2.6047  1.2950
  142SAPE   C3715574   2.964   0.497   9.832 -0.3536  0.5376 -0.3955
  142SAPE   H7X15575   2.996   0.602   9.817 -0.9704  0.8256  0.2474
  142SAPE   H7Y15576   2.855   0.480   9.848  0.1490 -3.1249  0.0693
  142SAPE   C3815577   3.012   0.419   9.712  0.4342  0.3733  0.1838
  142SAPE   H8X15578   3.005   0.309   9.731 -1.2214  0.2965 -0.6377
  142SAPE   H8Y15579   3.121   0.432   9.697  0.4470  0.5272  0.4113
  142SAPE   C3915580   2.947   0.455   9.584  0.9404 -0.1642 -0.0439
  142SAPE   H9X15581   2.973   0.556   9.544 -2.0026  1.3342  1.4953
  142SAPE   H9Y15582   2.836   0.449   9.592  0.7784  0.3077 -1.5407
  142SAPE  C31015583   2.987   0.352   9.476 -0.3080 -0.7784  0.0212
  142SAPE  H10X15584   2.942   0.256   9.511 -2.9428 -0.5694 -2.4174
  142SAPE  H10Y15585   3.097   0.342   9.473  0.0219  1.7106  1.4673
  142SAPE  C31115586   2.925   0.373   9.336 -0.0889 -0.6344  0.5085
  142SAPE  H11X15587   2.938   0.478   9.300 -1.9587  0.1644  1.9773
  142SAPE  H11Y15588   2.814   0.366   9.334 -0.1740 -0.9611 -3.7552
  142SAPE  C31215589   3.001   0.292   9.230  0.1181 -0.1186 -0.2549
  142SAPE  H12X15590   3.001   0.189   9.270 -1.2897 -0.6298 -1.4505
  142SAPE  H12Y15591   3.102   0.337   9.235 -0.5499  1.5281 -0.8139
  142SAPE  C31315592   2.949   0.327   9.089  1.0632 -0.2087 -0.5356
  142SAPE  H13X15593   2.857   0.390   9.092  1.0396 -0.2223 -0.9090
  142SAPE  H13Y15594   2.917   0.237   9.033 -0.8891 -0.0976  0.2905
  142SAPE  C31415595   3.047   0.409   9.008 -0.0223 -0.1564 -0.1787
  142SAPE  H14X15596   3.145   0.359   9.024  1.3697  2.0386 -1.4473
  142SAPE  H14Y15597   3.060   0.514   9.040 -0.6644  0.0082 -0.4596
  142SAPE  C31515598   3.008   0.404   8.870 -0.2186 -0.1076  0.2602
  142SAPE  H15X15599   2.899   0.422   8.858  0.2954  2.4825 -1.2635
  142SAPE  H15Y15600   3.024   0.301   8.829 -0.7697  0.8925 -2.7494
  142SAPE  C31615601   3.078   0.498   8.777  0.2443  0.6525 -0.4186
  142SAPE  H16X15602   3.187   0.504   8.801  0.2081 -0.1781 -0.0085
  142SAPE  H16Y15603   3.033   0.599   8.779  2.5776  1.9608  5.0064
  142SAPE  C31715604   3.060   0.461   8.628  0.8224  0.1504  0.7023
  142SAPE  H17X15605   2.971   0.512   8.586  2.1591  1.6488 -0.3952
  142SAPE  H17Y15606   3.023   0.356   8.622 -1.5564  0.7084  3.2968
  142SAPE  C31815607   3.182   0.483   8.549 -0.0031 -0.6145  0.5084
  142SAPE  H18X15608   3.275   0.465   8.607  0.3221 -1.1596 -0.1665
  142SAPE  H18Y15609   3.183   0.590   8.519  0.4617 -0.2797  1.6692
  142SAPE  H18Z15610   3.180   0.423   8.455 -0.8079  0.2749 -0.0553
  143SAPE     N15611   4.572   2.508  10.693 -0.5048 -0.0353 -0.2187
  143SAPE   HN115612   4.562   2.609  10.717 -1.4162 -0.5091  1.5397
  143SAPE   HN215613   4.499   2.492  10.621 -0.8920  3.5668 -0.7988
  143SAPE   HN315614   4.549   2.441  10.769 -1.5754 -0.2175 -0.6859
  143SAPE   C1215615   4.706   2.484  10.628  0.5887 -0.1823  0.3537
  143SAPE  H12A15616   4.712   2.558  10.546  0.9859 -0.8661 -0.2401
  143SAPE  H12B15617   4.709   2.383  10.583  0.2433  0.1174 -0.3519
  143SAPE   C1115618   4.814   2.512  10.731 -0.3503  0.2939  0.3524
  143SAPE  H11A15619   4.813   2.622  10.748 -0.1383  0.6598 -1.7459
  143SAPE  H11B15620   4.905   2.487  10.673 -0.2091 -0.6512  0.9520
  143SAPE     P15621   4.906   2.351  10.929 -0.1041 -0.4047  0.4434
  143SAPE   O1315622   4.984   2.440  11.013 -0.2281  0.1337 -0.0605
  143SAPE   O1415623   4.845   2.235  10.999  0.0935 -0.0224  0.4751
  143SAPE   O1215624   4.793   2.432  10.850  0.4900  0.7520  0.7520
  143SAPE   O1115625   5.003   2.297  10.819  0.2489 -0.1952 -0.1017
  143SAPE    C115626   4.972   2.197  10.722  0.3955  0.4428 -0.0693
  143SAPE    HA15627   4.985   2.096  10.768 -0.3568 -0.0224 -0.8348
  143SAPE    HB15628   4.868   2.210  10.685  0.6721  0.9209 -0.6967
  143SAPE    C215629   5.059   2.186  10.598  0.3668 -0.1373  0.4810
  143SAPE    HS15630   5.154   2.137  10.629  1.0377  0.6241 -0.3100
  143SAPE   O2115631   5.099   2.313  10.543  0.1244  0.3247 -0.6983
  143SAPE   C2115632   5.214   2.315  10.476 -0.7315 -0.3933 -0.0222
  143SAPE   O2215633   5.286   2.222  10.447 -0.2366 -0.3236  0.3272
  143SAPE   C2215634   5.250   2.453  10.432 -0.3739 -0.0195 -0.1325
  143SAPE   H2R15635   5.165   2.524  10.427  0.7732  1.3293 -1.8246
  143SAPE   H2S15636   5.331   2.497  10.494  0.7880 -0.0577 -1.5457
  143SAPE    C315637   5.000   2.090  10.485 -1.2515 -0.2588  0.4416
  143SAPE    HX15638   4.984   1.994  10.538  0.1215 -0.4680  0.5119
  143SAPE    HY15639   5.084   2.076  10.413 -2.4944 -0.8093 -0.9521
  143SAPE   O3115640   4.884   2.142  10.423  0.2866 -0.6814 -0.3543
  143SAPE   C3115641   4.856   2.085  10.306  0.5414  0.7309 -1.0101
  143SAPE   O3215642   4.922   1.994  10.257  0.7300 -0.7484  0.0199
  143SAPE   C3215643   4.723   2.132  10.249 -0.1481 -0.2063 -0.4418
  143SAPE   H2X15644   4.653   2.179  10.322 -1.3757 -1.8574 -0.5051
  143SAPE   H2Y15645   4.674   2.036  10.222  0.0433 -0.2099 -0.7798
  143SAPE   C2315646   5.319   2.446  10.280 -0.6014  0.3182  0.0248
  143SAPE   H3R15647   5.413   2.386  10.274 -1.0092 -0.2382 -1.0002
  143SAPE   H3S15648   5.352   2.551  10.265 -0.2346 -0.1816 -3.5775
  143SAPE   C2415649   5.220   2.414  10.173  0.4425 -0.3162  0.2842
  143SAPE   H4R15650   5.169   2.321  10.205 -0.3268 -0.1986 -0.5609
  143SAPE   H4S15651   5.272   2.395  10.076 -1.8174 -0.5233 -0.9395
  143SAPE   C2515652   5.094   2.502  10.159  0.3089 -0.0173  0.0317
  143SAPE   H5R15653   5.015   2.502  10.235  0.0213  0.3415 -0.2576
  143SAPE   C2615654   5.061   2.572  10.047  0.4688  0.9286  0.2796
  143SAPE   H6R15655   4.991   2.655  10.033  0.1527  0.2426 -3.0185
  143SAPE   C2715656   5.141   2.575   9.920 -0.1394  0.0799  0.5049
  143SAPE   H7R15657   5.250   2.580   9.941 -0.2288 -0.9850  1.3351
  143SAPE   H7S15658   5.118   2.670   9.866 -0.1033  0.0699  0.4723
  143SAPE   C2815659   5.110   2.462   9.820 -0.6183  0.4473 -0.2889
  143SAPE   H8R15660   5.051   2.378   9.860 -1.0835 -0.0977 -2.0198
  143SAPE   C2915661   5.142   2.460   9.693 -0.0525  0.2655  0.1902
  143SAPE   H9R15662   5.106   2.373   9.636  1.5433 -1.5086  1.7493
  143SAPE  C21015663   5.218   2.556   9.607  0.0474  0.4740 -0.1094
  143SAPE  H10R15664   5.268   2.514   9.517 -0.5157 -3.0030  1.0364
  143SAPE  H10S15665   5.298   2.598   9.671  1.3823 -1.1581 -0.6180
  143SAPE  C21115666   5.115   2.659   9.561  0.1567  0.2796 -0.2368
  143SAPE  H11R15667   5.050   2.714   9.629  0.6163  2.8398 -1.7410
  143SAPE  C21215668   5.089   2.692   9.434  0.6245  1.0819  0.3408
  143SAPE  H12R15669   5.028   2.784   9.430  0.0370  0.6695 -0.4194
  143SAPE  C21315670   5.136   2.623   9.307 -0.2944 -0.0714 -0.1236
  143SAPE  H13R15671   5.091   2.521   9.307 -1.5579  0.4693  0.6291
  143SAPE  H13S15672   5.246   2.610   9.298 -0.0974  0.8574  0.7640
  143SAPE  C21415673   5.063   2.695   9.197  0.2919 -0.3418 -0.3768
  143SAPE  H14R15674   4.954   2.710   9.204 -0.2212 -2.6875 -2.2379
  143SAPE  C21515675   5.115   2.723   9.076 -1.0560  0.6711  0.6552
  143SAPE  H15R15676   5.048   2.777   9.006 -2.1051 -1.1398  0.1873
  143SAPE  C21615677   5.256   2.682   9.034  0.1098  0.1543  0.1807
  143SAPE  H16R15678   5.251   2.575   9.006  0.3088  0.3957 -0.8126
  143SAPE  H16S15679   5.328   2.701   9.117  0.9997 -0.0149 -0.5386
  143SAPE  C21715680   5.296   2.759   8.907  0.0116 -0.5382  0.5712
  143SAPE  H17R15681   5.297   2.867   8.933  0.4853  0.0051 -1.4677
  143SAPE  H17S15682   5.232   2.734   8.820  2.0173 -0.0859 -1.1245
  143SAPE  C21815683   5.442   2.727   8.861  0.7764 -0.6400 -0.5222
  143SAPE  H18R15684   5.473   2.773   8.764  3.4972 -0.9561  0.1053
  143SAPE  H18S15685   5.451   2.617   8.852  1.3138 -0.7788  1.3178
  143SAPE  C21915686   5.545   2.768   8.969  0.5591  0.2715 -0.1719
  143SAPE  H19R15687   5.509   2.729   9.066 -2.5069 -0.4025 -1.4532
  143SAPE  H19S15688   5.546   2.878   8.983  3.8888  0.4730 -1.0926
  143SAPE  C22015689   5.687   2.722   8.945  0.0993 -0.0857 -0.4366
  143SAPE  H20R15690   5.690   2.620   8.900 -1.6018  1.1399 -3.7094
  143SAPE  H20S15691   5.734   2.716   9.045 -0.9834  0.2796  0.1108
  143SAPE  H20T15692   5.744   2.793   8.881 -0.1795 -0.6539 -1.3418
  143SAPE   C3315693   4.745   2.225  10.125 -0.3018 -0.2668  0.1449
  143SAPE   H3X15694   4.795   2.321  10.150 -1.3021  0.5645 -0.9343
  143SAPE   H3Y15695   4.640   2.255  10.106 -0.7586 -0.0350  2.6928
  143SAPE   C3415696   4.802   2.152  10.004  0.5408  0.0111  0.2557
  143SAPE   H4X15697   4.744   2.058  10.000 -0.1506  0.3662  1.3375
  143SAPE   H4Y15698   4.912   2.152  10.016  0.6173  1.2076 -0.2659
  143SAPE   C3515699   4.789   2.235   9.874 -0.1227  0.1213 -0.3711
  143SAPE   H5X15700   4.808   2.343   9.887 -1.7844  0.6804 -2.1044
  143SAPE   H5Y15701   4.687   2.239   9.831  0.9252  2.2431 -2.9270
  143SAPE   C3615702   4.873   2.169   9.762  0.4818 -0.0535  0.0761
  143SAPE   H6X15703   4.868   2.058   9.767 -1.4309  0.0163  0.2875
  143SAPE   H6Y15704   4.979   2.196   9.780  0.2406  2.7376 -2.0223
  143SAPE   C3715705   4.827   2.198   9.621 -0.2305 -0.0496 -0.0563
  143SAPE   H7X15706   4.732   2.147   9.594  1.3841 -1.7035 -3.2037
  143SAPE   H7Y15707   4.891   2.146   9.547 -0.7405  0.2098 -0.6971
  143SAPE   C3815708   4.816   2.348   9.593 -0.4087 -0.0315 -0.2608
  143SAPE   H8X15709   4.896   2.400   9.650 -0.6326  0.0698 -0.0359
  143SAPE   H8Y15710   4.723   2.390   9.638 -0.5974  0.4078 -1.0409
  143SAPE   C3915711   4.836   2.391   9.445 -0.1835 -0.3131  0.1834
  143SAPE   H9X15712   4.936   2.354   9.414  0.3612  0.5686  0.8214
  143SAPE   H9Y15713   4.842   2.501   9.435  1.4207 -0.4047 -0.2299
  143SAPE  C31015714   4.722   2.350   9.354 -0.0533 -0.0486  0.3440
  143SAPE  H10X15715   4.635   2.413   9.381  0.5276  0.7054  0.4815
  143SAPE  H10Y15716   4.701   2.242   9.370  0.8801 -0.1861  0.7498
  143SAPE  C31115717   4.761   2.361   9.201 -0.2523 -0.3824 -0.1773
  143SAPE  H11X15718   4.780   2.471   9.192 -0.1877 -0.3371  0.5082
  143SAPE  H11Y15719   4.670   2.335   9.143 -0.4156  0.1274 -0.1577
  143SAPE  C31215720   4.875   2.268   9.157  0.0472 -0.6147  0.3203
  143SAPE  H12X15721   4.826   2.170   9.178  0.6802 -1.7074 -2.7923
  143SAPE  H12Y15722   4.961   2.277   9.227 -0.6720 -0.4085  1.2101
  143SAPE  C31315723   4.911   2.274   9.007  0.4187 -0.0746 -0.7063
  143SAPE  H13X15724   4.814   2.255   8.956 -0.0960  1.5901 -0.4296
  143SAPE  H13Y15725   4.975   2.185   8.992 -0.0340 -0.6240  0.4744
  143SAPE  C31415726   4.979   2.413   8.966  0.8527 -0.1760 -0.6261
  143SAPE  H14X15727   5.070   2.429   9.027 -2.2021  1.5354  4.0154
  143SAPE  H14Y15728   4.911   2.499   8.986 -0.7253 -1.3660 -0.6354
  143SAPE  C31515729   5.031   2.415   8.825 -1.1041 -0.5772  0.5061
  143SAPE  H15X15730   5.085   2.321   8.802 -0.5853  0.0678 -1.0239
  143SAPE  H15Y15731   5.092   2.506   8.807 -0.1793 -1.4216 -0.8246
  143SAPE  C31615732   4.912   2.422   8.724 -0.2097  0.1412  0.5939
  143SAPE  H16X15733   4.847   2.506   8.756 -0.4556  0.5534 -0.8945
  143SAPE  H16Y15734   4.857   2.325   8.726 -0.5921  0.2544 -1.6232
  143SAPE  C31715735   4.953   2.440   8.579 -0.0175  0.4388  0.4446
  143SAPE  H17X15736   5.009   2.353   8.539 -1.1693  0.4330 -1.2908
  143SAPE  H17Y15737   5.028   2.521   8.567  0.7708 -0.3329  0.0646
  143SAPE  C31815738   4.834   2.478   8.485  0.2070 -0.1920  0.8936
  143SAPE  H18X15739   4.813   2.584   8.509  1.6918  0.2584  0.2871
  143SAPE  H18Y15740   4.744   2.415   8.507 -0.2011  0.1525  0.2404
  143SAPE  H18Z15741   4.866   2.463   8.380  0.1199  1.2805  0.6343
  144SAPE     N15742   3.019   0.078  10.763  0.3658  0.3308 -0.1073
  144SAPE   HN115743   3.053  -0.020  10.772 -0.8291 -0.1621 -0.6849
  144SAPE   HN215744   2.925   0.069  10.719  0.4050  1.1779 -0.3837
  144SAPE   HN315745   3.090   0.128  10.706  0.6923 -1.2057 -1.1069
  144SAPE   C1215746   3.013   0.143  10.902  0.4864 -0.1602 -0.1296
  144SAPE  H12A15747   2.988   0.251  10.891 -0.5019 -0.2492  1.0967
  144SAPE  H12B15748   3.113   0.130  10.949  0.3480 -0.4881  0.0775
  144SAPE   C1115749   2.895   0.085  10.980 -0.0796 -0.2526  1.0977
  144SAPE  H11A15750   2.897   0.134  11.080 -2.2867  0.1378  0.9854
  144SAPE  H11B15751   2.899  -0.026  10.985 -0.0541 -0.2314  1.5931
  144SAPE     P15752   2.679   0.228  10.969 -0.2576  0.1715 -0.2265
  144SAPE   O1315753   2.577   0.167  11.062 -0.2510 -0.1148 -0.0448
  144SAPE   O1415754   2.765   0.339  11.019  0.2331  0.0532 -0.3502
  144SAPE   O1215755   2.777   0.118  10.911  0.1473 -0.4779  0.6845
  144SAPE   O1115756   2.588   0.277  10.842  0.1162 -0.1702  0.1932
  144SAPE    C115757   2.534   0.170  10.765  0.4511 -0.6003 -0.2477
  144SAPE    HA15758   2.615   0.114  10.713  1.6268  0.3746  0.4710
  144SAPE    HB15759   2.470   0.101  10.824  0.6348 -0.1242  0.5200
  144SAPE    C215760   2.460   0.242  10.650  0.6227 -0.1551 -0.3895
  144SAPE    HS15761   2.366   0.291  10.686 -1.4501 -1.9312 -3.0143
  144SAPE   O2115762   2.422   0.139  10.554 -0.1636 -0.7080  0.0363
  144SAPE   C2115763   2.295   0.141  10.521 -0.3928  0.2340  0.0320
  144SAPE   O2215764   2.209   0.211  10.573  0.2308 -0.4185  0.4064
  144SAPE   C2215765   2.267   0.032  10.414 -0.2741 -0.0010 -0.6759
  144SAPE   H2R15766   2.297  -0.064  10.461 -1.2943 -0.8353 -1.6902
  144SAPE   H2S15767   2.159   0.025  10.392 -0.1175 -0.2515 -1.3944
  144SAPE    C315768   2.547   0.357  10.591 -0.1084  0.0891 -0.4899
  144SAPE    HX15769   2.648   0.313  10.601  1.0694  2.7674  0.0726
  144SAPE    HY15770   2.532   0.444  10.659 -1.5669 -1.9540  2.0028
  144SAPE   O3115771   2.496   0.383  10.458 -0.2249 -0.4299 -0.4516
  144SAPE   C3115772   2.589   0.453  10.384 -0.0555 -0.0379 -0.6474
  144SAPE   O3215773   2.688   0.499  10.431 -0.1231  0.6329 -0.1600
  144SAPE   C3215774   2.540   0.468  10.240  0.4384 -0.0493  0.3891
  144SAPE   H2X15775   2.429   0.466  10.234  0.3747 -0.9272  1.6610
  144SAPE   H2Y15776   2.576   0.377  10.187 -1.5204 -1.7858  1.8820
  144SAPE   C2315777   2.339   0.044  10.282 -0.6910 -0.4891  0.0561
  144SAPE   H3R15778   2.449   0.030  10.287 -0.7473 -1.7728 -1.4694
  144SAPE   H3S15779   2.323   0.149  10.249  0.7337 -0.2372  0.1015
  144SAPE   C2415780   2.306  -0.063  10.170 -0.3283 -0.5968  0.1037
  144SAPE   H4R15781   2.198  -0.087  10.157 -0.8037  2.1206 -1.8749
  144SAPE   H4S15782   2.343  -0.157  10.215  0.1911 -0.0515  0.8579
  144SAPE   C2515783   2.384  -0.035  10.038 -0.3133 -0.0827  0.4044
  144SAPE   H5R15784   2.493  -0.045  10.038 -0.3308 -0.5963 -1.1421
  144SAPE   C2615785   2.328   0.011   9.922  0.5411 -0.5846 -0.1431
  144SAPE   H6R15786   2.392   0.022   9.833  0.9669  1.0712  0.3438
  144SAPE   C2715787   2.182   0.040   9.900 -0.1815 -0.3822  0.1080
  144SAPE   H7R15788   2.115   0.001   9.979 -0.6651  0.1533 -0.0344
  144SAPE   H7S15789   2.150  -0.013   9.807 -0.8484  1.3238 -0.6798
  144SAPE   C2815790   2.154   0.190   9.889 -0.3962  0.2207 -0.4472
  144SAPE   H8R15791   2.199   0.235   9.979  1.7874 -1.0893 -0.8163
  144SAPE   C2915792   2.095   0.267   9.793  0.2460 -0.3944  0.2862
  144SAPE   H9R15793   2.112   0.375   9.799  0.2903 -0.0739 -3.3398
  144SAPE  C21015794   2.037   0.216   9.662 -0.2075 -0.3430 -0.5046
  144SAPE  H10R15795   2.028   0.106   9.668  1.6935 -0.5373 -0.6479
  144SAPE  H10S15796   2.116   0.251   9.593 -0.3138  2.8064  0.7948
  144SAPE  C21115797   1.903   0.274   9.634  1.0171 -0.2314  0.1059
  144SAPE  H11R15798   1.819   0.216   9.675  3.5029 -1.9860  3.0705
  144SAPE  C21215799   1.875   0.394   9.575 -0.3286  0.8580 -0.4021
  144SAPE  H12R15800   1.767   0.417   9.578 -1.2515 -2.8165 -0.3811
  144SAPE  C21315801   1.978   0.487   9.509  0.9358 -0.6995 -0.1426
  144SAPE  H13R15802   2.067   0.433   9.472  1.7482 -2.6283  4.0283
  144SAPE  H13S15803   2.014   0.547   9.596 -0.3321 -1.2029  0.7688
  144SAPE  C21415804   1.906   0.579   9.407 -0.7058 -0.9494 -0.1361
  144SAPE  H14R15805   1.819   0.637   9.442  0.0802  0.5650 -0.5874
  144SAPE  C21515806   1.957   0.608   9.284  0.4065  0.2358  0.4281
  144SAPE  H15R15807   1.892   0.661   9.214 -0.7294 -2.6958 -0.9131
  144SAPE  C21615808   2.083   0.547   9.225 -1.0753 -0.0257  0.6025
  144SAPE  H16R15809   2.137   0.474   9.288 -2.6482 -1.9445 -0.1729
  144SAPE  H16S15810   2.155   0.631   9.217 -1.1738 -0.0268 -0.4417
  144SAPE  C21715811   2.046   0.488   9.089  0.7552  0.0891 -0.4705
  144SAPE  H17R15812   1.999   0.571   9.031  2.0075  0.7317 -0.6028
  144SAPE  H17S15813   1.968   0.410   9.100  0.3651  0.1229 -2.6833
  144SAPE  C21815814   2.164   0.435   9.007  0.1989  0.6607 -0.5233
  144SAPE  H18R15815   2.204   0.352   9.069 -2.9533 -0.3255  0.3731
  144SAPE  H18S15816   2.245   0.511   9.002 -0.1767  1.0529 -0.7023
  144SAPE  C21915817   2.123   0.382   8.869 -0.0886 -0.5927 -0.3857
  144SAPE  H19R15818   2.078   0.472   8.822 -2.5026 -1.1900  0.5840
  144SAPE  H19S15819   2.034   0.315   8.874  1.2242 -2.3415  0.7329
  144SAPE  C22015820   2.244   0.335   8.783  0.3741  0.5133 -0.0006
  144SAPE  H20R15821   2.323   0.413   8.784  1.6375 -0.7412  0.0193
  144SAPE  H20S15822   2.190   0.320   8.687 -1.4717  1.4574  0.8349
  144SAPE  H20T15823   2.288   0.241   8.821  1.1071  0.4906 -0.8908
  144SAPE   C3315824   2.591   0.586  10.154 -0.5393  0.1801 -0.2907
  144SAPE   H3X15825   2.701   0.573  10.145 -0.3526  2.3436 -1.8995
  144SAPE   H3Y15826   2.571   0.680  10.210 -0.3562  0.1267 -0.1315
  144SAPE   C3415827   2.537   0.597  10.013  0.3191  0.2604 -0.1151
  144SAPE   H4X15828   2.598   0.672   9.959  1.1596  0.6475  1.3097
  144SAPE   H4Y15829   2.431   0.628  10.012 -0.0718 -0.8510  1.7781
  144SAPE   C3515830   2.536   0.456   9.939 -0.0926 -0.2008  0.4032
  144SAPE   H5X15831   2.447   0.398   9.972 -0.3218 -1.9700 -2.9673
  144SAPE   H5Y15832   2.627   0.397   9.958 -0.6232 -1.2382 -0.2217
  144SAPE   C3615833   2.516   0.485   9.789  0.6598 -0.3592 -0.5409
  144SAPE   H6X15834   2.606   0.530   9.742 -0.1596 -0.4058 -2.2386
  144SAPE   H6Y15835   2.434   0.559   9.778 -1.2253 -2.2044  0.4578
  144SAPE   C3715836   2.473   0.360   9.709 -0.5115  0.6607  0.4358
  144SAPE   H7X15837   2.381   0.310   9.746 -1.1064  2.1181  0.9969
  144SAPE   H7Y15838   2.559   0.290   9.717  1.3733  3.0742  4.1262
  144SAPE   C3815839   2.437   0.393   9.563  0.0980 -0.1497  0.7589
  144SAPE   H8X15840   2.344   0.454   9.570  0.6132  0.7309  0.0287
  144SAPE   H8Y15841   2.405   0.301   9.509  1.6432 -0.4388  0.2846
  144SAPE   C3915842   2.550   0.443   9.470  0.1394  0.0567  1.1046
  144SAPE   H9X15843   2.646   0.387   9.472  1.0355  1.3998 -0.5446
  144SAPE   H9Y15844   2.579   0.546   9.502  3.1810 -0.8583  1.6882
  144SAPE  C31015845   2.511   0.448   9.317  0.9419 -0.0456  0.1869
  144SAPE  H10X15846   2.403   0.468   9.308  1.4590  2.3203 -1.4326
  144SAPE  H10Y15847   2.530   0.344   9.280  2.0522  0.6957 -1.4529
  144SAPE  C31115848   2.600   0.542   9.232  0.1081  0.4442 -1.0525
  144SAPE  H11X15849   2.701   0.529   9.277 -0.7857  0.0725  0.9851
  144SAPE  H11Y15850   2.563   0.646   9.242 -0.8655  0.2963 -2.8257
  144SAPE  C31215851   2.609   0.504   9.086 -0.0821 -0.8013  0.2102
  144SAPE  H12X15852   2.510   0.503   9.036  0.9660 -1.1717 -1.9787
  144SAPE  H12Y15853   2.653   0.403   9.079  1.2683 -0.1415 -1.4027
  144SAPE  C31315854   2.696   0.591   9.008  0.3610 -0.2391  0.5074
  144SAPE  H13X15855   2.757   0.533   8.937  0.9351  1.5822 -0.5588
  144SAPE  H13Y15856   2.771   0.633   9.078 -0.6070  0.0786  1.3990
  144SAPE  C31415857   2.623   0.699   8.930 -0.2682 -0.2086  0.1945
  144SAPE  H14X15858   2.558   0.758   8.998  1.4576 -0.4303  2.1626
  144SAPE  H14Y15859   2.562   0.638   8.861  1.0585 -1.7391  0.3091
  144SAPE  C31515860   2.714   0.786   8.841 -0.8638 -0.4121  0.3630
  144SAPE  H15X15861   2.778   0.726   8.772  1.8788  2.1349  0.5027
  144SAPE  H15Y15862   2.792   0.844   8.894 -2.2190 -0.2467  2.2551
  144SAPE  C31615863   2.642   0.895   8.768 -0.6024 -0.4809 -0.3256
  144SAPE  H16X15864   2.610   0.985   8.825  3.2835  1.3451 -0.6809
  144SAPE  H16Y15865   2.552   0.852   8.719  0.5857 -2.0818 -1.1994
  144SAPE  C31715866   2.732   0.956   8.654  0.8648  0.8131 -0.2819
  144SAPE  H17X15867   2.800   0.879   8.613 -1.1118 -1.8175  1.0888
  144SAPE  H17Y15868   2.795   1.032   8.704  0.3137 -1.1297  3.7330
  144SAPE  C31815869   2.643   1.013   8.544 -0.2427 -0.0727 -0.7441
  144SAPE  H18X15870   2.598   1.109   8.580  0.1977  0.7021 -2.2013
  144SAPE  H18Y15871   2.569   0.947   8.495 -0.2663  0.2079 -1.0902
  144SAPE  H18Z15872   2.714   1.055   8.470 -1.1071 -0.1721 -1.6404
  145SAPE     N15873   6.565   2.243  10.974  0.6070  0.0146 -0.3146
  145SAPE   HN115874   6.607   2.286  11.059  1.0369  0.4717 -0.7586
  145SAPE   HN215875   6.638   2.190  10.922  3.2721  1.4274  1.7694
  145SAPE   HN315876   6.521   2.316  10.915  0.7544 -0.0446 -0.4970
  145SAPE   C1215877   6.463   2.139  11.014 -0.2982  0.4408 -0.8569
  145SAPE  H12A15878   6.416   2.082  10.931  1.4629 -1.4965 -0.6155
  145SAPE  H12B15879   6.385   2.192  11.073 -0.5126  1.4638 -2.0229
  145SAPE   C1115880   6.531   2.035  11.107 -0.7724 -0.7169  0.2753
  145SAPE  H11A15881   6.454   1.959  11.134  0.5063 -2.7135 -1.3418
  145SAPE  H11B15882   6.560   2.085  11.202 -3.2086 -0.9955  1.2565
  145SAPE     P15883   6.622   1.875  10.924 -0.1601  0.4105 -0.0741
  145SAPE   O1315884   6.746   1.805  10.878 -0.3799 -0.6457  0.3899
  145SAPE   O1415885   6.515   1.782  10.970  0.2211  0.3678  1.0499
  145SAPE   O1215886   6.648   1.980  11.041  0.0973  0.0295 -0.6304
  145SAPE   O1115887   6.567   1.967  10.813 -0.0985 -0.2248 -0.1087
  145SAPE    C115888   6.635   1.987  10.691 -0.2462  0.3819  0.1052
  145SAPE    HA15889   6.634   2.096  10.669  1.9738  0.4074 -0.1308
  145SAPE    HB15890   6.738   1.947  10.678 -0.1977  1.0106 -1.7477
  145SAPE    C215891   6.550   1.926  10.575 -0.0396  0.5978 -0.1950
  145SAPE    HS15892   6.441   1.935  10.595  0.4529  0.1714  3.3771
  145SAPE   O2115893   6.595   1.787  10.565  0.9886  0.1926  1.3633
  145SAPE   C2115894   6.507   1.690  10.548  0.0870  0.2745  0.0984
  145SAPE   O2215895   6.388   1.691  10.527  0.5520 -0.7769 -0.2695
  145SAPE   C2215896   6.586   1.571  10.557 -0.0738  0.8346  0.1761
  145SAPE   H2R15897   6.697   1.581  10.559  0.1447 -0.0606 -2.6544
  145SAPE   H2S15898   6.565   1.525  10.656  0.3471  0.4246  0.0840
  145SAPE    C315899   6.589   1.999  10.445 -0.1450  0.4321  0.5248
  145SAPE    HX15900   6.553   1.923  10.373  1.1260 -0.6364  0.9753
  145SAPE    HY15901   6.699   1.995  10.431 -0.2479 -1.6721  0.0009
  145SAPE   O3115902   6.525   2.125  10.434  0.3733 -0.1903 -0.0263
  145SAPE   C3115903   6.607   2.225  10.398  0.7338 -0.7223 -0.3655
  145SAPE   O3215904   6.726   2.223  10.372  0.0384  0.1739 -0.2406
  145SAPE   C3215905   6.531   2.353  10.423 -0.0315 -0.1103 -0.3877
  145SAPE   H2X15906   6.576   2.395  10.515 -0.6031  0.0071 -0.1563
  145SAPE   H2Y15907   6.423   2.326  10.425 -0.2562  0.7446 -0.3224
  145SAPE   C2315908   6.542   1.470  10.450  0.6278  0.3643  0.6058
  145SAPE   H3R15909   6.526   1.523  10.353  0.6722  0.1888  0.5002
  145SAPE   H3S15910   6.446   1.426  10.483  0.4973 -0.3395 -0.6302
  145SAPE   C2415911   6.637   1.358  10.422 -0.3978  0.6361  0.3241
  145SAPE   H4R15912   6.589   1.287  10.351  1.4154 -1.6119  1.1936
  145SAPE   H4S15913   6.645   1.297  10.515  0.3584 -2.0377 -1.3642
  145SAPE   C2515914   6.764   1.418  10.357 -0.6843 -0.0877 -0.8861
  145SAPE   H5R15915   6.842   1.453  10.426 -0.8311  0.3208 -0.9300
  145SAPE   C2615916   6.783   1.458  10.232 -0.6407  0.0995  0.7934
  145SAPE   H6R15917   6.884   1.488  10.199 -0.8974 -0.5501 -0.6288
  145SAPE   C2715918   6.684   1.449  10.117  0.1687 -0.2019  0.6724
  145SAPE   H7R15919   6.580   1.429  10.151 -0.9179  1.1976 -1.6579
  145SAPE   H7S15920   6.707   1.359  10.056  0.1575  0.0386  0.3100
  145SAPE   C2815921   6.687   1.578  10.031  0.1258 -0.6223  0.1066
  145SAPE   H8R15922   6.706   1.673  10.084  0.4427 -0.1524 -0.8305
  145SAPE   C2915923   6.661   1.594   9.901  0.3964 -0.6929  1.0096
  145SAPE   H9R15924   6.674   1.693   9.856  1.1304 -0.3655  1.9131
  145SAPE  C21015925   6.605   1.486   9.813 -0.5238  0.3909 -0.1312
  145SAPE  H10R15926   6.519   1.513   9.747 -0.5094  0.5754 -0.0744
  145SAPE  H10S15927   6.573   1.403   9.880 -0.7904  1.0334  0.5419
  145SAPE  C21115928   6.715   1.443   9.709  0.6546 -0.1735  0.1919
  145SAPE  H11R15929   6.765   1.347   9.729  0.8375 -0.8558 -2.9224
  145SAPE  C21215930   6.753   1.502   9.589  0.8616  0.3458  0.9280
  145SAPE  H12R15931   6.821   1.447   9.522 -1.3129 -1.6196  0.2033
  145SAPE  C21315932   6.693   1.626   9.531 -0.0352  0.3793  0.4768
  145SAPE  H13R15933   6.655   1.688   9.615  1.9467  1.5467  0.5678
  145SAPE  H13S15934   6.603   1.594   9.474 -0.1960 -1.0762  1.5081
  145SAPE  C21415935   6.805   1.699   9.459 -0.2741 -0.2070  0.4745
  145SAPE  H14R15936   6.838   1.793   9.505  0.7776  1.0472 -2.5830
  145SAPE  C21515937   6.853   1.676   9.331 -0.3562  0.2308 -0.1188
  145SAPE  H15R15938   6.939   1.733   9.292  0.3866 -0.8769 -0.1549
  145SAPE  C21615939   6.823   1.564   9.232 -0.4010 -0.5703  0.5521
  145SAPE  H16R15940   6.764   1.479   9.272 -1.3014  0.0055  0.4874
  145SAPE  H16S15941   6.916   1.521   9.190  0.0212  0.5220  0.3379
  145SAPE  C21715942   6.736   1.628   9.123 -0.3655  0.3705  0.3464
  145SAPE  H17R15943   6.720   1.557   9.039  0.3172  0.7345 -0.1027
  145SAPE  H17S15944   6.813   1.694   9.077 -0.1601 -0.0892  0.0263
  145SAPE  C21815945   6.611   1.701   9.179  0.1641  0.3204 -0.5172
  145SAPE  H18R15946   6.640   1.779   9.254 -2.1425  0.2524  0.5447
  145SAPE  H18S15947   6.556   1.625   9.238  0.9385  1.0972  1.2846
  145SAPE  C21915948   6.510   1.751   9.073 -0.5982  0.1799  0.4972
  145SAPE  H19R15949   6.429   1.802   9.130  0.0292  0.0379  1.5396
  145SAPE  H19S15950   6.478   1.662   9.015  1.2539  0.0073 -0.3461
  145SAPE  C22015951   6.583   1.844   8.974 -0.4037 -0.1583 -0.2202
  145SAPE  H20R15952   6.621   1.931   9.031  1.0549 -1.4964  0.9628
  145SAPE  H20S15953   6.503   1.880   8.906 -1.7744  0.8412  1.8174
  145SAPE  H20T15954   6.664   1.800   8.912  0.6710  1.8223 -0.3183
  145SAPE   C3315955   6.537   2.459  10.313 -0.1109 -0.3435 -0.5483
  145SAPE   H3X15956   6.642   2.475  10.280  0.1238 -1.2008 -0.2582
  145SAPE   H3Y15957   6.501   2.559  10.344 -0.5750 -0.3864 -0.9484
  145SAPE   C3415958   6.458   2.409  10.188  0.2778 -0.0744  0.1885
  145SAPE   H4X15959   6.351   2.427  10.212  0.7143  0.1314  2.1598
  145SAPE   H4Y15960   6.464   2.299  10.175  0.0792 -0.2361  1.3435
  145SAPE   C3515961   6.496   2.484  10.063  0.1120 -0.8141 -0.1611
  145SAPE   H5X15962   6.607   2.479  10.059  0.4089  3.2547 -1.4364
  145SAPE   H5Y15963   6.477   2.594  10.063  1.0046 -0.6518  0.5197
  145SAPE   C3615964   6.444   2.426   9.929  0.0786 -0.3521  0.0092
  145SAPE   H6X15965   6.336   2.419   9.952  0.4287 -1.2499  1.5294
  145SAPE   H6Y15966   6.500   2.330   9.921  0.9124 -0.0234  1.5445
  145SAPE   C3715967   6.474   2.511   9.803  0.3303  0.1920  0.0565
  145SAPE   H7X15968   6.576   2.555   9.796 -0.2417  1.5556 -0.1092
  145SAPE   H7Y15969   6.399   2.592   9.788 -0.3342 -0.7159 -1.8048
  145SAPE   C3815970   6.452   2.424   9.668 -0.9563 -0.0290  0.0772
  145SAPE   H8X15971   6.349   2.383   9.678 -1.0568  0.5366  1.5553
  145SAPE   H8Y15972   6.522   2.339   9.650  1.1877  1.1627  2.1694
  145SAPE   C3915973   6.431   2.508   9.538  0.9932 -0.3648 -0.1939
  145SAPE   H9X15974   6.371   2.592   9.579 -0.8940 -0.1730 -3.0397
  145SAPE   H9Y15975   6.366   2.459   9.462  1.9420 -1.1767 -0.5022
  145SAPE  C31015976   6.556   2.569   9.480 -0.0614  0.4283  0.2880
  145SAPE  H10X15977   6.636   2.496   9.453 -0.1825  0.3933  0.0162
  145SAPE  H10Y15978   6.602   2.625   9.564 -0.1914  0.5772  0.2591
  145SAPE  C31115979   6.517   2.638   9.352  0.3253 -0.4380  0.4744
  145SAPE  H11X15980   6.486   2.737   9.390  1.5816  0.8355 -1.6057
  145SAPE  H11Y15981   6.428   2.589   9.308  1.7024 -1.4665 -1.3481
  145SAPE  C31215982   6.625   2.647   9.255 -0.6237  0.5110  0.1181
  145SAPE  H12X15983   6.638   2.548   9.207 -0.2042  0.0541  1.1447
  145SAPE  H12Y15984   6.723   2.668   9.304 -0.6182 -0.1762  0.4129
  145SAPE  C31315985   6.603   2.753   9.143  0.0911  0.8027 -0.3810
  145SAPE  H13X15986   6.703   2.759   9.095  0.3778  0.7685  0.2040
  145SAPE  H13Y15987   6.573   2.848   9.192 -1.1804  0.9032 -1.3154
  145SAPE  C31415988   6.493   2.713   9.042 -0.3838  0.6951 -0.8244
  145SAPE  H14X15989   6.402   2.666   9.086 -1.5886  2.3898 -1.3953
  145SAPE  H14Y15990   6.544   2.635   8.982 -0.6323  0.0075 -0.1694
  145SAPE  C31515991   6.448   2.826   8.947 -1.3204  0.0623  0.3534
  145SAPE  H15X15992   6.366   2.885   8.993 -1.4022 -0.8715  1.4540
  145SAPE  H15Y15993   6.402   2.778   8.859  1.7008  0.2233 -1.4522
  145SAPE  C31615994   6.561   2.917   8.900 -0.5269  0.4080 -0.1341
  145SAPE  H16X15995   6.647   2.852   8.872 -0.7252 -0.5818  1.4285
  145SAPE  H16Y15996   6.596   2.969   8.992  2.1738 -0.9508 -0.2932
  145SAPE  C31715997   6.519   2.995   8.781  0.5466 -0.1136  0.3682
  145SAPE  H17X15998   6.474   2.933   8.701  0.3724 -0.4115  0.6911
  145SAPE  H17Y15999   6.612   3.039   8.739  0.7860 -2.1220 -1.3390
  145SAPE  C31816000   6.434   3.118   8.813  0.4053 -0.4668 -0.8266
  145SAPE  H18X16001   6.463   3.165   8.909  1.7721 -0.6574 -1.1353
  145SAPE  H18Y16002   6.326   3.094   8.825  0.1319  0.0793 -2.0155
  145SAPE  H18Z16003   6.434   3.189   8.728 -1.4479  0.6355  0.0182
  146SAPE     N16004   4.070   5.789  10.865 -0.0917  0.4957  0.2944
  146SAPE   HN116005   4.080   5.869  10.800 -0.1602 -0.6148 -1.1421
  146SAPE   HN216006   4.156   5.770  10.920 -0.2008  2.1213  1.0721
  146SAPE   HN316007   4.032   5.704  10.819  0.1343  1.1073 -1.0694
  146SAPE   C1216008   3.972   5.811  10.969 -0.6189  0.2667 -0.8431
  146SAPE  H12A16009   4.012   5.883  11.043 -2.8588  0.7996 -0.0586
  146SAPE  H12B16010   3.952   5.718  11.025 -2.2582  1.2813  0.3804
  146SAPE   C1116011   3.834   5.854  10.914 -0.4832  0.3281  0.1072
  146SAPE  H11A16012   3.765   5.854  11.001  1.6189 -0.8907  1.9124
  146SAPE  H11B16013   3.801   5.782  10.837  1.3511  1.5649 -1.9575
  146SAPE     P16014   3.740   6.065  10.797 -0.2487  0.7482 -0.0642
  146SAPE   O1316015   3.643   6.073  10.907 -0.3022  0.1378 -0.3143
  146SAPE   O1416016   3.814   6.191  10.769 -0.3988  0.6169 -0.2937
  146SAPE   O1216017   3.855   5.977  10.842 -0.0165 -0.0034 -0.3288
  146SAPE   O1116018   3.685   6.008  10.664 -0.0556  0.0926  0.3989
  146SAPE    C116019   3.773   5.982  10.556  0.1090  0.3679 -0.3386
  146SAPE    HA16020   3.846   6.064  10.540  1.4600 -1.0971 -2.0600
  146SAPE    HB16021   3.831   5.889  10.576  2.1707  1.6900  0.1618
  146SAPE    C216022   3.703   5.965  10.419 -0.4610  0.1806  0.1983
  146SAPE    HS16023   3.636   6.052  10.401 -0.1998  0.0002 -1.9023
  146SAPE   O2116024   3.634   5.840  10.427  0.5763  0.2006  0.2154
  146SAPE   C2116025   3.531   5.828  10.345 -0.3917 -0.0214 -0.2830
  146SAPE   O2216026   3.481   5.919  10.279  0.6489 -0.4202 -0.0132
  146SAPE   C2216027   3.470   5.688  10.359  0.2096  0.8857 -0.2255
  146SAPE   H2R16028   3.556   5.618  10.364 -0.2161  0.3941  0.3592
  146SAPE   H2S16029   3.406   5.672  10.448 -0.1385 -1.8711 -0.8814
  146SAPE    C316030   3.810   5.957  10.290  0.9685 -0.0346  0.0865
  146SAPE    HX16031   3.886   5.879  10.315  0.8672  0.3035  1.5749
  146SAPE    HY16032   3.861   6.055  10.295  0.2260  0.3979 -0.7580
  146SAPE   O3116033   3.733   5.926  10.164  0.5579 -0.3724  0.5714
  146SAPE   C3116034   3.811   5.939  10.049  1.0465  0.0136  0.4954
  146SAPE   O3216035   3.926   5.979  10.051  0.4783 -0.5605  0.4560
  146SAPE   C3216036   3.720   5.912   9.925 -0.5766  0.1642  0.0167
  146SAPE   H2X16037   3.624   5.964   9.944  0.0355  0.9482  1.0945
  146SAPE   H2Y16038   3.711   5.801   9.927  1.0031  0.0106  1.0335
  146SAPE   C2316039   3.382   5.651  10.237 -0.3429 -0.5514  0.1019
  146SAPE   H3R16040   3.307   5.731  10.217  0.7766 -0.0035 -2.2830
  146SAPE   H3S16041   3.325   5.559  10.264 -0.3408 -0.1467  1.6094
  146SAPE   C2416042   3.459   5.622  10.104  0.3955 -0.6681  0.2866
  146SAPE   H4R16043   3.519   5.706  10.061  0.2895 -1.6942 -2.0161
  146SAPE   H4S16044   3.381   5.603  10.027  0.2119 -0.0165  0.2999
  146SAPE   C2516045   3.550   5.506  10.103 -0.3274  0.3349  0.1558
  146SAPE   H5R16046   3.592   5.486  10.203  0.7824  0.6200 -0.2419
  146SAPE   C2616047   3.585   5.430   9.998 -0.2838 -0.3227 -0.0530
  146SAPE   H6R16048   3.659   5.351  10.015 -1.2520 -0.7913  2.5648
  146SAPE   C2716049   3.531   5.442   9.856  0.8806 -0.3768  0.3963
  146SAPE   H7R16050   3.478   5.538   9.835 -0.4577 -0.9331  1.0614
  146SAPE   H7S16051   3.445   5.373   9.840 -0.3879  1.1984  0.1678
  146SAPE   C2816052   3.623   5.410   9.740 -0.3880  0.1226  0.5355
  146SAPE   H8R16053   3.689   5.324   9.754  0.4891  0.4447 -1.3090
  146SAPE   C2916054   3.637   5.477   9.623 -0.3614  0.8309 -0.5298
  146SAPE   H9R16055   3.700   5.431   9.545  0.8487 -1.5574  1.6725
  146SAPE  C21016056   3.557   5.598   9.582  0.2126 -0.1172  0.1098
  146SAPE  H10R16057   3.609   5.692   9.611 -0.5981  0.3372  0.1160
  146SAPE  H10S16058   3.458   5.591   9.632  1.2284 -1.2952  2.1106
  146SAPE  C21116059   3.543   5.607   9.429  0.2106  0.2765 -1.0965
  146SAPE  H11R16060   3.559   5.513   9.373  2.6576  0.6783 -1.1865
  146SAPE  C21216061   3.504   5.712   9.365  0.0729  0.1753  0.9352
  146SAPE  H12R16062   3.481   5.706   9.258  0.0822 -1.0498  0.9967
  146SAPE  C21316063   3.463   5.844   9.424  0.0220 -0.4529  0.1817
  146SAPE  H13R16064   3.468   5.918   9.342  2.1618 -1.2865 -0.4945
  146SAPE  H13S16065   3.532   5.878   9.505  0.0795 -1.4143  0.5450
  146SAPE  C21416066   3.322   5.841   9.474  0.1267 -0.3332  0.1532
  146SAPE  H14R16067   3.250   5.803   9.399 -0.4973  0.6186  0.2569
  146SAPE  C21516068   3.275   5.875   9.592 -0.2920 -0.5168 -0.3612
  146SAPE  H15R16069   3.167   5.873   9.612 -0.9487  1.9765 -2.8616
  146SAPE  C21616070   3.355   5.931   9.709  0.2988 -0.0088  0.8132
  146SAPE  H16R16071   3.361   6.041   9.699 -0.3230  0.2085  2.3971
  146SAPE  H16S16072   3.459   5.893   9.698  0.9023  2.2849 -4.2478
  146SAPE  C21716073   3.317   5.890   9.855  0.0676 -0.7778  0.4849
  146SAPE  H17R16074   3.409   5.890   9.918 -0.8263 -0.7494  1.8274
  146SAPE  H17S16075   3.293   5.782   9.848  0.0265 -0.9607  2.9109
  146SAPE  C21816076   3.208   5.977   9.912 -0.1549 -0.0064 -0.7220
  146SAPE  H18R16077   3.130   5.989   9.834  0.9727  0.8301 -1.7605
  146SAPE  H18S16078   3.242   6.078   9.944 -0.1551 -1.2566  3.9961
  146SAPE  C21916079   3.136   5.923  10.041  0.1649  0.5688 -0.5607
  146SAPE  H19R16080   3.218   5.894  10.110 -0.3816 -0.9085 -0.4756
  146SAPE  H19S16081   3.081   5.827  10.024  0.0390  0.3911  0.7353
  146SAPE  C22016082   3.044   6.027  10.106  0.3051  0.3478  0.2458
  146SAPE  H20R16083   2.986   6.065  10.019 -0.2052 -0.7460  0.0937
  146SAPE  H20S16084   3.104   6.110  10.148 -1.2245  1.2619  0.7340
  146SAPE  H20T16085   2.990   5.988  10.195 -1.5291  1.5874 -0.2676
  146SAPE   C3316086   3.767   5.958   9.787  0.8520 -0.1216 -0.6419
  146SAPE   H3X16087   3.785   6.067   9.799 -1.8109  0.2563  0.8716
  146SAPE   H3Y16088   3.683   5.961   9.715  0.3460 -2.1509 -0.1933
  146SAPE   C3416089   3.884   5.882   9.734 -1.1248 -0.0960 -0.6246
  146SAPE   H4X16090   3.870   5.772   9.740 -0.7070 -0.1041  0.4624
  146SAPE   H4Y16091   3.966   5.903   9.806  0.2553 -1.6169 -1.6796
  146SAPE   C3516092   3.919   5.905   9.585  0.1188  0.4344 -0.3930
  146SAPE   H5X16093   3.949   6.011   9.576  0.1784  0.3382 -1.4308
  146SAPE   H5Y16094   3.836   5.897   9.511 -0.0115 -2.0654 -0.0482
  146SAPE   C3616095   4.036   5.821   9.542 -0.5106  1.1418  0.4983
  146SAPE   H6X16096   4.018   5.712   9.530  0.9459  1.0315 -0.9459
  146SAPE   H6Y16097   4.124   5.819   9.609 -0.0793 -1.0139 -0.0623
  146SAPE   C3716098   4.076   5.864   9.400 -0.9216  0.1054 -0.2886
  146SAPE   H7X16099   4.134   5.958   9.411  1.3877 -0.5973 -4.4668
  146SAPE   H7Y16100   3.994   5.886   9.329 -0.3575 -0.2450 -1.0661
  146SAPE   C3816101   4.167   5.765   9.325 -0.1630  0.4594  0.8181
  146SAPE   H8X16102   4.179   5.796   9.219  2.1787 -3.6331 -0.3200
  146SAPE   H8Y16103   4.116   5.666   9.323 -0.7769  0.7826 -0.5667
  146SAPE   C3916104   4.314   5.759   9.376  0.6433  0.0843 -0.0679
  146SAPE   H9X16105   4.307   5.764   9.487 -0.8001  0.3268 -0.1445
  146SAPE   H9Y16106   4.359   5.858   9.351 -0.0229  0.6760  0.9831
  146SAPE  C31016107   4.392   5.651   9.318 -0.1863  0.1216  0.4021
  146SAPE  H10X16108   4.356   5.553   9.357 -0.0320 -0.4919 -0.9567
  146SAPE  H10Y16109   4.499   5.658   9.348  0.7584  0.2131 -2.6388
  146SAPE  C31116110   4.387   5.643   9.163 -0.2637 -0.0686 -0.1367
  146SAPE  H11X16111   4.429   5.736   9.117 -0.9459  0.1278 -0.3834
  146SAPE  H11Y16112   4.288   5.620   9.118 -0.1167 -0.2798 -0.3531
  146SAPE  C31216113   4.465   5.517   9.109  0.1202 -0.4217  0.3498
  146SAPE  H12X16114   4.445   5.427   9.170  0.6010 -1.5458 -1.1068
  146SAPE  H12Y16115   4.573   5.535   9.090 -0.4965  1.0798 -2.1198
  146SAPE  C31316116   4.411   5.484   8.974  0.4727 -0.3585 -1.1420
  146SAPE  H13X16117   4.301   5.470   8.984  0.1094  2.8123  0.3836
  146SAPE  H13Y16118   4.450   5.385   8.939  0.0343 -0.8029 -0.3947
  146SAPE  C31416119   4.427   5.592   8.867  0.2816 -0.2715 -0.7195
  146SAPE  H14X16120   4.538   5.597   8.855  0.4006 -1.4169 -0.2459
  146SAPE  H14Y16121   4.400   5.692   8.908 -1.1188 -0.6991 -0.5797
  146SAPE  C31516122   4.373   5.550   8.738 -0.3546 -0.3116  0.9110
  146SAPE  H15X16123   4.262   5.554   8.743 -0.5338 -1.7574 -0.8860
  146SAPE  H15Y16124   4.399   5.443   8.724  0.0500 -0.0368 -0.6855
  146SAPE  C31616125   4.422   5.621   8.605  0.2714 -0.1939 -0.3585
  146SAPE  H16X16126   4.532   5.604   8.604  0.6411  1.1053  2.9079
  146SAPE  H16Y16127   4.418   5.732   8.612  0.3928 -0.1974 -0.2033
  146SAPE  C31716128   4.360   5.557   8.479 -0.0679 -0.4995 -0.1521
  146SAPE  H17X16129   4.249   5.568   8.472 -0.2728 -2.4428 -0.4697
  146SAPE  H17Y16130   4.379   5.448   8.485  0.2264 -0.3599  4.1447
  146SAPE  C31816131   4.428   5.605   8.345  0.6219 -0.9904  0.6527
  146SAPE  H18X16132   4.430   5.716   8.334  1.3019 -1.1034 -0.6036
  146SAPE  H18Y16133   4.363   5.565   8.265  2.4372 -0.7045 -1.0328
  146SAPE  H18Z16134   4.530   5.568   8.324 -0.0283 -0.6347 -4.4000
  147SAPE     N16135   1.844   4.207   6.359  0.2054 -0.2959 -0.3618
  147SAPE   HN116136   1.793   4.211   6.450 -0.1544 -0.0835 -0.5727
  147SAPE   HN216137   1.917   4.279   6.375  0.9397 -0.9637 -0.6621
  147SAPE   HN316138   1.785   4.235   6.278  0.8081  2.2723  0.0065
  147SAPE   C1216139   1.903   4.076   6.332 -1.3752  0.3786 -0.3101
  147SAPE  H12A16140   1.953   4.085   6.233 -0.1603  1.4886  0.3756
  147SAPE  H12B16141   1.822   4.000   6.334 -0.2004 -0.9261 -0.7969
  147SAPE   C1116142   2.015   4.033   6.433  0.8246 -0.2549  1.2279
  147SAPE  H11A16143   2.048   3.931   6.403 -0.5514 -0.5345  0.5940
  147SAPE  H11B16144   1.968   4.015   6.532 -0.1695 -3.6022  0.2960
  147SAPE     P16145   2.255   4.125   6.356 -0.1504 -0.2310 -0.5147
  147SAPE   O1316146   2.328   3.996   6.364  0.6149  0.1323  0.1027
  147SAPE   O1416147   2.215   4.170   6.224 -0.3102 -0.0359 -0.3353
  147SAPE   O1216148   2.121   4.127   6.441 -0.6940  0.2103  0.1115
  147SAPE   O1116149   2.341   4.242   6.428 -0.3002 -0.0849 -0.4406
  147SAPE    C116150   2.439   4.196   6.527  1.1651  0.5048 -0.1748
  147SAPE    HA16151   2.521   4.143   6.474  0.4059 -1.0540  0.1717
  147SAPE    HB16152   2.476   4.286   6.581 -1.3898  0.9553  0.9938
  147SAPE    C216153   2.378   4.119   6.646 -0.9445 -0.2203 -0.4944
  147SAPE    HS16154   2.350   4.016   6.616 -2.4500  0.6045 -2.0458
  147SAPE   O2116155   2.268   4.193   6.701 -1.0953 -0.4323 -0.3275
  147SAPE   C2116156   2.171   4.119   6.744  0.4013 -0.2516  0.0334
  147SAPE   O2216157   2.169   4.000   6.750  0.0121  0.0656  0.2946
  147SAPE   C2216158   2.045   4.202   6.782 -0.1064  0.0186 -0.5602
  147SAPE   H2R16159   1.955   4.153   6.738  0.4016  0.6729 -2.3776
  147SAPE   H2S16160   2.038   4.193   6.893 -1.3366 -0.1238 -0.6295
  147SAPE    C316161   2.493   4.095   6.753 -0.6970 -0.2703  0.4511
  147SAPE    HX16162   2.534   4.197   6.769 -2.8335  0.3933  2.3812
  147SAPE    HY16163   2.572   4.032   6.707  0.7740  0.4138  1.9155
  147SAPE   O3116164   2.447   4.026   6.870 -0.2256  0.2986  0.3704
  147SAPE   C3116165   2.436   4.102   6.986 -0.3172  0.1830  0.1598
  147SAPE   O3216166   2.462   4.222   6.994  0.7967  0.4939 -0.0056
  147SAPE   C3216167   2.372   4.008   7.090  0.4926 -0.0267 -0.1107
  147SAPE   H2X16168   2.410   3.904   7.080 -1.8580 -1.3661  3.1164
  147SAPE   H2Y16169   2.268   4.008   7.050  0.6951  2.8731 -0.8654
  147SAPE   C2316170   2.053   4.342   6.730 -1.0438 -0.1503  0.1338
  147SAPE   H3R16171   1.951   4.384   6.722 -0.4103  1.3696 -0.2563
  147SAPE   H3S16172   2.091   4.350   6.626 -0.8719 -0.5342  0.1630
  147SAPE   C2416173   2.124   4.446   6.825 -1.0792 -0.8470 -1.0124
  147SAPE   H4R16174   2.157   4.532   6.763  0.0812 -0.4375  0.1200
  147SAPE   H4S16175   2.216   4.394   6.861 -1.2095 -1.7250 -1.9094
  147SAPE   C2516176   2.034   4.497   6.934  0.2808 -0.1443 -0.6553
  147SAPE   H5R16177   1.957   4.564   6.893  0.0458 -0.9262 -1.5287
  147SAPE   C2616178   2.047   4.484   7.066 -0.3066 -0.4586 -0.6690
  147SAPE   H6R16179   1.980   4.533   7.138  0.3085  0.0386 -0.4265
  147SAPE   C2716180   2.156   4.394   7.122  0.4883  0.1659 -0.7284
  147SAPE   H7R16181   2.167   4.308   7.053 -0.3126 -0.3404 -0.2400
  147SAPE   H7S16182   2.113   4.355   7.217 -4.3414  2.5388 -1.6116
  147SAPE   C2816183   2.296   4.450   7.146 -0.3609 -0.0951  0.0142
  147SAPE   H8R16184   2.351   4.477   7.054 -0.4512 -1.5771 -0.4981
  147SAPE   C2916185   2.359   4.485   7.263  0.0236 -0.3282  0.0083
  147SAPE   H9R16186   2.466   4.504   7.248 -0.3004  2.1214  0.3973
  147SAPE  C21016187   2.299   4.479   7.400  0.6312  0.7651 -1.1935
  147SAPE  H10R16188   2.194   4.445   7.409  0.0072  3.1017  3.8513
  147SAPE  H10S16189   2.291   4.577   7.451 -1.1973 -0.2415  0.5437
  147SAPE  C21116190   2.368   4.388   7.486 -0.3389  0.7145 -0.4517
  147SAPE  H11R16191   2.434   4.315   7.437 -0.3774  0.3278  0.0600
  147SAPE  C21216192   2.359   4.373   7.623 -0.3730 -0.6803  0.5239
  147SAPE  H12R16193   2.421   4.300   7.677  0.1550 -0.0907  0.7217
  147SAPE  C21316194   2.285   4.464   7.715  0.8463 -0.7169  0.5784
  147SAPE  H13R16195   2.202   4.516   7.663  1.3583  0.7326  1.1671
  147SAPE  H13S16196   2.349   4.551   7.741  0.5360 -0.9237  2.1582
  147SAPE  C21416197   2.225   4.402   7.839  0.5295 -0.3340  0.3592
  147SAPE  H14R16198   2.115   4.398   7.843  0.5186  0.0510  0.5435
  147SAPE  C21516199   2.281   4.353   7.948  0.2983  0.2139 -0.5291
  147SAPE  H15R16200   2.217   4.305   8.023  1.2933 -0.7732 -0.2723
  147SAPE  C21616201   2.427   4.328   7.988 -0.1658 -0.1385  0.1163
  147SAPE  H16R16202   2.437   4.390   8.080  1.0176  0.8351 -0.6430
  147SAPE  H16S16203   2.499   4.367   7.912  1.0698 -1.2336  0.6886
  147SAPE  C21716204   2.468   4.184   8.034  0.5604  0.0375  0.0865
  147SAPE  H17R16205   2.579   4.184   8.044  0.4187  0.5284  1.9039
  147SAPE  H17S16206   2.445   4.111   7.954  2.5627  0.9253 -1.3919
  147SAPE  C21816207   2.413   4.136   8.170 -0.1762  0.0561  0.1491
  147SAPE  H18R16208   2.323   4.081   8.136  1.6763 -1.6361 -2.3632
  147SAPE  H18S16209   2.393   4.219   8.241  3.0918 -1.8984  3.6832
  147SAPE  C21916210   2.507   4.051   8.252 -0.1680 -0.5337 -0.0163
  147SAPE  H19R16211   2.604   4.103   8.265 -0.9480  0.3991  2.8338
  147SAPE  H19S16212   2.532   3.953   8.206  0.9897 -1.0206  1.5517
  147SAPE  C22016213   2.447   4.021   8.396 -0.3189 -0.0325  0.1893
  147SAPE  H20R16214   2.512   3.954   8.456 -1.0025  0.5264  1.5989
  147SAPE  H20S16215   2.350   3.970   8.382 -1.1185  1.3965  0.3305
  147SAPE  H20T16216   2.422   4.115   8.451  1.1498  1.2598 -1.2382
  147SAPE   C3316217   2.374   4.056   7.235  0.5272 -1.0065  0.2468
  147SAPE   H3X16218   2.291   4.130   7.244  1.3396 -0.1572  0.9637
  147SAPE   H3Y16219   2.464   4.115   7.264 -0.5887  0.9551 -0.1115
  147SAPE   C3416220   2.347   3.942   7.337 -0.2271  0.2099  0.0282
  147SAPE   H4X16221   2.435   3.874   7.333 -1.0274 -0.8428 -0.0165
  147SAPE   H4Y16222   2.255   3.888   7.308 -0.9389  1.0999  0.5848
  147SAPE   C3516223   2.346   3.992   7.480 -0.4848  0.1515 -0.4265
  147SAPE   H5X16224   2.246   4.037   7.501 -0.3479  0.0213  0.5344
  147SAPE   H5Y16225   2.420   4.073   7.494 -0.2590 -0.3543  1.6895
  147SAPE   C3616226   2.367   3.880   7.584 -0.3072 -0.5484 -0.3411
  147SAPE   H6X16227   2.453   3.816   7.558  0.4231  0.1921  0.2050
  147SAPE   H6Y16228   2.276   3.816   7.578 -2.2772  1.9556  0.6286
  147SAPE   C3716229   2.375   3.943   7.724 -0.6313  0.4194  0.1350
  147SAPE   H7X16230   2.277   3.995   7.726 -1.2363 -0.6839 -0.1645
  147SAPE   H7Y16231   2.466   4.006   7.737  0.3701 -0.5317 -1.7979
  147SAPE   C3816232   2.394   3.840   7.844 -0.2308  0.2315  0.3781
  147SAPE   H8X16233   2.427   3.903   7.930  0.3039 -0.4205  0.6549
  147SAPE   H8Y16234   2.468   3.762   7.816 -0.7076  0.2291 -0.9392
  147SAPE   C3916235   2.259   3.772   7.872 -0.2996 -0.5892 -0.2893
  147SAPE   H9X16236   2.222   3.721   7.781 -1.3273 -0.1764 -0.1268
  147SAPE   H9Y16237   2.187   3.856   7.890 -0.5723 -0.9772  0.4690
  147SAPE  C31016238   2.249   3.683   7.999 -0.3352  0.0037  0.3409
  147SAPE  H10X16239   2.318   3.598   7.982 -0.0717  0.7078 -2.5405
  147SAPE  H10Y16240   2.149   3.635   8.001  0.1206 -1.0469 -0.6849
  147SAPE  C31116241   2.276   3.765   8.128 -0.6084  0.0295  0.3929
  147SAPE  H11X16242   2.183   3.817   8.158 -0.2436 -0.2078  2.0616
  147SAPE  H11Y16243   2.348   3.848   8.111 -1.3281  0.4994 -0.4156
  147SAPE  C31216244   2.324   3.680   8.241 -0.4097  0.0441 -0.2372
  147SAPE  H12X16245   2.267   3.591   8.277  2.2713 -1.6052  0.1683
  147SAPE  H12Y16246   2.346   3.749   8.325  0.4423  1.0852 -1.2957
  147SAPE  C31316247   2.463   3.621   8.219 -0.0749 -0.3670  0.0039
  147SAPE  H13X16248   2.516   3.626   8.316 -0.7870  0.9552  0.3541
  147SAPE  H13Y16249   2.521   3.682   8.147 -0.9604  0.8796  0.3031
  147SAPE  C31416250   2.477   3.469   8.189  0.5521 -1.1044  0.0381
  147SAPE  H14X16251   2.419   3.451   8.095 -1.8604  3.7378  0.2599
  147SAPE  H14Y16252   2.418   3.427   8.273  0.2885  1.4704  1.2207
  147SAPE  C31516253   2.620   3.419   8.206  0.2369 -0.0428 -0.2318
  147SAPE  H15X16254   2.627   3.310   8.186  2.8294 -0.0632  0.3470
  147SAPE  H15Y16255   2.636   3.447   8.312 -0.5846  1.8442 -0.5553
  147SAPE  C31616256   2.734   3.495   8.128  0.7457  0.1890 -0.2231
  147SAPE  H16X16257   2.748   3.596   8.171  0.5007 -0.4379  1.3860
  147SAPE  H16Y16258   2.694   3.513   8.025 -0.6043 -1.0813  0.0493
  147SAPE  C31716259   2.869   3.422   8.133 -0.7268  0.5568 -0.1049
  147SAPE  H17X16260   2.864   3.334   8.065 -0.1101 -1.0538  1.8176
  147SAPE  H17Y16261   2.894   3.390   8.237  1.7448 -1.6722 -1.2520
  147SAPE  C31816262   2.996   3.500   8.082  0.2590  0.4854  0.5466
  147SAPE  H18X16263   3.014   3.592   8.141 -1.0874  1.5229 -0.6190
  147SAPE  H18Y16264   2.964   3.530   7.981  1.3828 -0.8792 -0.2605
  147SAPE  H18Z16265   3.093   3.444   8.077  0.9930  1.4063  2.9664
  148SAPE     N16266   1.735   2.269   6.250  0.1477 -0.0887 -0.0405
  148SAPE   HN116267   1.735   2.312   6.156 -1.4008 -1.2089 -0.5898
  148SAPE   HN216268   1.738   2.344   6.322  2.3274 -0.1455 -0.0021
  148SAPE   HN316269   1.817   2.205   6.260  0.5124  0.4355  0.3653
  148SAPE   C1216270   1.600   2.202   6.257 -0.4947  0.1786 -0.7380
  148SAPE  H12A16271   1.608   2.138   6.348  2.1953 -0.0942 -1.0889
  148SAPE  H12B16272   1.594   2.141   6.165  1.7966 -0.2269 -0.6751
  148SAPE   C1116273   1.478   2.297   6.260 -0.1380  0.2037 -0.5414
  148SAPE  H11A16274   1.389   2.241   6.297  0.8646 -0.7607  0.5018
  148SAPE  H11B16275   1.455   2.347   6.164  0.7275  0.4170 -0.6441
  148SAPE     P16276   1.473   2.387   6.510 -0.1777  0.5236 -0.0513
  148SAPE   O1316277   1.571   2.454   6.597 -0.0965  0.0176 -0.0202
  148SAPE   O1416278   1.328   2.434   6.518 -0.1405  0.2425  0.3724
  148SAPE   O1216279   1.520   2.401   6.355 -0.0379 -0.3373 -0.5129
  148SAPE   O1116280   1.491   2.237   6.537 -0.0345 -0.1613  0.1452
  148SAPE    C116281   1.573   2.179   6.634  0.0529 -0.2934 -0.0423
  148SAPE    HA16282   1.592   2.074   6.603 -0.0222 -0.5652  0.8030
  148SAPE    HB16283   1.675   2.221   6.643  1.2580 -3.0191 -0.1018
  148SAPE    C216284   1.512   2.173   6.778 -0.0428  0.0505  1.2058
  148SAPE    HS16285   1.409   2.130   6.773  0.6424 -1.5626  0.3218
  148SAPE   O2116286   1.521   2.305   6.824 -0.2834  0.4755 -0.4053
  148SAPE   C2116287   1.416   2.350   6.885  0.6977 -0.1088 -0.0824
  148SAPE   O2216288   1.311   2.290   6.906 -0.5615  0.0113  0.2359
  148SAPE   C2216289   1.442   2.497   6.915 -0.3608 -0.7723  0.3520
  148SAPE   H2R16290   1.545   2.531   6.936 -0.8545  0.6492  0.5765
  148SAPE   H2S16291   1.412   2.551   6.822 -1.4208 -0.6345  0.7569
  148SAPE    C316292   1.590   2.073   6.874 -0.5724 -0.2372 -0.4953
  148SAPE    HX16293   1.693   2.111   6.854 -0.6108  0.5284  0.6445
  148SAPE    HY16294   1.576   1.970   6.835 -1.2091 -0.9811  1.5824
  148SAPE   O3116295   1.564   2.096   7.012  0.5778 -0.4331 -0.0942
  148SAPE   C3116296   1.449   2.054   7.057  0.2063 -0.2282 -0.2718
  148SAPE   O3216297   1.365   1.979   7.006 -0.3795 -0.3064 -0.2772
  148SAPE   C3216298   1.416   2.152   7.167  0.1921  0.0267 -0.6484
  148SAPE   H2X16299   1.332   2.220   7.140  1.2422  2.2399  1.2663
  148SAPE   H2Y16300   1.508   2.202   7.205  0.7308  0.2949 -2.2346
  148SAPE   C2316301   1.359   2.544   7.040  0.2765  0.1584 -0.8138
  148SAPE   H3R16302   1.324   2.454   7.095  1.2502  0.6443  0.6787
  148SAPE   H3S16303   1.270   2.593   6.995 -0.3991  1.3461  1.6296
  148SAPE   C2416304   1.433   2.635   7.145  0.8933 -0.0220  0.8708
  148SAPE   H4R16305   1.466   2.731   7.101  1.3635  0.0670  1.4080
  148SAPE   H4S16306   1.525   2.585   7.182 -0.0941 -0.2748  3.1595
  148SAPE   C2516307   1.339   2.651   7.265 -0.0413 -0.3803  0.8987
  148SAPE   H5R16308   1.264   2.728   7.244  1.0925  0.8174  1.1014
  148SAPE   C2616309   1.350   2.606   7.390 -0.4595  0.3635 -0.4907
  148SAPE   H6R16310   1.271   2.642   7.458 -0.0278 -0.8938  0.7285
  148SAPE   C2716311   1.467   2.519   7.432  0.5464  0.0823 -0.2207
  148SAPE   H7R16312   1.479   2.432   7.363  0.9096 -0.3574  0.3893
  148SAPE   H7S16313   1.437   2.473   7.528  2.5598  0.1998  0.5048
  148SAPE   C2816314   1.595   2.589   7.463 -0.0901 -0.1038 -0.1791
  148SAPE   H8R16315   1.666   2.581   7.379 -1.9128  2.4695 -2.1044
  148SAPE   C2916316   1.637   2.641   7.582 -0.2365  0.4330  0.7965
  148SAPE   H9R16317   1.731   2.697   7.578  0.2926 -0.4405  0.5288
  148SAPE  C21016318   1.557   2.649   7.712  0.4759 -0.4531  0.0964
  148SAPE  H10R16319   1.627   2.604   7.786  0.5912 -0.4014  0.0184
  148SAPE  H10S16320   1.466   2.585   7.720 -0.3831  0.6153 -0.7991
  148SAPE  C21116321   1.517   2.797   7.730 -0.0379 -0.1688 -0.2003
  148SAPE  H11R16322   1.485   2.852   7.640  0.8602 -0.0785 -0.4806
  148SAPE  C21216323   1.524   2.862   7.845  0.3278 -0.2042 -0.4522
  148SAPE  H12R16324   1.484   2.963   7.858 -0.3116 -0.8594  4.2721
  148SAPE  C21316325   1.578   2.814   7.978 -0.6646  0.6997 -0.1793
  148SAPE  H13R16326   1.636   2.885   8.040  0.5708 -0.7433  0.3684
  148SAPE  H13S16327   1.640   2.723   7.963 -1.4701  0.3432 -1.4764
  148SAPE  C21416328   1.468   2.772   8.071  0.1194 -0.0860 -0.0409
  148SAPE  H14R16329   1.395   2.854   8.081  2.6475  2.0960  2.3062
  148SAPE  C21516330   1.451   2.654   8.140  0.0828 -0.2936  0.6352
  148SAPE  H15R16331   1.361   2.640   8.202 -2.2202  1.7193 -1.9460
  148SAPE  C21616332   1.537   2.527   8.128 -0.1259  1.0370 -0.9344
  148SAPE  H16R16333   1.641   2.551   8.097  0.7562 -0.5847  0.5608
  148SAPE  H16S16334   1.501   2.454   8.053  0.6075 -1.6976  1.1695
  148SAPE  C21716335   1.543   2.440   8.254  0.1963 -0.1326  0.4995
  148SAPE  H17R16336   1.568   2.333   8.234  1.6993  0.3918 -0.5359
  148SAPE  H17S16337   1.448   2.444   8.311 -0.8072 -0.3420 -1.0815
  148SAPE  C21816338   1.635   2.500   8.357 -0.7682  0.0451  0.8691
  148SAPE  H18R16339   1.630   2.609   8.378  1.3425  1.2140 -3.4172
  148SAPE  H18S16340   1.736   2.486   8.311 -0.7479 -2.1937  1.4683
  148SAPE  C21916341   1.614   2.434   8.490 -0.1374 -1.4598  0.0361
  148SAPE  H19R16342   1.636   2.326   8.481 -0.3532 -1.4501 -0.6298
  148SAPE  H19S16343   1.516   2.451   8.539 -0.1326 -0.4250 -0.2908
  148SAPE  C22016344   1.716   2.493   8.586 -1.3292  0.7495 -0.1310
  148SAPE  H20R16345   1.705   2.452   8.689 -0.0742 -0.6239 -0.5234
  148SAPE  H20S16346   1.708   2.603   8.598  1.5723  1.0868 -0.5714
  148SAPE  H20T16347   1.821   2.484   8.552 -0.1773  0.6674  3.1253
  148SAPE   C3316348   1.383   2.062   7.293  0.1020  0.0597  0.4424
  148SAPE   H3X16349   1.466   1.999   7.331 -1.1588 -0.9131  1.6599
  148SAPE   H3Y16350   1.303   1.992   7.263 -0.7744  0.4632  1.7777
  148SAPE   C3416351   1.334   2.157   7.401  0.5753  0.2951 -0.3682
  148SAPE   H4X16352   1.275   2.237   7.352  0.3385  1.0003  1.0352
  148SAPE   H4Y16353   1.419   2.218   7.437 -1.0447  1.2419  2.1299
  148SAPE   C3516354   1.276   2.086   7.521 -0.3568 -0.1834 -0.7391
  148SAPE   H5X16355   1.344   2.010   7.564  1.7633  1.6716 -0.6123
  148SAPE   H5Y16356   1.185   2.030   7.489  0.0687 -2.9295  2.4002
  148SAPE   C3616357   1.222   2.190   7.630  0.3001 -0.1152 -0.2566
  148SAPE   H6X16358   1.147   2.257   7.583 -0.9574 -1.4387 -0.2135
  148SAPE   H6Y16359   1.304   2.256   7.665  0.0815  0.2975 -0.5081
  148SAPE   C3716360   1.152   2.113   7.739  0.2515 -0.1462  0.2221
  148SAPE   H7X16361   1.064   2.053   7.705 -0.9086  1.3433  0.5159
  148SAPE   H7Y16362   1.111   2.196   7.801 -1.0381 -0.8673  0.3894
  148SAPE   C3816363   1.249   2.038   7.841  0.3375  0.0751  0.0790
  148SAPE   H8X16364   1.320   2.117   7.876 -0.8790 -0.2849  3.8071
  148SAPE   H8Y16365   1.307   1.949   7.808  1.4089  0.5740  0.5615
  148SAPE   C3916366   1.170   2.002   7.972 -0.1790  0.5291  0.2259
  148SAPE   H9X16367   1.093   1.929   7.941 -1.4774  2.5286 -1.5269
  148SAPE   H9Y16368   1.123   2.089   8.023 -2.3196 -0.6381  0.3557
  148SAPE  C31016369   1.265   1.936   8.074  0.5001  0.0223 -0.6250
  148SAPE  H10X16370   1.337   2.013   8.110 -0.2033  0.1012  0.6482
  148SAPE  H10Y16371   1.319   1.854   8.023 -0.3233 -0.1410 -1.2485
  148SAPE  C31116372   1.197   1.877   8.199  0.0136 -0.3783  0.3947
  148SAPE  H11X16373   1.097   1.925   8.202 -0.5227 -1.5285  2.2948
  148SAPE  H11Y16374   1.242   1.916   8.293 -2.3661  0.2828  1.3526
  148SAPE  C31216375   1.172   1.725   8.196  0.3001 -0.7260 -0.6239
  148SAPE  H12X16376   1.264   1.664   8.208 -0.1975 -1.0340  2.1126
  148SAPE  H12Y16377   1.143   1.713   8.089 -0.4497  0.2712 -0.5534
  148SAPE  C31316378   1.065   1.673   8.288 -0.1261 -0.0408  0.1338
  148SAPE  H13X16379   0.959   1.699   8.266 -0.6551 -3.4713 -2.1159
  148SAPE  H13Y16380   1.075   1.705   8.394 -2.1949 -1.3546  0.8040
  148SAPE  C31416381   1.074   1.521   8.291  0.6614 -0.3726  0.0423
  148SAPE  H14X16382   1.156   1.488   8.358 -0.6727 -1.4905  1.1716
  148SAPE  H14Y16383   1.099   1.476   8.192 -0.2102 -1.3820  0.2674
  148SAPE  C31516384   0.948   1.453   8.339  0.5080 -0.5557 -0.0169
  148SAPE  H15X16385   0.859   1.481   8.280 -0.7372  1.2212  2.5164
  148SAPE  H15Y16386   0.924   1.485   8.443 -0.4793  3.8006 -1.3976
  148SAPE  C31616387   0.963   1.299   8.339 -0.2901 -0.1286 -0.8462
  148SAPE  H16X16388   1.057   1.272   8.393  0.5588  0.4179 -2.0024
  148SAPE  H16Y16389   0.978   1.274   8.232 -1.0455 -1.4390 -0.6557
  148SAPE  C31716390   0.844   1.221   8.398  0.0147 -0.6834 -0.1447
  148SAPE  H17X16391   0.839   1.254   8.504 -1.0011  1.4132 -0.8021
  148SAPE  H17Y16392   0.859   1.111   8.397  0.3238 -0.6430 -0.0153
  148SAPE  C31816393   0.711   1.269   8.343 -0.7506  0.0415  0.5303
  148SAPE  H18X16394   0.625   1.209   8.379 -2.0271  1.2862 -0.3226
  148SAPE  H18Y16395   0.712   1.252   8.233 -0.5812  0.9279  0.3873
  148SAPE  H18Z16396   0.691   1.376   8.366  1.6703  0.2541  1.9513
  149SAPE     N16397   1.088   2.488   6.635 -0.6641  0.0819 -0.2738
  149SAPE   HN116398   1.178   2.466   6.587 -0.2935  0.9858 -0.0144
  149SAPE   HN216399   1.003   2.497   6.575 -1.3381  2.7277  0.9464
  149SAPE   HN316400   1.103   2.589   6.652 -3.1454  0.5922 -0.7670
  149SAPE   C1216401   1.061   2.406   6.748 -0.2764 -0.3724 -0.0508
  149SAPE  H12A16402   0.956   2.420   6.783 -0.3971 -0.9195 -0.1911
  149SAPE  H12B16403   1.130   2.439   6.829  1.5892 -1.8297 -0.9615
  149SAPE   C1116404   1.091   2.257   6.711  0.5454  0.3553 -0.9217
  149SAPE  H11A16405   1.102   2.197   6.804  1.7248  1.0411 -0.6034
  149SAPE  H11B16406   1.195   2.262   6.674  0.7724 -0.0440 -0.3507
  149SAPE     P16407   0.967   2.035   6.627  0.2490  0.1590  0.2993
  149SAPE   O1316408   0.930   1.986   6.490 -0.1377 -0.0021 -0.3022
  149SAPE   O1416409   1.075   1.962   6.690  0.0571  0.3302 -0.2990
  149SAPE   O1216410   0.997   2.194   6.618  0.2219  0.5339  0.0269
  149SAPE   O1116411   0.834   2.030   6.716  0.2312 -0.0898  0.4052
  149SAPE    C116412   0.763   2.152   6.754 -0.7545 -0.3499  0.0556
  149SAPE    HA16413   0.833   2.237   6.767  1.3078 -1.4975 -2.5772
  149SAPE    HB16414   0.695   2.183   6.672 -0.8935 -0.7328  0.0227
  149SAPE    C216415   0.672   2.112   6.873 -0.1941  0.2752  0.0103
  149SAPE    HS16416   0.629   2.210   6.903  1.3724  0.5217  1.6668
  149SAPE   O2116417   0.748   2.054   6.981 -0.1154 -0.2921 -0.3219
  149SAPE   C2116418   0.838   2.139   7.042 -0.4839  0.1153  0.1927
  149SAPE   O2216419   0.829   2.261   7.035  0.2258  0.0385  0.0643
  149SAPE   C2216420   0.946   2.060   7.115  0.1295 -0.3153  0.9538
  149SAPE   H2R16421   0.975   1.973   7.052  0.5464  1.5809 -1.6232
  149SAPE   H2S16422   1.045   2.110   7.104  2.4252 -4.6383 -0.5058
  149SAPE    C316423   0.559   2.019   6.820 -0.4731 -0.6353 -1.1192
  149SAPE    HX16424   0.604   1.920   6.798 -2.1203 -1.3456 -1.4372
  149SAPE    HY16425   0.535   2.058   6.718 -1.0505 -1.7186 -1.4089
  149SAPE   O3116426   0.442   2.015   6.906  0.3321  0.2448  0.2181
  149SAPE   C3116427   0.334   2.091   6.885 -0.5884  0.2632  0.3901
  149SAPE   O3216428   0.317   2.159   6.786 -0.5511  0.2359  0.1317
  149SAPE   C3216429   0.242   2.085   7.007  0.9960 -0.1210 -0.1196
  149SAPE   H2X16430   0.240   1.980   7.043  1.3969  0.0236  0.3240
  149SAPE   H2Y16431   0.136   2.105   6.979  0.7374 -0.4607  0.5832
  149SAPE   C2316432   0.921   2.042   7.264  0.2522 -0.5799  1.1409
  149SAPE   H3R16433   0.855   2.117   7.311 -0.3653  0.3179 -1.0460
  149SAPE   H3S16434   1.021   2.053   7.312  0.2274 -0.6509  1.2091
  149SAPE   C2416435   0.849   1.906   7.306  0.1038 -0.0346  0.7039
  149SAPE   H4R16436   0.875   1.897   7.414 -1.6925 -0.3976  1.1414
  149SAPE   H4S16437   0.901   1.824   7.253  3.5689  0.9555  2.2902
  149SAPE   C2516438   0.700   1.910   7.271  0.3416  0.3046  0.5244
  149SAPE   H5R16439   0.668   1.894   7.166 -0.2604 -0.2448  0.7799
  149SAPE   C2616440   0.606   1.933   7.359  0.2423  0.5931  0.1914
  149SAPE   H6R16441   0.500   1.922   7.331 -0.3603 -1.0287  2.7233
  149SAPE   C2716442   0.617   1.956   7.508  0.0537 -0.1319  0.6791
  149SAPE   H7R16443   0.697   1.889   7.546 -0.3399 -1.7014 -1.0760
  149SAPE   H7S16444   0.525   1.912   7.553  0.2901  0.8648  2.2073
  149SAPE   C2816445   0.620   2.095   7.560  0.1263 -0.2220  0.0870
  149SAPE   H8R16446   0.577   2.172   7.493 -0.2346 -0.2140  0.3231
  149SAPE   C2916447   0.686   2.135   7.671 -0.0907  0.0794 -0.2077
  149SAPE   H9R16448   0.702   2.240   7.696  1.5143 -0.4414  1.1221
  149SAPE  C21016449   0.778   2.043   7.747 -0.6439  0.3505 -0.1149
  149SAPE  H10R16450   0.856   2.104   7.799 -1.4738  0.2210  1.3177
  149SAPE  H10S16451   0.829   1.970   7.681 -0.8090 -0.3823  0.5609
  149SAPE  C21116452   0.715   1.970   7.856  0.3366 -0.2656  0.0808
  149SAPE  H11R16453   0.652   1.889   7.817 -2.2914  1.7887 -0.2306
  149SAPE  C21216454   0.724   1.984   7.990 -0.6025  0.4219  0.2363
  149SAPE  H12R16455   0.667   1.915   8.054  0.6640  1.7253  2.9303
  149SAPE  C21316456   0.812   2.087   8.056 -0.4049  0.0933 -0.0919
  149SAPE  H13R16457   0.894   2.123   7.990 -0.7239  2.4301  0.7000
  149SAPE  H13S16458   0.869   2.040   8.139  0.0049  2.0407  0.7769
  149SAPE  C21416459   0.732   2.206   8.097  0.4424  0.0520  0.2586
  149SAPE  H14R16460   0.691   2.266   8.014  2.4254  0.8540 -0.1961
  149SAPE  C21516461   0.705   2.241   8.227 -0.9293 -0.2300  0.2366
  149SAPE  H15R16462   0.661   2.338   8.254 -1.7345 -0.9777  1.6908
  149SAPE  C21616463   0.749   2.167   8.351  1.1743  0.0890 -0.6814
  149SAPE  H16R16464   0.833   2.228   8.390  1.7073 -1.0083 -0.0623
  149SAPE  H16S16465   0.784   2.064   8.328 -2.0235 -1.3003  0.1315
  149SAPE  C21716466   0.653   2.149   8.470  0.7339 -0.1495  0.1963
  149SAPE  H17R16467   0.713   2.136   8.563 -2.0790  1.4164  2.3661
  149SAPE  H17S16468   0.592   2.059   8.448  1.1274  0.3498 -3.6137
  149SAPE  C21816469   0.559   2.269   8.499 -0.2907 -0.5489 -0.3444
  149SAPE  H18R16470   0.478   2.267   8.423 -0.7327 -0.3456  0.1121
  149SAPE  H18S16471   0.626   2.357   8.502  0.2087 -0.9499  1.4278
  149SAPE  C21916472   0.495   2.257   8.639 -0.2795 -0.1714 -0.6598
  149SAPE  H19R16473   0.418   2.337   8.648  1.1827  1.4943 -2.2686
  149SAPE  H19S16474   0.568   2.272   8.721 -0.9459  1.9310 -0.3842
  149SAPE  C22016475   0.431   2.121   8.670 -0.4506 -0.8434 -0.0703
  149SAPE  H20R16476   0.382   2.094   8.574  0.1630 -0.5018 -0.4907
  149SAPE  H20S16477   0.356   2.123   8.752  0.6118 -1.1664  0.9266
  149SAPE  H20T16478   0.505   2.040   8.683 -0.5197 -1.0269 -0.7825
  149SAPE   C3316479   0.292   2.168   7.127 -0.2544  0.2288  0.2930
  149SAPE   H3X16480   0.291   2.272   7.086 -0.0042 -0.7040 -2.2682
  149SAPE   H3Y16481   0.399   2.149   7.149  0.1415  0.6724 -1.1166
  149SAPE   C3416482   0.217   2.155   7.259  0.5200 -0.2988 -0.2247
  149SAPE   H4X16483   0.195   2.048   7.282 -1.1854 -0.3916 -2.0342
  149SAPE   H4Y16484   0.117   2.200   7.246  0.3126 -0.1370  1.6631
  149SAPE   C3516485   0.281   2.217   7.379 -0.5691 -0.5668  0.3184
  149SAPE   H5X16486   0.385   2.178   7.377 -0.5985 -0.7193 -3.0566
  149SAPE   H5Y16487   0.243   2.166   7.470 -1.1399 -0.0178  0.3934
  149SAPE   C3616488   0.288   2.369   7.373  0.4590  0.6882  0.9951
  149SAPE   H6X16489   0.184   2.407   7.367 -0.6900 -2.1262  1.3492
  149SAPE   H6Y16490   0.337   2.414   7.284  0.2385 -0.0148  0.5125
  149SAPE   C3716491   0.359   2.437   7.488  0.3096 -1.1184 -0.6675
  149SAPE   H7X16492   0.396   2.537   7.457 -0.8078 -0.4153  0.1988
  149SAPE   H7Y16493   0.436   2.366   7.524  0.5358 -1.1505 -1.2058
  149SAPE   C3816494   0.255   2.469   7.600  0.1877  0.1150 -0.3145
  149SAPE   H8X16495   0.226   2.365   7.628  2.0779  0.0718  1.7454
  149SAPE   H8Y16496   0.174   2.536   7.563  0.7652  0.8864 -0.1966
  149SAPE   C3916497   0.321   2.531   7.729  0.0431  0.5985 -0.3652
  149SAPE   H9X16498   0.233   2.572   7.783 -0.0787 -2.2706  1.8472
  149SAPE   H9Y16499   0.401   2.605   7.705 -0.4471  1.6375  1.0494
  149SAPE  C31016500   0.370   2.420   7.817  0.4190 -0.3271  0.9272
  149SAPE  H10X16501   0.439   2.362   7.753 -1.2906  0.2175 -1.5143
  149SAPE  H10Y16502   0.289   2.350   7.845 -0.6300  0.8297  0.8662
  149SAPE  C31116503   0.432   2.470   7.944  0.6936 -0.3636 -0.5487
  149SAPE  H11X16504   0.514   2.539   7.916 -0.8027  1.5631 -0.3629
  149SAPE  H11Y16505   0.488   2.391   8.000  1.3678  0.8617  0.5564
  149SAPE  C31216506   0.333   2.543   8.047  0.7024  0.7885  0.0554
  149SAPE  H12X16507   0.237   2.489   8.060  0.5932  1.0595  0.4034
  149SAPE  H12Y16508   0.315   2.647   8.012 -0.6487  0.7032  0.4361
  149SAPE  C31316509   0.395   2.536   8.191  0.8844  0.0115 -0.0552
  149SAPE  H13X16510   0.503   2.564   8.185  0.1499  2.9264 -1.7193
  149SAPE  H13Y16511   0.399   2.430   8.223  1.2265  0.0742  0.1229
  149SAPE  C31416512   0.315   2.613   8.300  0.4264  0.2277  0.7210
  149SAPE  H14X16513   0.222   2.553   8.296 -1.4296  2.9743 -2.1887
  149SAPE  H14Y16514   0.286   2.714   8.262 -0.3936  0.1708  1.1647
  149SAPE  C31516515   0.393   2.625   8.433  0.2261  0.5686 -0.0893
  149SAPE  H15X16516   0.495   2.668   8.420  0.9266 -0.8053  0.6917
  149SAPE  H15Y16517   0.411   2.520   8.463  0.7112  0.1050 -1.8457
  149SAPE  C31616518   0.323   2.707   8.537  0.5274  0.2659 -0.1503
  149SAPE  H16X16519   0.224   2.656   8.539 -0.0277  1.3459  0.5615
  149SAPE  H16Y16520   0.300   2.804   8.489 -1.0296 -0.7052 -1.4721
  149SAPE  C31716521   0.396   2.733   8.673  0.5769 -0.1679 -0.3740
  149SAPE  H17X16522   0.329   2.809   8.718 -0.1822 -0.0388 -1.6773
  149SAPE  H17Y16523   0.500   2.768   8.657  0.3135 -0.4130 -3.0313
  149SAPE  C31816524   0.403   2.611   8.766  0.6174 -0.4640 -0.8741
  149SAPE  H18X16525   0.297   2.579   8.776  0.7105 -1.8444 -3.4150
  149SAPE  H18Y16526   0.434   2.647   8.866 -2.1389  0.3782 -0.2257
  149SAPE  H18Z16527   0.468   2.530   8.728 -1.3380 -1.3667 -2.4973
  150SAPE     N16528   6.241   4.792   6.231 -0.4207 -0.6175  0.4154
  150SAPE   HN116529   6.335   4.747   6.236  0.7038  1.6266  0.6037
  150SAPE   HN216530   6.253   4.894   6.248  0.1809 -0.5738 -0.2056
  150SAPE   HN316531   6.182   4.746   6.303 -0.4375  1.8550  2.0895
  150SAPE   C1216532   6.208   4.793   6.086 -0.7185  0.2450 -0.6751
  150SAPE  H12A16533   6.143   4.881   6.070 -1.3545 -0.1710 -0.4171
  150SAPE  H12B16534   6.164   4.695   6.059  0.3217 -0.5118  0.2627
  150SAPE   C1116535   6.339   4.807   5.999  0.5858 -0.5508 -0.9945
  150SAPE  H11A16536   6.403   4.895   6.021 -0.9555 -0.0143  1.7920
  150SAPE  H11B16537   6.300   4.809   5.895 -2.1211  0.0548 -0.0507
  150SAPE     P16538   6.562   4.684   6.061 -0.2249  0.2874  0.2416
  150SAPE   O1316539   6.614   4.546   6.058 -0.2266 -0.0248  0.4038
  150SAPE   O1416540   6.637   4.797   5.993 -0.4943  0.2036 -0.4834
  150SAPE   O1216541   6.411   4.684   6.006 -0.0307  0.2165 -0.4855
  150SAPE   O1116542   6.521   4.739   6.202  0.1336 -0.0553  0.5433
  150SAPE    C116543   6.598   4.818   6.293  0.0590  0.6608  0.2041
  150SAPE    HA16544   6.648   4.896   6.231  1.0589 -0.4252 -0.3936
  150SAPE    HB16545   6.526   4.879   6.351  0.5713  2.1064 -0.6234
  150SAPE    C216546   6.707   4.726   6.356 -0.2423  0.5685 -0.2856
  150SAPE    HS16547   6.757   4.673   6.271  1.2076 -0.3433  1.0743
  150SAPE   O2116548   6.638   4.631   6.433  0.4157  0.6702 -0.5718
  150SAPE   C2116549   6.698   4.512   6.455  0.3754  0.0840  0.1149
  150SAPE   O2216550   6.791   4.467   6.394 -0.0327 -0.5454 -0.0295
  150SAPE   C2216551   6.622   4.434   6.565 -0.0980 -0.1984  0.3200
  150SAPE   H2R16552   6.547   4.485   6.630 -1.5067 -1.0220 -0.5982
  150SAPE   H2S16553   6.566   4.354   6.512 -2.1254  1.0722  0.4130
  150SAPE    C316554   6.814   4.801   6.435 -0.0039  1.0127 -0.0127
  150SAPE    HX16555   6.752   4.873   6.492  0.5791 -0.0158  2.0287
  150SAPE    HY16556   6.876   4.865   6.369 -0.1917  0.8980 -0.3015
  150SAPE   O3116557   6.893   4.719   6.526  0.6180  0.6387  0.5048
  150SAPE   C3116558   7.003   4.665   6.460  0.1122 -0.4383  0.7799
  150SAPE   O3216559   7.026   4.685   6.343  0.2206  0.2849 -0.3674
  150SAPE   C3216560   7.102   4.613   6.561 -0.0799 -0.4909 -0.5333
  150SAPE   H2X16561   7.065   4.627   6.665  1.3043  2.0387 -0.2962
  150SAPE   H2Y16562   7.205   4.651   6.545  0.7044 -1.3821  1.9268
  150SAPE   C2316563   6.731   4.364   6.656  0.2374  0.2184 -0.3194
  150SAPE   H3R16564   6.801   4.297   6.601  0.8229 -0.4115  1.1617
  150SAPE   H3S16565   6.683   4.299   6.732  1.4509 -1.6081 -1.0573
  150SAPE   C2416566   6.804   4.473   6.740 -0.0304 -0.5649  0.0098
  150SAPE   H4R16567   6.862   4.524   6.660 -0.8671  0.6517  0.1481
  150SAPE   H4S16568   6.891   4.436   6.798 -0.1560  1.1813  1.4045
  150SAPE   C2516569   6.722   4.572   6.812 -0.4273  0.1672 -0.2472
  150SAPE   H5R16570   6.657   4.641   6.757  1.4480  0.6777 -1.9812
  150SAPE   C2616571   6.723   4.579   6.948 -0.0746  0.0066 -0.2452
  150SAPE   H6R16572   6.666   4.658   6.998  1.9521  1.8146 -0.6781
  150SAPE   C2716573   6.797   4.496   7.052 -0.0757  0.4421 -0.5559
  150SAPE   H7R16574   6.836   4.402   7.009 -2.6404 -1.6490  1.2957
  150SAPE   H7S16575   6.719   4.458   7.122 -0.7756  0.8010 -1.1232
  150SAPE   C2816576   6.908   4.571   7.118 -0.2938  1.1364 -0.7423
  150SAPE   H8R16577   7.005   4.586   7.067  0.0240  0.6510 -0.2900
  150SAPE   C2916578   6.894   4.629   7.239  0.0905 -0.5684 -0.7371
  150SAPE   H9R16579   6.980   4.679   7.286  0.3752 -1.6083 -0.1272
  150SAPE  C21016580   6.772   4.622   7.335  0.1519 -0.1235  0.2097
  150SAPE  H10R16581   6.685   4.586   7.275  0.4870 -0.6833  0.0464
  150SAPE  H10S16582   6.757   4.726   7.371  1.8179 -0.3085  1.6128
  150SAPE  C21116583   6.813   4.520   7.438  0.2639  0.3375 -0.4837
  150SAPE  H11R16584   6.821   4.417   7.401  1.5021  0.3127 -0.1689
  150SAPE  C21216585   6.832   4.547   7.573  0.4676  0.5662 -0.2505
  150SAPE  H12R16586   6.858   4.466   7.643 -0.1806 -0.7002 -1.4069
  150SAPE  C21316587   6.819   4.678   7.642 -0.1371 -0.2807 -0.1404
  150SAPE  H13R16588   6.709   4.688   7.656 -0.0854  0.1121 -0.0173
  150SAPE  H13S16589   6.857   4.759   7.576 -0.7795 -0.9402 -1.3533
  150SAPE  C21416590   6.888   4.674   7.775 -0.5042 -0.4488  0.4351
  150SAPE  H14R16591   6.995   4.652   7.771 -0.6499 -1.1122 -0.1407
  150SAPE  C21516592   6.823   4.690   7.893 -0.2465  0.1096  0.3200
  150SAPE  H15R16593   6.884   4.706   7.983  0.5945 -1.3937  0.0583
  150SAPE  C21616594   6.679   4.711   7.913 -0.2663  0.0873 -0.5231
  150SAPE  H16R16595   6.616   4.636   7.861 -0.8536  0.9525 -1.0955
  150SAPE  H16S16596   6.657   4.798   7.847  0.7299  0.7860  0.0453
  150SAPE  C21716597   6.633   4.740   8.058 -0.7447 -0.2612 -0.6081
  150SAPE  H17R16598   6.609   4.640   8.100  1.4476 -1.0419 -1.0270
  150SAPE  H17S16599   6.541   4.801   8.047 -1.5309 -1.0972  1.0308
  150SAPE  C21816600   6.737   4.817   8.149 -0.0238 -0.7812 -0.5377
  150SAPE  H18R16601   6.775   4.904   8.090 -0.7039  0.9959  1.5073
  150SAPE  H18S16602   6.821   4.749   8.174 -1.0869 -2.0240 -0.2754
  150SAPE  C21916603   6.669   4.857   8.272  0.3226  0.6525 -0.9315
  150SAPE  H19R16604   6.748   4.882   8.345  1.1027  0.9589 -1.8514
  150SAPE  H19S16605   6.611   4.771   8.313  1.4083 -0.5829 -1.8797
  150SAPE  C22016606   6.574   4.978   8.263 -0.1922  0.6936 -0.4585
  150SAPE  H20R16607   6.507   4.962   8.175 -1.2964  1.0577  0.3030
  150SAPE  H20S16608   6.634   5.064   8.225  0.7554 -0.0999 -0.8125
  150SAPE  H20T16609   6.527   5.006   8.359  0.7516 -0.2057  0.3018
  150SAPE   C3316610   7.115   4.458   6.547 -0.7802  0.4990 -0.6455
  150SAPE   H3X16611   7.161   4.442   6.447 -0.4073 -2.1489 -0.1456
  150SAPE   H3Y16612   7.012   4.417   6.544 -0.1085 -1.3418  0.0838
  150SAPE   C3416613   7.195   4.396   6.658  0.7891 -0.3673 -0.1745
  150SAPE   H4X16614   7.175   4.459   6.748  0.0905 -0.1271 -0.4825
  150SAPE   H4Y16615   7.302   4.406   6.634  0.7005 -2.4010 -1.5847
  150SAPE   C3516616   7.142   4.253   6.697  0.0432 -0.5029 -0.2675
  150SAPE   H5X16617   7.146   4.197   6.601  0.4578 -0.1273 -0.4730
  150SAPE   H5Y16618   7.034   4.260   6.723  0.3069 -0.3647  0.8301
  150SAPE   C3616619   7.219   4.173   6.799  0.3854 -1.2007  0.2151
  150SAPE   H6X16620   7.322   4.170   6.758 -0.2359 -1.4037 -1.4177
  150SAPE   H6Y16621   7.184   4.068   6.788 -1.3958 -0.9721  2.7613
  150SAPE   C3716622   7.205   4.231   6.940 -0.3128 -0.9661 -0.1910
  150SAPE   H7X16623   7.107   4.198   6.982  0.2582 -1.1316  1.0554
  150SAPE   H7Y16624   7.210   4.341   6.934 -0.2593 -0.7945  2.1259
  150SAPE   C3816625   7.314   4.179   7.038  0.5306  0.0030  0.6372
  150SAPE   H8X16626   7.404   4.189   6.975 -0.1615 -1.7600 -0.7046
  150SAPE   H8Y16627   7.307   4.070   7.056  3.7328 -0.5166 -0.5843
  150SAPE   C3916628   7.314   4.256   7.174  0.0772 -0.6957 -0.5673
  150SAPE   H9X16629   7.352   4.359   7.155  0.6333 -0.4675  1.5903
  150SAPE   H9Y16630   7.386   4.211   7.245 -0.1454  0.9261  0.7246
  150SAPE  C31016631   7.169   4.257   7.235 -0.1033 -0.2582  0.6262
  150SAPE  H10X16632   7.133   4.153   7.245  1.5362 -1.1065 -1.5032
  150SAPE  H10Y16633   7.103   4.313   7.165  0.3751 -0.1986  0.2250
  150SAPE  C31116634   7.157   4.322   7.374 -0.4291 -0.6773 -0.0408
  150SAPE  H11X16635   7.050   4.326   7.403 -0.2489  0.6751  0.4951
  150SAPE  H11Y16636   7.205   4.420   7.356 -1.0660 -0.6094 -1.5521
  150SAPE  C31216637   7.230   4.245   7.484 -0.5886  0.4212  0.5425
  150SAPE  H12X16638   7.340   4.247   7.476 -0.6872 -0.2415 -1.6955
  150SAPE  H12Y16639   7.204   4.137   7.480  0.0673  0.2212  1.4546
  150SAPE  C31316640   7.202   4.310   7.616  0.2208  0.0407 -0.7939
  150SAPE  H13X16641   7.098   4.346   7.603 -0.0684 -0.5986 -0.2754
  150SAPE  H13Y16642   7.267   4.401   7.620  1.5290 -0.8777  2.8336
  150SAPE  C31416643   7.196   4.234   7.745 -0.4244  0.4551  0.5744
  150SAPE  H14X16644   7.174   4.128   7.720  1.7591 -0.8204  3.3377
  150SAPE  H14Y16645   7.116   4.270   7.813 -1.5278  2.0772 -1.4928
  150SAPE  C31516646   7.324   4.237   7.829 -0.3892  0.2346  0.3676
  150SAPE  H15X16647   7.416   4.227   7.766 -1.3571 -0.2058 -1.0226
  150SAPE  H15Y16648   7.317   4.163   7.911 -1.2697  0.4623  0.5070
  150SAPE  C31616649   7.351   4.376   7.894  0.1382  0.2307 -0.2526
  150SAPE  H16X16650   7.376   4.456   7.821 -1.8207 -1.9167 -3.5408
  150SAPE  H16Y16651   7.443   4.353   7.951  1.1406  0.4403 -1.7489
  150SAPE  C31716652   7.245   4.431   7.988  0.7075  0.4171  0.0752
  150SAPE  H17X16653   7.217   4.341   8.047 -0.3343  0.3274 -0.5437
  150SAPE  H17Y16654   7.163   4.479   7.930  0.1785 -0.0479  0.4279
  150SAPE  C31816655   7.307   4.526   8.087 -0.2487  0.3290 -0.3668
  150SAPE  H18X16656   7.358   4.609   8.034 -2.7446  1.7271 -0.7357
  150SAPE  H18Y16657   7.374   4.470   8.156 -0.1680 -1.4230 -1.7981
  150SAPE  H18Z16658   7.228   4.585   8.139 -0.9591  2.0969 -3.2470
  151SAPE     N16659   2.410   2.023   5.899 -0.9153 -0.0234 -0.2452
  151SAPE   HN116660   2.454   2.017   5.804  0.0918 -0.8428  0.2481
  151SAPE   HN216661   2.442   1.945   5.961 -0.7553 -0.4927 -0.9004
  151SAPE   HN316662   2.308   2.012   5.882 -0.5440 -0.8577 -2.2510
  151SAPE   C1216663   2.444   2.148   5.973  0.3269 -0.6025 -0.4145
  151SAPE  H12A16664   2.363   2.220   5.950  0.9921  0.5975  0.8858
  151SAPE  H12B16665   2.538   2.195   5.936 -0.7610  1.8539 -0.2563
  151SAPE   C1116666   2.457   2.132   6.132 -0.3129  0.1567  0.2286
  151SAPE  H11A16667   2.485   2.232   6.171  1.4239 -0.9104  1.8674
  151SAPE  H11B16668   2.542   2.067   6.160 -0.4066 -0.6347 -1.2438
  151SAPE     P16669   2.221   2.142   6.258 -0.0503 -0.2081 -0.0173
  151SAPE   O1316670   2.132   2.202   6.154  0.0100  0.2607 -0.3120
  151SAPE   O1416671   2.156   2.057   6.355 -0.1437  0.4687 -0.0923
  151SAPE   O1216672   2.342   2.071   6.185 -0.5061 -0.0642  0.0245
  151SAPE   O1116673   2.298   2.252   6.337  0.2127  0.0143  0.5805
  151SAPE    C116674   2.401   2.211   6.429 -0.6095 -0.5017  0.4837
  151SAPE    HA16675   2.431   2.107   6.403 -1.5423 -0.3043 -1.5949
  151SAPE    HB16676   2.494   2.269   6.408 -0.3726 -1.2313 -0.5770
  151SAPE    C216677   2.338   2.212   6.571  0.1100 -0.2403  0.7457
  151SAPE    HS16678   2.229   2.210   6.553  0.0232  2.3606  0.5765
  151SAPE   O2116679   2.386   2.328   6.641 -0.2013 -0.0512 -1.0620
  151SAPE   C2116680   2.298   2.391   6.710 -0.5462 -0.1205 -0.1377
  151SAPE   O2216681   2.185   2.367   6.731  0.3003 -0.0235  0.1693
  151SAPE   C2216682   2.378   2.504   6.780  0.7852  0.2454  0.9949
  151SAPE   H2R16683   2.465   2.539   6.720 -0.5302  1.0963 -0.4842
  151SAPE   H2S16684   2.311   2.593   6.776  1.6222  0.9417  2.0015
  151SAPE    C316685   2.388   2.086   6.646 -0.3840  0.2921  0.1294
  151SAPE    HX16686   2.496   2.096   6.665 -0.7482  0.5827  2.2964
  151SAPE    HY16687   2.363   1.997   6.585  2.1568 -0.6027  0.2912
  151SAPE   O3116688   2.321   2.079   6.769 -0.4356 -0.4245 -0.0115
  151SAPE   C3116689   2.265   1.964   6.805 -0.0127  0.1546  0.6457
  151SAPE   O3216690   2.234   1.872   6.730  0.2951  0.4906 -0.1788
  151SAPE   C3216691   2.251   1.962   6.953  0.2530 -0.4153 -0.3735
  151SAPE   H2X16692   2.188   2.049   6.983  0.8747 -0.1891  0.3359
  151SAPE   H2Y16693   2.344   1.998   7.001  0.9194 -0.3763 -1.6539
  151SAPE   C2316694   2.411   2.470   6.933  0.3565 -0.2929 -0.2187
  151SAPE   H3R16695   2.325   2.421   6.983 -0.7504 -0.9218 -2.5958
  151SAPE   H3S16696   2.435   2.568   6.977 -1.4982 -0.8878  2.3689
  151SAPE   C2416697   2.540   2.401   6.941 -0.2316 -0.1109 -0.4825
  151SAPE   H4R16698   2.627   2.470   6.931 -0.2125  0.0918  0.8533
  151SAPE   H4S16699   2.560   2.331   6.857  1.5357  0.7777 -0.8589
  151SAPE   C2516700   2.543   2.333   7.076 -0.0865  0.4075  0.2318
  151SAPE   H5R16701   2.478   2.244   7.080  0.9553 -0.5220 -1.9211
  151SAPE   C2616702   2.632   2.359   7.177 -0.3149  0.0065  0.1699
  151SAPE   H6R16703   2.633   2.295   7.267 -2.5750 -0.0612  0.2025
  151SAPE   C2716704   2.737   2.463   7.176 -0.1684 -0.3311 -0.0242
  151SAPE   H7R16705   2.763   2.491   7.072  0.4635 -1.7761 -0.2687
  151SAPE   H7S16706   2.829   2.431   7.228 -1.0504 -2.9446  0.0541
  151SAPE   C2816707   2.686   2.595   7.234 -0.0560  0.0162  0.3549
  151SAPE   H8R16708   2.591   2.629   7.188 -1.9605 -0.8050  3.3639
  151SAPE   C2916709   2.737   2.684   7.318  0.2330  0.1701  0.0673
  151SAPE   H9R16710   2.681   2.776   7.339 -0.1029  0.0259 -0.1940
  151SAPE  C21016711   2.872   2.671   7.391  0.0304  0.2775 -1.0863
  151SAPE  H10R16712   2.956   2.724   7.341  0.0313  0.2279 -1.1364
  151SAPE  H10S16713   2.900   2.564   7.385  0.8027  0.5055 -1.6605
  151SAPE  C21116714   2.876   2.718   7.529 -0.2016 -0.0257 -0.6784
  151SAPE  H11R16715   2.890   2.634   7.599 -0.5975 -1.2980 -2.0791
  151SAPE  C21216716   2.877   2.853   7.573 -0.1223  0.4930  0.3662
  151SAPE  H12R16717   2.857   2.886   7.676  2.2233  5.3635 -0.4244
  151SAPE  C21316718   2.868   2.963   7.466 -0.0919  0.2326  0.6321
  151SAPE  H13R16719   2.892   2.918   7.368  3.0830  2.9362  0.0054
  151SAPE  H13S16720   2.940   3.043   7.492  2.6799 -1.6516 -0.6881
  151SAPE  C21416721   2.725   3.016   7.446 -0.2541  0.0074 -0.3493
  151SAPE  H14R16722   2.644   2.960   7.494 -0.0241 -1.3871 -1.4936
  151SAPE  C21516723   2.690   3.120   7.367  0.4503 -0.6705  0.2340
  151SAPE  H15R16724   2.586   3.155   7.354  0.1743 -0.6820  2.2132
  151SAPE  C21616725   2.778   3.204   7.281 -0.0398 -0.3811 -0.4048
  151SAPE  H16R16726   2.869   3.214   7.344  0.5728  0.8362 -1.4155
  151SAPE  H16S16727   2.739   3.307   7.268 -0.7829 -0.6613 -0.4534
  151SAPE  C21716728   2.799   3.156   7.135 -0.4159 -0.5071 -0.2625
  151SAPE  H17R16729   2.702   3.140   7.083 -0.8838  0.5803  0.2455
  151SAPE  H17S16730   2.850   3.059   7.150  0.2993  0.1773  2.2475
  151SAPE  C21816731   2.874   3.265   7.049 -0.3764 -0.0863 -0.0556
  151SAPE  H18R16732   2.974   3.280   7.096 -1.1893 -0.7711  1.9929
  151SAPE  H18S16733   2.808   3.353   7.063 -0.2239  0.3016 -1.6054
  151SAPE  C21916734   2.881   3.224   6.900 -0.2861 -0.0447 -0.0834
  151SAPE  H19R16735   2.893   3.307   6.827 -1.3288  0.0644 -0.1388
  151SAPE  H19S16736   2.784   3.181   6.866  0.5364  0.9616 -4.2095
  151SAPE  C22016737   2.990   3.122   6.866 -0.5568  0.4214 -0.5010
  151SAPE  H20R16738   3.091   3.157   6.898 -1.8497  1.9251  2.3993
  151SAPE  H20S16739   2.965   3.018   6.893 -1.0592  1.0158  1.4858
  151SAPE  H20T16740   2.989   3.123   6.755  1.0266  2.7602 -0.5850
  151SAPE   C3316741   2.209   1.825   7.012  0.2070  0.8913 -1.5094
  151SAPE   H3X16742   2.290   1.750   7.000 -0.5885 -0.1831 -0.3923
  151SAPE   H3Y16743   2.119   1.786   6.959 -1.2838 -1.6354  2.4214
  151SAPE   C3416744   2.162   1.842   7.154  0.0659 -0.0096 -1.0760
  151SAPE   H4X16745   2.082   1.918   7.165 -0.0638 -0.1406 -1.1172
  151SAPE   H4Y16746   2.249   1.890   7.204 -1.3870  0.6859  0.9503
  151SAPE   C3516747   2.116   1.718   7.231 -0.4451  0.0605  0.0122
  151SAPE   H5X16748   2.189   1.635   7.240  0.0124 -0.1984 -4.2026
  151SAPE   H5Y16749   2.028   1.684   7.172 -0.7063  0.3662  0.2232
  151SAPE   C3616750   2.067   1.749   7.373  0.7523  0.3572 -0.4048
  151SAPE   H6X16751   1.976   1.812   7.382 -1.0140 -2.0560 -0.3840
  151SAPE   H6Y16752   2.149   1.810   7.416 -0.7104  3.0434 -1.1931
  151SAPE   C3716753   2.036   1.622   7.454  0.0342  0.5018  0.0117
  151SAPE   H7X16754   2.104   1.537   7.433  0.4497  0.5825  0.9773
  151SAPE   H7Y16755   1.938   1.578   7.427  1.0487 -2.2385  0.4854
  151SAPE   C3816756   2.014   1.662   7.604 -0.3117  0.8046 -0.3541
  151SAPE   H8X16757   1.951   1.753   7.615 -0.1558  0.7663  0.9987
  151SAPE   H8Y16758   2.114   1.683   7.647 -0.2100 -1.6250  0.7719
  151SAPE   C3916759   1.959   1.537   7.689 -0.8181 -0.4712 -0.0258
  151SAPE   H9X16760   2.028   1.451   7.682 -2.9475 -2.1362 -2.8261
  151SAPE   H9Y16761   1.860   1.517   7.643 -0.4029  0.7079 -1.5149
  151SAPE  C31016762   1.965   1.569   7.835 -0.1411 -0.2753 -0.1815
  151SAPE  H10X16763   1.941   1.676   7.850 -2.5116 -0.6628 -0.7836
  151SAPE  H10Y16764   2.071   1.553   7.863 -0.5621  0.3050  1.9007
  151SAPE  C31116765   1.882   1.488   7.934 -0.3924  0.2084 -1.1148
  151SAPE  H11X16766   1.884   1.379   7.911  0.2622  0.5772 -2.9581
  151SAPE  H11Y16767   1.778   1.521   7.915 -0.2553  2.2402  1.2063
  151SAPE  C31216768   1.920   1.512   8.080  0.0565  0.5493  0.4718
  151SAPE  H12X16769   1.865   1.604   8.106  0.2484  0.7520  0.1715
  151SAPE  H12Y16770   2.028   1.538   8.072  0.3268 -0.8726 -1.2949
  151SAPE  C31316771   1.910   1.403   8.193  1.3595  0.1816 -0.1518
  151SAPE  H13X16772   1.973   1.433   8.279  0.8479 -1.1658  0.7209
  151SAPE  H13Y16773   1.955   1.306   8.164 -0.6581 -1.1339  0.8560
  151SAPE  C31416774   1.766   1.383   8.239  0.9390  0.2516 -1.0688
  151SAPE  H14X16775   1.696   1.355   8.157  1.2667  0.5054 -1.4386
  151SAPE  H14Y16776   1.719   1.477   8.277 -0.0055 -0.2825 -0.8780
  151SAPE  C31516777   1.752   1.279   8.348 -0.5264  0.2882  0.4494
  151SAPE  H15X16778   1.797   1.317   8.442  0.6085  1.3516 -0.4906
  151SAPE  H15Y16779   1.809   1.188   8.318  1.7493  0.8601  2.7341
  151SAPE  C31616780   1.605   1.247   8.398  0.2119 -0.9279 -0.7063
  151SAPE  H16X16781   1.529   1.220   8.321 -0.7030 -0.6448  0.0743
  151SAPE  H16Y16782   1.580   1.346   8.443  0.4872 -1.4436  0.6119
  151SAPE  C31716783   1.597   1.134   8.498  0.2946  0.4507 -0.5067
  151SAPE  H17X16784   1.644   1.051   8.441  0.0436  0.3166 -0.5215
  151SAPE  H17Y16785   1.492   1.100   8.515  0.1805 -0.2976 -2.5014
  151SAPE  C31816786   1.672   1.167   8.626 -0.0990  0.3941 -0.0344
  151SAPE  H18X16787   1.665   1.089   8.706  1.0102 -0.3519 -0.6492
  151SAPE  H18Y16788   1.629   1.257   8.676 -0.3615  1.3450 -1.8921
  151SAPE  H18Z16789   1.781   1.180   8.616  0.2397 -0.5460  1.9711
  152SAPE     N16790   5.440   5.292   6.018  0.4420 -0.5432  0.1673
  152SAPE   HN116791   5.363   5.339   5.966  0.6474 -0.8983 -0.4625
  152SAPE   HN216792   5.492   5.355   6.083  0.9800  0.0664 -0.8195
  152SAPE   HN316793   5.506   5.246   5.952  2.6134 -1.0458  2.5146
  152SAPE   C1216794   5.373   5.196   6.108 -0.5528  0.3979 -0.2070
  152SAPE  H12A16795   5.437   5.146   6.184  0.2069  0.8611 -0.5312
  152SAPE  H12B16796   5.328   5.119   6.042  0.1398  1.5691 -2.1523
  152SAPE   C1116797   5.260   5.272   6.183  0.5581 -0.2221  0.2150
  152SAPE  H11A16798   5.295   5.360   6.240  0.3767  0.6042 -0.9049
  152SAPE  H11B16799   5.210   5.206   6.257 -1.1651  0.3746 -0.3545
  152SAPE     P16800   5.048   5.412   6.099  0.4308  0.1644  0.4279
  152SAPE   O1316801   5.098   5.550   6.094 -0.0161  0.1899 -0.5058
  152SAPE   O1416802   4.936   5.382   6.004  0.4570  0.5799 -0.1176
  152SAPE   O1216803   5.171   5.315   6.078  0.1021 -0.4766  0.0686
  152SAPE   O1116804   4.999   5.377   6.244  0.5785  0.3375  0.3759
  152SAPE    C116805   4.920   5.463   6.323 -0.6878 -0.4351 -0.4530
  152SAPE    HA16806   4.922   5.568   6.285 -1.4469 -1.1097 -2.4951
  152SAPE    HB16807   4.811   5.441   6.320 -0.9291  0.7662 -1.1675
  152SAPE    C216808   4.961   5.440   6.468 -0.8317  0.4683 -0.7185
  152SAPE    HS16809   5.064   5.480   6.468 -0.9832  0.8590 -0.8652
  152SAPE   O2116810   4.961   5.298   6.497 -0.1425 -0.2786  0.5125
  152SAPE   C2116811   5.055   5.254   6.575  0.1451 -0.0928  0.3119
  152SAPE   O2216812   5.146   5.319   6.624 -0.3371 -0.6669 -0.0599
  152SAPE   C2216813   5.045   5.108   6.590 -0.3943 -0.3955 -0.4006
  152SAPE   H2R16814   4.945   5.075   6.554  0.6903 -5.4940  0.5793
  152SAPE   H2S16815   5.133   5.062   6.540 -1.3731 -3.1530  0.2404
  152SAPE    C316816   4.867   5.519   6.570  0.6958 -0.2853  0.2274
  152SAPE    HX16817   4.761   5.494   6.550  0.4213  0.7150  0.4095
  152SAPE    HY16818   4.883   5.625   6.543 -0.2426 -0.4828 -1.1726
  152SAPE   O3116819   4.904   5.486   6.705  0.5157 -0.6502 -0.3091
  152SAPE   C3116820   4.927   5.587   6.790 -0.5893  1.1838  0.4924
  152SAPE   O3216821   4.913   5.705   6.769 -0.2004  0.1354 -0.6402
  152SAPE   C3216822   4.969   5.524   6.922 -0.4028  0.0728  0.4582
  152SAPE   H2X16823   5.069   5.474   6.923 -0.4882 -0.3935 -2.7139
  152SAPE   H2Y16824   4.901   5.440   6.949  1.5785 -2.4399 -1.7038
  152SAPE   C2316825   5.057   5.057   6.741  0.0240  0.0545  0.8089
  152SAPE   H3R16826   4.975   5.113   6.791 -1.3177  0.3876 -1.5893
  152SAPE   H3S16827   5.161   5.087   6.767 -0.0602 -0.0940  1.3316
  152SAPE   C2416828   5.039   4.907   6.764  0.1416 -0.8715 -0.1460
  152SAPE   H4R16829   4.940   4.873   6.727 -0.1705  0.3718 -0.5123
  152SAPE   H4S16830   5.028   4.895   6.874  1.7145 -0.2247  0.1169
  152SAPE   C2516831   5.152   4.823   6.700 -0.2135  0.1096  0.7562
  152SAPE   H5R16832   5.161   4.841   6.592 -0.9880  0.6889  0.7752
  152SAPE   C2616833   5.230   4.732   6.769 -0.1583 -0.0158 -0.1434
  152SAPE   H6R16834   5.303   4.669   6.716 -1.8144 -2.1320 -0.0378
  152SAPE   C2716835   5.224   4.695   6.913 -0.6080  0.2856  0.4682
  152SAPE   H7R16836   5.120   4.661   6.933 -0.7036  0.1798 -0.1831
  152SAPE   H7S16837   5.225   4.783   6.981 -0.0779  0.0408  0.7819
  152SAPE   C2816838   5.314   4.586   6.957  0.5057 -0.1067 -0.0991
  152SAPE   H8R16839   5.327   4.496   6.896 -0.2706 -0.3380  0.0621
  152SAPE   C2916840   5.366   4.591   7.079 -0.2386 -0.3006  0.1497
  152SAPE   H9R16841   5.459   4.533   7.088  0.7128  1.3499  1.6092
  152SAPE  C21016842   5.345   4.693   7.192 -0.3706 -0.4227 -0.2608
  152SAPE  H10R16843   5.245   4.740   7.183 -1.2697 -2.0287  0.9231
  152SAPE  H10S16844   5.420   4.775   7.179 -1.2360  0.3499 -0.5037
  152SAPE  C21116845   5.348   4.625   7.324 -0.0442  1.3395  0.5147
  152SAPE  H11R16846   5.306   4.525   7.341 -0.2747  0.8694 -2.3835
  152SAPE  C21216847   5.416   4.674   7.424 -0.4901 -0.3335 -0.4691
  152SAPE  H12R16848   5.425   4.617   7.517  0.5020  0.4508 -0.0672
  152SAPE  C21316849   5.497   4.802   7.431 -0.0607 -0.8023  0.1162
  152SAPE  H13R16850   5.430   4.889   7.413  1.0625 -0.1726 -1.2855
  152SAPE  H13S16851   5.566   4.819   7.345 -0.8035 -0.3560 -0.4004
  152SAPE  C21416852   5.568   4.816   7.564 -0.3311 -0.8396 -0.6721
  152SAPE  H14R16853   5.521   4.769   7.652 -1.0655  2.4043  0.8599
  152SAPE  C21516854   5.688   4.879   7.582  0.3942  0.5132  0.3353
  152SAPE  H15R16855   5.743   4.863   7.676  0.8877  1.1832  0.1662
  152SAPE  C21616856   5.770   4.950   7.476  0.0291 -0.4750  0.1125
  152SAPE  H16R16857   5.854   5.002   7.527  1.1041 -0.5496 -1.5037
  152SAPE  H16S16858   5.708   5.023   7.421 -0.0178  1.0448  2.0728
  152SAPE  C21716859   5.852   4.849   7.387 -0.1866 -0.5201  0.1986
  152SAPE  H17R16860   5.776   4.779   7.346 -0.4566 -0.5937  0.8221
  152SAPE  H17S16861   5.926   4.792   7.447  1.4007  1.8133  0.6036
  152SAPE  C21816862   5.927   4.925   7.273  0.3720 -0.0120 -0.0001
  152SAPE  H18R16863   6.006   4.856   7.237  1.4648  1.3844 -0.3774
  152SAPE  H18S16864   5.978   5.012   7.318  1.4640 -0.7246  0.1843
  152SAPE  C21916865   5.835   4.969   7.158 -0.0008 -0.2899  0.1450
  152SAPE  H19R16866   5.770   5.054   7.188  0.4432  0.2615 -0.4312
  152SAPE  H19S16867   5.780   4.876   7.134 -0.1185 -0.2510  0.2650
  152SAPE  C22016868   5.922   5.021   7.035  0.0101  0.5848  0.1436
  152SAPE  H20R16869   5.862   5.062   6.951  0.0177 -2.2283 -1.3654
  152SAPE  H20S16870   5.983   4.936   6.997  1.7693  0.8709  2.1534
  152SAPE  H20T16871   5.988   5.102   7.073  0.3369  0.9071 -1.0864
  152SAPE   C3316872   4.973   5.617   7.043 -0.2644  0.8005 -0.2894
  152SAPE   H3X16873   5.024   5.706   7.001 -1.1222  0.3175 -2.5115
  152SAPE   H3Y16874   5.036   5.556   7.111 -0.0739 -0.6241 -1.6863
  152SAPE   C3416875   4.832   5.652   7.098 -0.3597  0.2424 -0.3244
  152SAPE   H4X16876   4.775   5.701   7.016 -1.2966 -0.0887  0.1110
  152SAPE   H4Y16877   4.831   5.735   7.171  2.6577 -0.9386  1.2295
  152SAPE   C3516878   4.746   5.536   7.150 -0.3070  0.2307 -0.2811
  152SAPE   H5X16879   4.746   5.433   7.109 -2.1847  0.4152 -0.8119
  152SAPE   H5Y16880   4.643   5.569   7.126 -0.1059  1.0563 -0.0482
  152SAPE   C3616881   4.752   5.524   7.302 -0.0225  0.0940 -0.2483
  152SAPE   H6X16882   4.683   5.443   7.337  2.2005 -1.8403 -0.1179
  152SAPE   H6Y16883   4.717   5.622   7.341 -0.1024  0.4199 -1.1214
  152SAPE   C3716884   4.890   5.498   7.349  0.0426  0.4734 -0.0037
  152SAPE   H7X16885   4.969   5.575   7.333  1.5194 -0.9636  0.1140
  152SAPE   H7Y16886   4.919   5.401   7.304 -1.2384  1.7904 -4.1099
  152SAPE   C3816887   4.892   5.474   7.498  0.3771  0.0792 -0.3296
  152SAPE   H8X16888   4.989   5.429   7.530 -0.6395 -1.2704  0.9912
  152SAPE   H8Y16889   4.809   5.402   7.516 -0.9635  1.4291 -0.9067
  152SAPE   C3916890   4.876   5.608   7.565  0.0051 -0.2012  0.8306
  152SAPE   H9X16891   4.786   5.661   7.525  0.8262 -0.7084 -1.9143
  152SAPE   H9Y16892   4.960   5.670   7.526  1.7234 -2.0904  1.3792
  152SAPE  C31016893   4.885   5.592   7.712  0.0504 -0.2714 -0.6373
  152SAPE  H10X16894   4.900   5.691   7.761 -0.2779 -1.8240  2.9034
  152SAPE  H10Y16895   4.963   5.521   7.749 -1.4019 -0.4640  2.4218
  152SAPE  C31116896   4.759   5.526   7.779  0.6588  0.0273  0.0983
  152SAPE  H11X16897   4.768   5.415   7.780 -3.7737 -0.5021 -0.2888
  152SAPE  H11Y16898   4.675   5.548   7.710 -1.2768 -2.7322  1.3954
  152SAPE  C31216899   4.721   5.586   7.914  0.6183  0.7522 -0.1090
  152SAPE  H12X16900   4.819   5.595   7.966  0.5199 -0.5820  0.3246
  152SAPE  H12Y16901   4.652   5.521   7.972  1.7974 -1.0447 -0.6343
  152SAPE  C31316902   4.661   5.722   7.908  0.6600 -0.5837 -0.4300
  152SAPE  H13X16903   4.558   5.719   7.866  0.3118  2.0310  0.0882
  152SAPE  H13Y16904   4.719   5.795   7.849  1.6481 -0.6350  0.4438
  152SAPE  C31416905   4.644   5.785   8.051 -0.6158  0.5972  0.1810
  152SAPE  H14X16906   4.586   5.713   8.114 -1.2183  1.4802  0.6528
  152SAPE  H14Y16907   4.572   5.867   8.035 -1.9540 -0.8806 -1.9460
  152SAPE  C31516908   4.778   5.822   8.110 -0.0586  0.2065  0.0260
  152SAPE  H15X16909   4.849   5.862   8.035 -1.5172 -1.0805 -2.1723
  152SAPE  H15Y16910   4.834   5.733   8.145  3.0147  1.3606 -1.6222
  152SAPE  C31616911   4.771   5.920   8.225  0.9848  0.3521 -0.3788
  152SAPE  H16X16912   4.717   6.007   8.183 -0.2111  0.2455  0.8749
  152SAPE  H16Y16913   4.874   5.952   8.251  0.7866 -0.0376  0.9715
  152SAPE  C31716914   4.716   5.867   8.355 -0.9536 -0.1758 -0.1855
  152SAPE  H17X16915   4.622   5.812   8.330 -0.4888  0.0281 -2.6319
  152SAPE  H17Y16916   4.690   5.960   8.409  0.4469 -0.9846  2.0160
  152SAPE  C31816917   4.819   5.777   8.428 -0.4917 -0.4006 -0.0313
  152SAPE  H18X16918   4.777   5.757   8.528 -1.4457 -0.1233 -0.3651
  152SAPE  H18Y16919   4.918   5.828   8.427 -1.7890  2.4307 -2.4132
  152SAPE  H18Z16920   4.819   5.691   8.357 -1.7158 -0.2408 -0.2523
  153SAPE     N16921   3.230   0.678   6.343  0.3826 -0.4682  0.2491
  153SAPE   HN116922   3.192   0.773   6.364  1.0983  0.9573 -3.9441
  153SAPE   HN216923   3.333   0.692   6.343  0.2933  0.2732  0.4207
  153SAPE   HN316924   3.196   0.671   6.245 -1.9960  0.1176  0.9545
  153SAPE   C1216925   3.176   0.572   6.438 -0.2533  0.7857 -0.2664
  153SAPE  H12A16926   3.074   0.601   6.469 -0.6817  0.2660 -1.1273
  153SAPE  H12B16927   3.246   0.580   6.524 -0.6225  2.0420 -0.0691
  153SAPE   C1116928   3.188   0.421   6.399 -0.0504 -0.7649 -0.0224
  153SAPE  H11A16929   3.109   0.411   6.322  1.6818  1.1017 -2.1837
  153SAPE  H11B16930   3.150   0.356   6.481 -1.4462 -1.5819 -1.2903
  153SAPE     P16931   3.332   0.334   6.203  0.1696 -0.3621 -0.0782
  153SAPE   O1316932   3.218   0.240   6.164 -0.3894 -0.1488 -0.0703
  153SAPE   O1416933   3.339   0.456   6.121  0.1738 -0.1277  0.6118
  153SAPE   O1216934   3.317   0.378   6.352 -0.6102  0.1504 -0.0745
  153SAPE   O1116935   3.469   0.260   6.204  0.2155 -0.5727  0.3432
  153SAPE    C116936   3.483   0.134   6.270 -0.6766 -0.7653  0.7131
  153SAPE    HA16937   3.424   0.052   6.224  1.2197 -1.6852 -0.1824
  153SAPE    HB16938   3.589   0.107   6.254 -1.0884 -1.2961 -1.4137
  153SAPE    C216939   3.460   0.129   6.425  0.5744 -0.4438 -0.1746
  153SAPE    HS16940   3.354   0.159   6.444  0.3972 -1.2913  0.2422
  153SAPE   O2116941   3.537   0.221   6.495 -0.0695  0.0481 -0.0618
  153SAPE   C2116942   3.510   0.242   6.621 -0.1354 -0.7119  0.0692
  153SAPE   O2216943   3.443   0.171   6.689  0.2238  0.3494 -0.0970
  153SAPE   C2216944   3.560   0.377   6.665 -0.7170 -0.2726  0.0933
  153SAPE   H2R16945   3.661   0.383   6.709  0.2549  0.1658 -2.0429
  153SAPE   H2S16946   3.572   0.448   6.580 -0.5730  2.2316  2.0947
  153SAPE    C316947   3.481  -0.026   6.470  0.3687  0.3621  1.1534
  153SAPE    HX16948   3.415  -0.086   6.405  1.1408  1.4184 -0.6842
  153SAPE    HY16949   3.449  -0.040   6.575  1.2143  1.3645  1.5742
  153SAPE   O3116950   3.620  -0.063   6.449  0.5669  0.6526  0.0569
  153SAPE   C3116951   3.647  -0.190   6.461 -0.7829  0.5400 -0.6265
  153SAPE   O3216952   3.561  -0.279   6.481  0.3795 -0.2769 -0.2950
  153SAPE   C3216953   3.797  -0.217   6.449  0.1714 -0.1923 -0.3793
  153SAPE   H2X16954   3.848  -0.124   6.416  2.7588 -1.3057  0.2577
  153SAPE   H2Y16955   3.824  -0.286   6.366  0.6165  0.8384 -1.1087
  153SAPE   C2316956   3.469   0.434   6.770  0.3055 -0.0918 -1.1273
  153SAPE   H3R16957   3.464   0.369   6.860  0.8496  1.6330  0.1997
  153SAPE   H3S16958   3.367   0.442   6.726 -0.6704  2.7748  1.3182
  153SAPE   C2416959   3.516   0.568   6.819  0.0992 -0.6795 -0.3935
  153SAPE   H4R16960   3.525   0.639   6.733 -0.1398 -3.0862 -2.5411
  153SAPE   H4S16961   3.619   0.555   6.859  0.4982 -0.6412 -1.3538
  153SAPE   C2516962   3.414   0.630   6.906  0.4081 -0.0809  0.3365
  153SAPE   H5R16963   3.357   0.708   6.853  3.8152  2.1161 -0.4648
  153SAPE   C2616964   3.386   0.600   7.032 -0.2808  1.0837  0.1934
  153SAPE   H6R16965   3.291   0.634   7.075 -1.4821  0.0590 -1.4934
  153SAPE   C2716966   3.459   0.490   7.104 -0.8748  0.4806 -0.4468
  153SAPE   H7R16967   3.529   0.441   7.034  0.6522  0.5686  0.9533
  153SAPE   H7S16968   3.391   0.415   7.150  2.1736 -1.3290  1.4217
  153SAPE   C2816969   3.537   0.557   7.215 -0.7060 -0.3789  0.0288
  153SAPE   H8R16970   3.538   0.667   7.216 -1.1463 -0.3607  1.6923
  153SAPE   C2916971   3.610   0.489   7.308  0.5514 -0.0144  0.1099
  153SAPE   H9R16972   3.664   0.544   7.386  1.4379  0.2746 -0.6760
  153SAPE  C21016973   3.634   0.338   7.315  0.2210 -0.5164  0.2115
  153SAPE  H10R16974   3.741   0.337   7.346 -0.1060  1.4012  1.5689
  153SAPE  H10S16975   3.620   0.277   7.224 -0.5309 -1.5511  0.9944
  153SAPE  C21116976   3.538   0.259   7.402  0.1001 -0.0097  0.1683
  153SAPE  H11R16977   3.457   0.208   7.348  0.2272 -1.0614  0.9271
  153SAPE  C21216978   3.546   0.254   7.534  0.0310 -0.4898  0.2782
  153SAPE  H12R16979   3.459   0.203   7.578 -2.2452  1.1379 -2.0359
  153SAPE  C21316980   3.641   0.337   7.610 -0.0564  0.1481 -0.2801
  153SAPE  H13R16981   3.595   0.436   7.632 -0.1007 -0.1565  1.1278
  153SAPE  H13S16982   3.730   0.359   7.547 -0.9741  2.5054 -0.8464
  153SAPE  C21416983   3.700   0.271   7.729  0.1729  0.0959  0.2800
  153SAPE  H14R16984   3.730   0.166   7.714 -0.6516  0.0842 -1.5419
  153SAPE  C21516985   3.717   0.322   7.853  0.0669  0.3950 -0.3482
  153SAPE  H15R16986   3.764   0.256   7.927 -1.4390  2.3112  2.4764
  153SAPE  C21616987   3.677   0.458   7.902 -0.4068  0.7018  0.5717
  153SAPE  H16R16988   3.668   0.530   7.817  0.5521  0.5351  0.3200
  153SAPE  H16S16989   3.755   0.493   7.972 -1.1386  0.3533  1.5811
  153SAPE  C21716990   3.542   0.472   7.981 -0.0705  0.3957 -0.1505
  153SAPE  H17R16991   3.459   0.420   7.930 -0.4589  0.7330  0.1337
  153SAPE  H17S16992   3.521   0.581   7.985 -2.7902 -0.1047  2.1401
  153SAPE  C21816993   3.531   0.425   8.126  0.1523  0.2668 -0.6834
  153SAPE  H18R16994   3.438   0.469   8.168  1.1230  1.2508  0.5278
  153SAPE  H18S16995   3.618   0.457   8.188  0.8251  1.7963 -2.3006
  153SAPE  C21916996   3.510   0.276   8.148  0.2963 -0.6987  0.1524
  153SAPE  H19R16997   3.583   0.214   8.091 -0.4431 -1.5354  0.0922
  153SAPE  H19S16998   3.413   0.243   8.106  0.7059 -1.8925  0.1121
  153SAPE  C22016999   3.525   0.240   8.300  0.6116 -0.2651 -0.0852
  153SAPE  H20R17000   3.472   0.318   8.359  0.7388 -0.2830  0.0534
  153SAPE  H20S17001   3.631   0.262   8.323  0.8729 -2.7153  1.4656
  153SAPE  H20T17002   3.503   0.134   8.327  0.1238 -0.5362 -1.4641
  153SAPE   C3317003   3.859  -0.237   6.591  0.4820  0.5800  0.3489
  153SAPE   H3X17004   3.970  -0.235   6.587  0.5574 -1.8200 -2.9622
  153SAPE   H3Y17005   3.812  -0.330   6.631  0.9865  1.2086  2.5262
  153SAPE   C3417006   3.816  -0.124   6.692  0.0800  0.5034  0.2682
  153SAPE   H4X17007   3.706  -0.128   6.709 -0.5991  0.7322 -3.2755
  153SAPE   H4Y17008   3.827  -0.022   6.650 -2.1219  0.4581 -0.5434
  153SAPE   C3517009   3.893  -0.135   6.831  0.2306  1.0292 -0.4136
  153SAPE   H5X17010   4.001  -0.120   6.811  0.1376  1.5062 -0.5628
  153SAPE   H5Y17011   3.871  -0.233   6.879 -0.2467  1.6325  0.6470
  153SAPE   C3617012   3.842  -0.037   6.927 -0.3080 -0.0229  0.7057
  153SAPE   H6X17013   3.737  -0.059   6.954 -0.4152  1.7690  1.8937
  153SAPE   H6Y17014   3.843   0.066   6.886 -0.2457 -1.1519 -2.3835
  153SAPE   C3717015   3.904  -0.047   7.065  0.6886 -0.5540  0.1151
  153SAPE   H7X17016   4.007  -0.009   7.080  1.2892 -1.7014 -0.9169
  153SAPE   H7Y17017   3.912  -0.155   7.089  0.2343 -0.8234 -0.8873
  153SAPE   C3817018   3.812   0.022   7.172 -0.0939 -0.7652 -0.0054
  153SAPE   H8X17019   3.715  -0.031   7.182  0.1989 -1.4671 -0.7632
  153SAPE   H8Y17020   3.793   0.125   7.137 -0.2951 -1.3326 -1.6603
  153SAPE   C3917021   3.875   0.035   7.314 -0.2197 -0.1319 -0.4443
  153SAPE   H9X17022   3.818   0.103   7.381 -1.2456 -0.0208 -1.4000
  153SAPE   H9Y17023   3.970   0.092   7.318 -0.0794 -0.3642 -0.4423
  153SAPE  C31017024   3.890  -0.098   7.386  0.1808 -0.2149 -0.0850
  153SAPE  H10X17025   3.960  -0.167   7.336 -2.3006 -0.9677 -2.8326
  153SAPE  H10Y17026   3.791  -0.149   7.375  0.7715 -1.5916  0.7513
  153SAPE  C31117027   3.917  -0.095   7.535  0.0023  0.2890  0.5006
  153SAPE  H11X17028   3.970   0.000   7.557  0.5840  0.2301 -0.5596
  153SAPE  H11Y17029   3.986  -0.179   7.557 -1.1707 -0.5209  1.1926
  153SAPE  C31217030   3.786  -0.108   7.617 -0.2164 -0.2859 -0.3990
  153SAPE  H12X17031   3.724  -0.197   7.593  0.1894 -0.2937 -1.4583
  153SAPE  H12Y17032   3.735  -0.017   7.580  3.0288  1.2565 -1.4389
  153SAPE  C31317033   3.798  -0.104   7.766 -0.1704 -0.6069 -0.1614
  153SAPE  H13X17034   3.867  -0.024   7.801  0.1477 -1.8272  2.2257
  153SAPE  H13Y17035   3.858  -0.196   7.786 -1.7290 -1.5675  0.2262
  153SAPE  C31417036   3.666  -0.108   7.840 -0.2785  0.2899 -1.3658
  153SAPE  H14X17037   3.594  -0.176   7.789 -2.0300  0.8627  0.2342
  153SAPE  H14Y17038   3.624  -0.006   7.851  2.4223  1.3078  0.4981
  153SAPE  C31517039   3.673  -0.164   7.985 -0.2519  0.1237  0.4494
  153SAPE  H15X17040   3.662  -0.274   7.973  0.8659  0.0932 -0.5715
  153SAPE  H15Y17041   3.584  -0.125   8.037  0.3285  2.2755 -0.0753
  153SAPE  C31617042   3.797  -0.122   8.058 -0.2333  0.2978  0.7158
  153SAPE  H16X17043   3.801  -0.011   8.057 -0.7803  0.3195  0.5308
  153SAPE  H16Y17044   3.879  -0.175   8.005 -2.2711 -0.1078 -2.2956
  153SAPE  C31717045   3.810  -0.180   8.206 -0.4172 -0.0824  1.0048
  153SAPE  H17X17046   3.714  -0.182   8.260 -2.1462  0.2230 -1.8397
  153SAPE  H17Y17047   3.866  -0.104   8.264  1.5390 -1.2260  0.7310
  153SAPE  C31817048   3.881  -0.316   8.217 -0.1192 -0.2020  0.1994
  153SAPE  H18X17049   3.829  -0.401   8.168 -1.5521 -0.5954  2.2756
  153SAPE  H18Y17050   3.897  -0.348   8.322  3.0135 -0.5971 -0.2914
  153SAPE  H18Z17051   3.980  -0.311   8.168 -0.2833 -1.4190 -0.2889
  154SAPE     N17052   2.077   4.951   6.328  0.1464 -0.1029  0.1323
  154SAPE   HN117053   2.062   4.850   6.348 -0.1245 -0.0717  0.0942
  154SAPE   HN217054   2.127   5.004   6.402  2.0852  1.2283 -1.9808
  154SAPE   HN317055   1.980   4.988   6.321  0.5610  0.7395 -1.6483
  154SAPE   C1217056   2.131   4.956   6.197  0.5955 -0.2265  0.6161
  154SAPE  H12A17057   2.219   4.889   6.202  1.7673  1.3712  2.5870
  154SAPE  H12B17058   2.157   5.061   6.175 -0.2884 -0.0695  0.2649
  154SAPE   C1117059   2.030   4.899   6.100 -1.0669  0.4255  0.3438
  154SAPE  H11A17060   2.068   4.896   5.996 -1.8859 -5.8107 -0.1600
  154SAPE  H11B17061   1.941   4.964   6.103 -1.9976 -0.8208  0.9081
  154SAPE     P17062   1.875   4.691   6.106 -0.2377  0.0121  0.0508
  154SAPE   O1317063   1.834   4.729   5.968  0.0035 -0.3487  0.0531
  154SAPE   O1417064   1.888   4.551   6.139 -0.5717  0.2314 -0.1012
  154SAPE   O1217065   2.013   4.760   6.133  0.6773 -0.1377 -0.5864
  154SAPE   O1117066   1.787   4.770   6.217  0.8126 -0.2978 -1.0347
  154SAPE    C117067   1.644   4.735   6.212 -0.3100 -0.0222 -0.4919
  154SAPE    HA17068   1.589   4.826   6.179 -0.0589  0.1153 -0.5331
  154SAPE    HB17069   1.628   4.645   6.148 -0.3330 -0.3730  0.0035
  154SAPE    C217070   1.592   4.716   6.355  0.4388  0.0616  0.1133
  154SAPE    HS17071   1.484   4.691   6.342  0.1496  0.1722  2.0099
  154SAPE   O2117072   1.624   4.832   6.435  0.1927  0.2990  0.7659
  154SAPE   C2117073   1.525   4.899   6.494  0.0036 -0.5094 -0.3512
  154SAPE   O2217074   1.409   4.886   6.463  0.9776 -0.0983  0.4833
  154SAPE   C2217075   1.581   4.981   6.604 -0.0901 -0.4059 -0.2804
  154SAPE   H2R17076   1.651   4.927   6.671 -2.4163 -1.2320  1.6554
  154SAPE   H2S17077   1.642   5.068   6.572  1.8543 -1.7204 -0.2783
  154SAPE    C317078   1.654   4.591   6.425  0.0276  0.4310 -0.0798
  154SAPE    HX17079   1.764   4.603   6.418 -0.1090  0.9228 -1.7298
  154SAPE    HY17080   1.623   4.503   6.365 -2.1973  0.7719  0.4578
  154SAPE   O3117081   1.596   4.570   6.555  0.3067 -0.6444  0.0158
  154SAPE   C3117082   1.670   4.622   6.652  0.2838  0.9994  0.5638
  154SAPE   O3217083   1.784   4.673   6.639  0.3269 -0.0536  0.0953
  154SAPE   C3217084   1.588   4.627   6.781 -0.5829  0.3292  0.0079
  154SAPE   H2X17085   1.585   4.523   6.820  1.9830 -0.4798 -1.6829
  154SAPE   H2Y17086   1.486   4.665   6.759 -0.7354 -0.1106 -0.0539
  154SAPE   C2317087   1.460   5.031   6.690  0.4995 -0.0857  0.1893
  154SAPE   H3R17088   1.416   4.955   6.758  1.1584  0.4172  1.2004
  154SAPE   H3S17089   1.373   5.064   6.629 -0.9604  2.5325  3.3618
  154SAPE   C2417090   1.503   5.154   6.782  0.3361 -1.0223 -0.1246
  154SAPE   H4R17091   1.426   5.198   6.849  0.2720 -3.3851  1.4942
  154SAPE   H4S17092   1.532   5.238   6.715 -0.2717 -0.3681  0.4219
  154SAPE   C2517093   1.627   5.132   6.864  0.0767  0.1170 -0.3310
  154SAPE   H5R17094   1.724   5.139   6.813  0.6887  1.6240  0.9679
  154SAPE   C2617095   1.623   5.090   6.993 -0.3361 -0.2454 -0.9883
  154SAPE   H6R17096   1.720   5.054   7.032 -1.5445 -0.7137  1.8348
  154SAPE   C2717097   1.503   5.065   7.082 -0.5307 -0.1056 -0.6283
  154SAPE   H7R17098   1.533   4.976   7.142  2.1264  1.0997 -0.0196
  154SAPE   H7S17099   1.416   5.035   7.020 -4.1973  2.1507  2.9740
  154SAPE   C2817100   1.447   5.177   7.172  0.4474  0.4756 -0.3549
  154SAPE   H8R17101   1.345   5.213   7.148 -0.3819 -1.2254  0.4262
  154SAPE   C2917102   1.512   5.232   7.278 -0.1991  0.3536 -0.2788
  154SAPE   H9R17103   1.452   5.313   7.323 -1.9811 -1.0956  0.0605
  154SAPE  C21017104   1.654   5.194   7.327 -0.0189 -0.2968  0.4874
  154SAPE  H10R17105   1.698   5.102   7.281  1.3062 -0.4077  1.8914
  154SAPE  H10S17106   1.648   5.157   7.431 -2.9306 -0.4424  0.3308
  154SAPE  C21117107   1.748   5.307   7.318 -1.1702  0.2260  0.2550
  154SAPE  H11R17108   1.845   5.283   7.271 -1.8367 -1.3401 -0.4036
  154SAPE  C21217109   1.739   5.429   7.381  0.2900  0.7292  0.0365
  154SAPE  H12R17110   1.824   5.496   7.364  0.6464  0.2435 -0.1141
  154SAPE  C21317111   1.628   5.483   7.465 -0.2226  0.1132 -0.3752
  154SAPE  H13R17112   1.562   5.403   7.506 -0.7308  0.2932 -0.8277
  154SAPE  H13S17113   1.568   5.553   7.404  0.6327  1.9140  0.7891
  154SAPE  C21417114   1.672   5.568   7.583 -0.1822  0.8997 -0.0579
  154SAPE  H14R17115   1.633   5.671   7.582  0.3697  1.1123 -1.5884
  154SAPE  C21517116   1.745   5.531   7.688 -0.1556 -0.2842  0.5280
  154SAPE  H15R17117   1.756   5.599   7.774 -1.6014  0.1838  0.3702
  154SAPE  C21617118   1.807   5.399   7.720 -0.7540 -1.1687 -0.7108
  154SAPE  H16R17119   1.917   5.409   7.707 -0.6890 -1.0046 -0.0884
  154SAPE  H16S17120   1.770   5.324   7.647  0.0624 -0.9859 -1.3299
  154SAPE  C21717121   1.779   5.348   7.866  0.3674 -0.1364 -0.4403
  154SAPE  H17R17122   1.819   5.245   7.870  0.5949 -0.0334  0.0593
  154SAPE  H17S17123   1.668   5.346   7.874  0.2034  1.8459 -1.4266
  154SAPE  C21817124   1.840   5.436   7.974 -0.2181 -0.0961  0.4103
  154SAPE  H18R17125   1.797   5.538   7.972 -2.4181 -0.9187  1.8002
  154SAPE  H18S17126   1.950   5.449   7.969 -0.4045  1.2981 -0.5959
  154SAPE  C21917127   1.792   5.379   8.113  0.4989 -0.1745  0.3083
  154SAPE  H19R17128   1.861   5.423   8.188  3.3873 -1.4498 -1.4170
  154SAPE  H19S17129   1.800   5.268   8.115  0.5769 -0.2938 -2.5491
  154SAPE  C22017130   1.645   5.414   8.153  0.6885  0.4108  0.1131
  154SAPE  H20R17131   1.611   5.363   8.246 -0.9190 -0.9905 -1.1794
  154SAPE  H20S17132   1.580   5.380   8.070 -0.2662  1.6025  0.3441
  154SAPE  H20T17133   1.638   5.524   8.169  1.3061  0.2390  1.8268
  154SAPE   C3317134   1.655   4.708   6.897  0.3633  0.0150 -0.3992
  154SAPE   H3X17135   1.652   4.816   6.869 -1.0159  0.1913  0.3525
  154SAPE   H3Y17136   1.757   4.664   6.903  0.5702  0.4643 -0.5780
  154SAPE   C3417137   1.582   4.704   7.031 -0.0607 -0.0552 -0.4511
  154SAPE   H4X17138   1.478   4.739   7.014 -1.0375 -2.2715  0.6125
  154SAPE   H4Y17139   1.627   4.782   7.096 -1.1415 -1.7921  2.5790
  154SAPE   C3517140   1.570   4.572   7.097 -0.1920 -0.2069  0.0881
  154SAPE   H5X17141   1.535   4.500   7.020 -0.1344 -0.4519  0.2874
  154SAPE   H5Y17142   1.499   4.577   7.181 -0.7302 -4.6318  0.1603
  154SAPE   C3617143   1.709   4.514   7.137  0.3015 -0.3857  0.0715
  154SAPE   H6X17144   1.748   4.593   7.204 -1.3155 -1.0986  1.9409
  154SAPE   H6Y17145   1.774   4.501   7.048  0.1235  1.7153 -0.4184
  154SAPE   C3717146   1.703   4.389   7.212 -0.2102  0.4933 -0.2003
  154SAPE   H7X17147   1.803   4.340   7.225 -1.5223 -2.1464  0.7346
  154SAPE   H7Y17148   1.643   4.316   7.154 -1.3243  0.4562  0.9654
  154SAPE   C3817149   1.650   4.403   7.354  0.4367 -0.3119  0.4283
  154SAPE   H8X17150   1.603   4.313   7.400  0.8556  0.6262  2.8641
  154SAPE   H8Y17151   1.569   4.478   7.361 -0.8796 -1.7308  1.0346
  154SAPE   C3917152   1.760   4.448   7.447 -0.2904  0.0899 -0.7322
  154SAPE   H9X17153   1.820   4.530   7.403 -0.4238  0.3475 -0.4379
  154SAPE   H9Y17154   1.829   4.365   7.471 -1.1087 -0.1381  0.9918
  154SAPE  C31017155   1.715   4.500   7.589  0.3774 -0.6607  0.2743
  154SAPE  H10X17156   1.648   4.437   7.651 -0.7537  1.1381  0.9663
  154SAPE  H10Y17157   1.656   4.593   7.578  0.3995 -0.6757  0.0245
  154SAPE  C31117158   1.840   4.534   7.680 -0.0854  0.3439 -0.1142
  154SAPE  H11X17159   1.887   4.623   7.634  1.1542  0.0603  0.5655
  154SAPE  H11Y17160   1.907   4.445   7.682 -2.0979 -1.2752 -0.7612
  154SAPE  C31217161   1.796   4.575   7.824  0.3764  0.2889  0.1411
  154SAPE  H12X17162   1.711   4.645   7.825 -1.0920 -1.4195  0.1607
  154SAPE  H12Y17163   1.882   4.633   7.863  0.2488  2.2910 -2.3497
  154SAPE  C31317164   1.761   4.459   7.926  0.2063  0.1803 -0.4415
  154SAPE  H13X17165   1.813   4.363   7.906 -0.3910  0.0297 -1.3350
  154SAPE  H13Y17166   1.660   4.415   7.917  0.3404 -1.1437  3.0035
  154SAPE  C31417167   1.778   4.515   8.068  0.1952 -0.0347 -0.2649
  154SAPE  H14X17168   1.718   4.608   8.075 -0.0990 -0.2612  0.2489
  154SAPE  H14Y17169   1.879   4.557   8.089 -0.3996  1.1201  0.3425
  154SAPE  C31517170   1.729   4.419   8.172 -0.5722 -0.5975 -0.4879
  154SAPE  H15X17171   1.619   4.411   8.160 -0.4283  0.2738 -3.0158
  154SAPE  H15Y17172   1.748   4.456   8.275  2.4593 -0.5351 -0.9840
  154SAPE  C31617173   1.786   4.273   8.170  0.2410  0.7450 -0.4784
  154SAPE  H16X17174   1.751   4.220   8.079  1.4451 -1.2046  0.1478
  154SAPE  H16Y17175   1.745   4.221   8.260  1.2893  1.3236  0.3538
  154SAPE  C31717176   1.937   4.271   8.181 -0.2478  0.3118 -0.0189
  154SAPE  H17X17177   1.977   4.321   8.272  3.0390 -1.2280 -0.4664
  154SAPE  H17Y17178   1.986   4.332   8.101  2.2090 -1.3558  0.0976
  154SAPE  C31817179   2.000   4.130   8.176  0.7354  0.2602  0.1634
  154SAPE  H18X17180   1.979   4.078   8.080  0.2307  0.4255  0.1830
  154SAPE  H18Y17181   1.977   4.064   8.263  2.1913 -0.7055 -0.1371
  154SAPE  H18Z17182   2.111   4.139   8.177  0.9680 -1.8987  0.7859
  155SAPE     N17183   0.066   0.053   6.224 -0.0440  0.6430 -0.6124
  155SAPE   HN117184   0.091  -0.029   6.282 -0.7553  1.5512  1.0306
  155SAPE   HN217185   0.040   0.128   6.291  0.1872  2.3742 -2.3516
  155SAPE   HN317186  -0.020   0.027   6.171  0.8178 -0.4105 -1.5545
  155SAPE   C1217187   0.166   0.097   6.121  0.2243 -0.5065  0.2615
  155SAPE  H12A17188   0.121   0.186   6.072  0.8988 -0.0152  0.5142
  155SAPE  H12B17189   0.175   0.018   6.044  0.8578  0.3777 -0.5969
  155SAPE   C1117190   0.302   0.124   6.187  0.3022 -0.3153 -0.4560
  155SAPE  H11A17191   0.284   0.197   6.269 -0.6165 -1.3045  0.2408
  155SAPE  H11B17192   0.362   0.157   6.099  0.9831  1.3813  0.6001
  155SAPE     P17193   0.515  -0.008   6.271 -0.0837  0.3173 -0.0581
  155SAPE   O1317194   0.551  -0.151   6.267 -0.3285 -0.1133  0.1766
  155SAPE   O1417195   0.589   0.086   6.182  0.1515 -0.1466  0.2297
  155SAPE   O1217196   0.355   0.003   6.235  0.7193 -0.4919 -0.4896
  155SAPE   O1117197   0.516   0.049   6.420 -0.5441  1.0485  0.5842
  155SAPE    C117198   0.434   0.004   6.518  0.4417  0.0386  0.5201
  155SAPE    HA17199   0.358  -0.070   6.486 -1.7237  1.7768  1.3754
  155SAPE    HB17200   0.494  -0.033   6.604  0.5220  0.5503  0.6891
  155SAPE    C217201   0.356   0.116   6.579  0.4857 -0.2748 -0.2273
  155SAPE    HS17202   0.319   0.187   6.503 -1.0489  2.3446  2.7160
  155SAPE   O2117203   0.438   0.185   6.675  0.4271 -0.0894  0.1770
  155SAPE   C2117204   0.395   0.302   6.720  0.5092  0.5344  0.3500
  155SAPE   O2217205   0.300   0.368   6.684 -0.2395 -0.6532  0.0988
  155SAPE   C2217206   0.492   0.341   6.835  0.5337  0.4862 -0.8105
  155SAPE   H2R17207   0.490   0.251   6.899  0.9201  0.6296 -0.5909
  155SAPE   H2S17208   0.594   0.352   6.793  0.5558 -1.3107 -1.3240
  155SAPE    C317209   0.221   0.067   6.642  0.4136  0.2214 -0.1097
  155SAPE    HX17210   0.184  -0.010   6.570  0.7605 -0.5474  0.5208
  155SAPE    HY17211   0.155   0.156   6.652  1.1694  0.7776  0.0315
  155SAPE   O3117212   0.241   0.012   6.769  1.0912  0.4483 -0.2465
  155SAPE   C3117213   0.148  -0.066   6.818 -0.8204 -0.1111  0.1558
  155SAPE   O3217214   0.027  -0.066   6.792 -0.0023 -0.3193 -0.4888
  155SAPE   C3217215   0.217  -0.164   6.919 -0.4119 -0.2279 -0.5236
  155SAPE   H2X17216   0.271  -0.094   6.987 -1.0145  0.9312 -1.1977
  155SAPE   H2Y17217   0.282  -0.230   6.858 -0.6144  0.8513 -1.9792
  155SAPE   C2317218   0.454   0.474   6.906  0.0596 -1.1805 -0.1517
  155SAPE   H3R17219   0.346   0.498   6.918  0.3704 -0.1632  0.8028
  155SAPE   H3S17220   0.500   0.552   6.840  1.1194 -1.8811 -0.2652
  155SAPE   C2417221   0.508   0.489   7.054 -0.3658 -0.1421 -0.9713
  155SAPE   H4R17222   0.618   0.476   7.060 -0.6750 -2.5121  1.1843
  155SAPE   H4S17223   0.484   0.393   7.105  0.7509 -0.3204 -0.7537
  155SAPE   C2517224   0.483   0.617   7.132  0.0322  0.1679 -0.1510
  155SAPE   H5R17225   0.561   0.693   7.122 -0.7000  1.0630  0.6991
  155SAPE   C2617226   0.371   0.647   7.206 -0.7509  0.4623 -0.4122
  155SAPE   H6R17227   0.359   0.746   7.251 -3.0238  0.7055 -1.4150
  155SAPE   C2717228   0.246   0.560   7.223  0.0802  0.3790  0.2778
  155SAPE   H7R17229   0.275   0.499   7.311  1.4661  0.7711  0.1199
  155SAPE   H7S17230   0.216   0.493   7.139 -2.7593  1.4708  0.3153
  155SAPE   C2817231   0.113   0.624   7.245 -0.6719  0.3787 -0.2172
  155SAPE   H8R17232   0.051   0.651   7.158 -0.4669  2.0515  0.1270
  155SAPE   C2917233   0.054   0.631   7.361 -0.3998 -0.0188 -0.3318
  155SAPE   H9R17234  -0.050   0.667   7.363 -0.5914 -0.4359 -1.7736
  155SAPE  C21017235   0.109   0.586   7.496  0.1394  0.1112 -0.0742
  155SAPE  H10R17236   0.083   0.668   7.566 -2.0949 -0.0727 -0.5953
  155SAPE  H10S17237   0.219   0.577   7.500  0.1672  0.5406  3.6413
  155SAPE  C21117238   0.052   0.456   7.539  0.2054 -0.2269 -0.0237
  155SAPE  H11R17239   0.015   0.396   7.454 -0.1109  2.4203 -1.9037
  155SAPE  C21217240   0.038   0.416   7.665  0.2036  0.0074 -0.1721
  155SAPE  H12R17241  -0.031   0.335   7.691 -0.4154  1.1003  1.8672
  155SAPE  C21317242   0.090   0.495   7.782 -0.0158  0.3413 -0.3738
  155SAPE  H13R17243   0.004   0.551   7.824 -0.1714 -0.4021  0.3305
  155SAPE  H13S17244   0.173   0.563   7.752  1.4616 -2.0523 -2.0714
  155SAPE  C21417245   0.148   0.392   7.879  0.9124  0.0093 -0.4190
  155SAPE  H14R17246   0.202   0.310   7.829 -4.3639 -4.5686  0.4481
  155SAPE  C21517247   0.146   0.407   8.015  0.2639 -0.9464 -0.1053
  155SAPE  H15R17248   0.203   0.336   8.077  3.1268 -0.8800 -2.4047
  155SAPE  C21617249   0.079   0.512   8.099  0.2124 -0.0376 -0.1464
  155SAPE  H16R17250   0.019   0.462   8.179  1.0950  0.7960  1.0701
  155SAPE  H16S17251  -0.000   0.571   8.048 -1.6435 -2.5435 -0.3739
  155SAPE  C21717252   0.178   0.594   8.181  0.0804  0.5270 -0.2340
  155SAPE  H17R17253   0.272   0.619   8.126  1.7621 -0.0428  2.2224
  155SAPE  H17S17254   0.208   0.526   8.264  0.9058 -0.9258 -1.6514
  155SAPE  C21817255   0.105   0.725   8.222  0.3783  0.1540  0.4680
  155SAPE  H18R17256   0.003   0.692   8.252 -0.6653  0.6219 -2.3446
  155SAPE  H18S17257   0.085   0.785   8.131 -0.9874 -0.2699  0.4651
  155SAPE  C21917258   0.171   0.811   8.334  1.0249  0.5687 -0.5983
  155SAPE  H19R17259   0.125   0.912   8.336  1.9376  1.0124 -1.0708
  155SAPE  H19S17260   0.279   0.827   8.311  1.0233  1.1716 -0.1853
  155SAPE  C22017261   0.163   0.734   8.462 -0.0573 -0.2374 -0.5430
  155SAPE  H20R17262   0.217   0.787   8.544 -0.5222  1.3922 -1.2390
  155SAPE  H20S17263   0.214   0.636   8.456 -1.4658 -1.1712  1.4801
  155SAPE  H20T17264   0.055   0.713   8.478 -0.1553  0.5455 -0.1056
  155SAPE   C3317265   0.113  -0.242   6.998 -0.1468 -0.7792 -0.3014
  155SAPE   H3X17266   0.065  -0.312   6.926  0.7747 -2.0026  0.2626
  155SAPE   H3Y17267   0.037  -0.170   7.037  0.5061 -0.3444  0.1881
  155SAPE   C3417268   0.170  -0.330   7.110 -0.3710 -0.1960  0.3361
  155SAPE   H4X17269   0.251  -0.394   7.070 -0.6837 -1.2412  1.3296
  155SAPE   H4Y17270   0.092  -0.398   7.150  0.2831 -1.1905 -0.0472
  155SAPE   C3517271   0.218  -0.249   7.226 -0.6693  0.3544  0.9397
  155SAPE   H5X17272   0.130  -0.200   7.274 -2.2275  0.8938 -2.2048
  155SAPE   H5Y17273   0.292  -0.171   7.198  0.1487 -1.0330 -0.8993
  155SAPE   C3617274   0.277  -0.340   7.333 -0.4404 -0.4637 -0.5618
  155SAPE   H6X17275   0.375  -0.378   7.297  0.2375  0.3064  0.4221
  155SAPE   H6Y17276   0.208  -0.423   7.358 -3.3945  1.6489 -1.1084
  155SAPE   C3717277   0.300  -0.274   7.473 -0.6323  0.0115  0.0947
  155SAPE   H7X17278   0.208  -0.272   7.536 -0.6940  2.4298  0.0142
  155SAPE   H7Y17279   0.319  -0.167   7.451  1.1899  0.1580  2.0431
  155SAPE   C3817280   0.405  -0.355   7.558  0.2348 -0.3387  0.2718
  155SAPE   H8X17281   0.510  -0.332   7.530  1.2769  0.1233  4.0144
  155SAPE   H8Y17282   0.388  -0.463   7.537 -0.4104 -0.4443  1.2481
  155SAPE   C3917283   0.395  -0.331   7.714  1.3702  0.3349  0.8643
  155SAPE   H9X17284   0.294  -0.351   7.755  0.3672  2.3676 -0.4147
  155SAPE   H9Y17285   0.408  -0.222   7.733  1.1634  0.8003 -1.3582
  155SAPE  C31017286   0.500  -0.404   7.786 -0.0400  0.5592 -0.1123
  155SAPE  H10X17287   0.598  -0.397   7.733 -0.5681 -0.9503 -1.3621
  155SAPE  H10Y17288   0.477  -0.513   7.791 -0.7291  0.7313  0.6004
  155SAPE  C31117289   0.534  -0.344   7.923 -0.1812  1.0526  1.0734
  155SAPE  H11X17290   0.436  -0.349   7.974  0.6627 -0.5997  2.6205
  155SAPE  H11Y17291   0.573  -0.240   7.920 -0.5569  1.2123  1.7003
  155SAPE  C31217292   0.620  -0.436   8.009  0.1293  0.0263 -0.4548
  155SAPE  H12X17293   0.712  -0.472   7.958  1.6525  0.9228  1.5172
  155SAPE  H12Y17294   0.569  -0.532   8.034  0.4156  0.2151  0.9342
  155SAPE  C31317295   0.651  -0.376   8.143 -0.0042  0.8165 -0.3937
  155SAPE  H13X17296   0.557  -0.353   8.197  0.6144  1.8175  0.2751
  155SAPE  H13Y17297   0.695  -0.277   8.118  0.4692  1.1189  1.5098
  155SAPE  C31417298   0.757  -0.453   8.225  0.1366  0.2138  0.4424
  155SAPE  H14X17299   0.791  -0.392   8.312  0.3793  1.7920 -0.7125
  155SAPE  H14Y17300   0.838  -0.467   8.150 -1.5102  1.6514 -1.7366
  155SAPE  C31517301   0.714  -0.597   8.274 -0.1787 -0.5059 -0.0828
  155SAPE  H15X17302   0.671  -0.663   8.195 -2.0646  0.0338  0.4359
  155SAPE  H15Y17303   0.642  -0.581   8.358 -0.7245 -2.0219 -0.2217
  155SAPE  C31617304   0.830  -0.667   8.352 -0.6987 -0.0638  0.6998
  155SAPE  H16X17305   0.869  -0.594   8.426  1.6625 -0.7244  0.1930
  155SAPE  H16Y17306   0.912  -0.690   8.280  1.2038 -0.5477  2.8990
  155SAPE  C31717307   0.786  -0.801   8.406 -0.4519  0.0219  0.5936
  155SAPE  H17X17308   0.763  -0.869   8.321  2.1050 -1.4251  0.9453
  155SAPE  H17Y17309   0.692  -0.798   8.464  0.1712  0.3453  1.6147
  155SAPE  C31817310   0.883  -0.861   8.509 -0.4318  0.4009 -0.4565
  155SAPE  H18X17311   0.897  -0.795   8.597  0.4889  0.4638 -0.6442
  155SAPE  H18Y17312   0.984  -0.887   8.470 -0.2325 -0.6728  0.7140
  155SAPE  H18Z17313   0.835  -0.953   8.549 -1.0024  0.8900  0.0068
  156SAPE     N17314   5.145   0.167   6.329  0.0025  0.2967 -0.0527
  156SAPE   HN117315   5.197   0.196   6.414 -1.7663 -0.0152  1.1848
  156SAPE   HN217316   5.143   0.236   6.251 -0.5729 -0.6350 -0.8827
  156SAPE   HN317317   5.047   0.160   6.360 -0.2434  1.5804 -0.4933
  156SAPE   C1217318   5.185   0.033   6.285 -0.7103  0.4511 -0.0109
  156SAPE  H12A17319   5.284   0.041   6.235  0.5361  3.1976  2.5457
  156SAPE  H12B17320   5.104  -0.007   6.221 -0.3125  1.0718 -0.9153
  156SAPE   C1117321   5.208  -0.050   6.412  0.4416 -0.5054  0.4027
  156SAPE  H11A17322   5.230  -0.156   6.385  0.2220 -0.7575  1.1773
  156SAPE  H11B17323   5.109  -0.060   6.463  0.2900  0.5549  0.3229
  156SAPE     P17324   5.457  -0.009   6.476  0.3398 -0.1092 -0.1039
  156SAPE   O1317325   5.478  -0.124   6.388  0.1410  0.1497  0.0065
  156SAPE   O1417326   5.520   0.121   6.438  0.2737 -0.5642  0.6268
  156SAPE   O1217327   5.302   0.015   6.500  0.0569 -0.6599 -0.3531
  156SAPE   O1117328   5.493  -0.053   6.619  0.2045 -0.4438 -0.2950
  156SAPE    C117329   5.450   0.028   6.728 -0.3904  0.2528 -0.0297
  156SAPE    HA17330   5.456   0.137   6.709 -1.9662  0.3768  0.1148
  156SAPE    HB17331   5.345   0.016   6.760 -0.7469  1.3891 -0.7170
  156SAPE    C217332   5.534  -0.013   6.852 -0.0408  0.3215  0.1369
  156SAPE    HS17333   5.468   0.001   6.940  2.2667 -0.9976  2.1757
  156SAPE   O2117334   5.657   0.060   6.852 -0.0612 -0.0728 -0.4367
  156SAPE   C2117335   5.646   0.188   6.888 -0.2768  0.4020  0.0884
  156SAPE   O2217336   5.546   0.243   6.921  0.4766 -0.8115  0.3105
  156SAPE   C2217337   5.793   0.250   6.880  1.0756  0.3903 -0.4728
  156SAPE   H2R17338   5.820   0.249   6.772 -1.6369 -0.5523 -1.2414
  156SAPE   H2S17339   5.776   0.356   6.910 -1.3812  1.0138 -3.4551
  156SAPE    C317340   5.578  -0.165   6.858 -0.2655  1.3144 -0.6157
  156SAPE    HX17341   5.635  -0.185   6.765  0.4928  0.9466 -0.0816
  156SAPE    HY17342   5.483  -0.222   6.844  0.3373 -0.2042  1.1665
  156SAPE   O3117343   5.649  -0.215   6.976  0.5847 -0.2884  0.9301
  156SAPE   C3117344   5.778  -0.193   6.979 -0.3694 -0.1568  0.9122
  156SAPE   O3217345   5.845  -0.163   6.879 -0.2391  0.2496  0.0195
  156SAPE   C3217346   5.823  -0.200   7.132 -0.1574 -0.1625 -0.3573
  156SAPE   H2X17347   5.778  -0.296   7.165 -1.7114  1.4624  2.5496
  156SAPE   H2Y17348   5.780  -0.115   7.189 -0.5048 -0.2706 -0.4593
  156SAPE   C2317349   5.889   0.176   6.973  0.6510  0.0017 -0.5235
  156SAPE   H3R17350   5.986   0.224   6.948 -0.1702  2.3369  0.4750
  156SAPE   H3S17351   5.891   0.069   6.942  2.1317  0.3833 -1.8912
  156SAPE   C2417352   5.851   0.196   7.124  0.4861 -0.0205  0.5602
  156SAPE   H4R17353   5.919   0.131   7.184  3.2395  1.7961 -0.3854
  156SAPE   H4S17354   5.744   0.167   7.134 -0.2266  2.8712  2.2292
  156SAPE   C2517355   5.871   0.340   7.164  0.2715 -0.2753 -0.1325
  156SAPE   H5R17356   5.939   0.400   7.103 -1.2352 -0.1769 -1.7814
  156SAPE   C2617357   5.804   0.394   7.271 -0.5214 -1.5459 -0.2673
  156SAPE   H6R17358   5.838   0.494   7.300 -2.6425 -0.7048 -0.4893
  156SAPE   C2717359   5.697   0.337   7.353 -0.1041  0.4447  0.5088
  156SAPE   H7R17360   5.721   0.234   7.386 -1.7629 -0.7375 -1.6885
  156SAPE   H7S17361   5.607   0.326   7.288  0.3702  1.9194 -0.4474
  156SAPE   C2817362   5.659   0.406   7.480  0.4423 -0.9462  0.3618
  156SAPE   H8R17363   5.553   0.434   7.486  0.6252  0.1015 -0.9188
  156SAPE   C2917364   5.736   0.447   7.583  0.4041 -0.1232  0.2391
  156SAPE   H9R17365   5.688   0.481   7.676 -0.1600  0.0258 -0.1012
  156SAPE  C21017366   5.882   0.425   7.594  0.4526 -0.8643  0.2420
  156SAPE  H10R17367   5.936   0.473   7.510  1.3921 -0.2737  1.1460
  156SAPE  H10S17368   5.916   0.319   7.593  0.9924 -0.7149 -1.8569
  156SAPE  C21117369   5.940   0.483   7.721  0.5976  0.5753 -0.1266
  156SAPE  H11R17370   5.933   0.414   7.806  0.1137  0.4440 -0.2675
  156SAPE  C21217371   5.960   0.610   7.744  0.3947 -0.2587 -0.1919
  156SAPE  H12R17372   6.006   0.641   7.840  0.6937 -1.1796 -0.0295
  156SAPE  C21317373   5.941   0.727   7.652  1.0877  0.7812 -0.1380
  156SAPE  H13R17374   5.909   0.816   7.710  0.0428  0.9639 -0.9644
  156SAPE  H13S17375   5.866   0.713   7.571  0.3844  0.3248  0.5774
  156SAPE  C21417376   6.075   0.777   7.604  0.0852  0.5133  0.0070
  156SAPE  H14R17377   6.164   0.749   7.662 -0.9222  1.0091  1.8772
  156SAPE  C21517378   6.104   0.843   7.489  0.0781 -0.6990 -0.0918
  156SAPE  H15R17379   6.208   0.869   7.467  0.0411 -1.5666 -1.4477
  156SAPE  C21617380   6.017   0.869   7.370 -0.4649 -0.4882  0.2265
  156SAPE  H16R17381   6.016   0.979   7.354  4.6679 -0.4242 -1.4432
  156SAPE  H16S17382   5.915   0.835   7.395 -0.6829  1.6390  2.6280
  156SAPE  C21717383   6.081   0.804   7.243  0.4512  0.5279  0.2509
  156SAPE  H17R17384   6.072   0.694   7.252 -1.9282  0.3115 -2.9003
  156SAPE  H17S17385   6.189   0.829   7.236  0.8475 -1.3200 -1.3264
  156SAPE  C21817386   6.021   0.849   7.104 -0.2404 -0.2341 -0.3783
  156SAPE  H18R17387   6.080   0.815   7.017 -0.0634 -0.3175 -0.2248
  156SAPE  H18S17388   6.035   0.959   7.094  1.3190 -0.6397 -4.7048
  156SAPE  C21917389   5.876   0.817   7.083  0.3293 -0.1848 -0.0656
  156SAPE  H19R17390   5.821   0.881   7.010  0.5191  1.1461  0.9278
  156SAPE  H19S17391   5.823   0.821   7.181 -0.3875 -3.4387 -0.1999
  156SAPE  C22017392   5.871   0.671   7.037  0.3062  0.1086  0.5068
  156SAPE  H20R17393   5.924   0.661   6.939 -0.1349  2.1073  0.0109
  156SAPE  H20S17394   5.766   0.649   7.010  0.3385 -0.1657  0.6063
  156SAPE  H20T17395   5.909   0.598   7.111 -0.3448  0.0241  0.7625
  156SAPE   C3317396   5.981  -0.202   7.162 -0.6300 -0.0275  0.8402
  156SAPE   H3X17397   6.013  -0.099   7.135 -3.2032  0.3180 -1.3755
  156SAPE   H3Y17398   6.037  -0.274   7.099  4.9819  2.4876  2.3827
  156SAPE   C3417399   6.003  -0.231   7.305  0.4688 -0.0246 -0.6092
  156SAPE   H4X17400   5.957  -0.328   7.334  2.3386 -0.6901  0.2678
  156SAPE   H4Y17401   5.958  -0.151   7.368 -0.6630 -2.9154  2.5463
  156SAPE   C3517402   6.152  -0.222   7.346 -0.1111  0.4723  0.0959
  156SAPE   H5X17403   6.199  -0.150   7.277 -0.1831 -1.4948 -2.1212
  156SAPE   H5Y17404   6.206  -0.317   7.329 -0.9355  0.3032 -1.7733
  156SAPE   C3617405   6.179  -0.176   7.489 -0.0457  1.0833  0.1880
  156SAPE   H6X17406   6.287  -0.201   7.499 -0.3763 -1.2186 -1.3112
  156SAPE   H6Y17407   6.135  -0.247   7.562  2.0234  1.1961  1.6310
  156SAPE   C3717408   6.154  -0.032   7.515  0.0919 -0.5503  0.2016
  156SAPE   H7X17409   6.047  -0.026   7.542  0.2204 -0.3872  0.6796
  156SAPE   H7Y17410   6.174   0.031   7.425 -2.7032 -0.9341 -0.7929
  156SAPE   C3817411   6.233   0.030   7.628  0.0852 -0.1520 -0.1877
  156SAPE   H8X17412   6.211   0.137   7.647 -1.0425 -0.5480  0.9185
  156SAPE   H8Y17413   6.342   0.020   7.611  0.9261  2.6428  2.7206
  156SAPE   C3917414   6.213  -0.034   7.767 -0.1732 -0.0980 -0.3417
  156SAPE   H9X17415   6.208  -0.144   7.752  0.1263 -0.3418  1.2531
  156SAPE   H9Y17416   6.113  -0.008   7.808  0.9362  2.0357  1.1769
  156SAPE  C31017417   6.312  -0.002   7.879  0.3185 -0.5185 -0.5968
  156SAPE  H10X17418   6.260  -0.046   7.968 -1.4300 -0.2451 -1.4317
  156SAPE  H10Y17419   6.319   0.108   7.894  0.5946 -0.3962 -1.5903
  156SAPE  C31117420   6.453  -0.059   7.870 -0.1613  0.5090 -0.5634
  156SAPE  H11X17421   6.488  -0.050   7.765  1.6742  0.0410 -0.0261
  156SAPE  H11Y17422   6.448  -0.167   7.898  1.1872  0.5671 -0.0714
  156SAPE  C31217423   6.553  -0.001   7.962  0.4882 -0.3457 -0.8055
  156SAPE  H12X17424   6.538   0.109   7.961  0.1715 -0.3814 -0.3203
  156SAPE  H12Y17425   6.653  -0.029   7.922  0.7518  2.1470 -2.0795
  156SAPE  C31317426   6.544  -0.035   8.109  0.2291 -0.1118 -0.1625
  156SAPE  H13X17427   6.585  -0.137   8.125 -0.9011 -0.7113 -0.9269
  156SAPE  H13Y17428   6.442  -0.032   8.153  0.6591  0.0136  0.8476
  156SAPE  C31417429   6.637   0.058   8.199 -0.7510  0.8333  0.1558
  156SAPE  H14X17430   6.604   0.164   8.206 -0.3763  0.9631 -0.0622
  156SAPE  H14Y17431   6.734   0.064   8.145 -0.2871  2.1250  1.1043
  156SAPE  C31517432   6.661   0.014   8.342 -0.1525 -0.1500  0.4779
  156SAPE  H15X17433   6.727  -0.073   8.360 -1.4931 -1.4222 -0.5315
  156SAPE  H15Y17434   6.563  -0.027   8.374 -0.2413 -0.7264 -0.4981
  156SAPE  C31617435   6.713   0.124   8.432  1.1789 -0.0863  0.3336
  156SAPE  H16X17436   6.636   0.204   8.440  0.9141 -0.4039  1.0726
  156SAPE  H16Y17437   6.811   0.157   8.390  0.5608  0.2398 -0.8880
  156SAPE  C31717438   6.744   0.066   8.574 -0.3602 -0.9015  0.6221
  156SAPE  H17X17439   6.827  -0.008   8.568 -0.2680 -0.7063 -1.3150
  156SAPE  H17Y17440   6.650   0.015   8.603 -1.3275 -0.2888 -1.2682
  156SAPE  C31817441   6.776   0.179   8.675  0.1285  0.1921  0.1635
  156SAPE  H18X17442   6.858   0.238   8.629  0.5737  1.4435  2.4322
  156SAPE  H18Y17443   6.816   0.138   8.770  0.3304 -1.3548 -0.5537
  156SAPE  H18Z17444   6.686   0.242   8.688  0.3889  0.9755 -1.5261
  157SAPE     N17445   4.097   3.051   5.818  0.1394  0.1391 -0.3106
  157SAPE   HN117446   4.137   2.957   5.836  0.2704  0.4054  0.9155
  157SAPE   HN217447   3.996   3.034   5.798  0.5318 -0.8668 -1.5592
  157SAPE   HN317448   4.146   3.085   5.733  0.6698 -1.7534 -0.8135
  157SAPE   C1217449   4.130   3.134   5.933  0.7105  0.1325 -0.2902
  157SAPE  H12A17450   4.151   3.236   5.895  1.4962 -0.4142 -1.3867
  157SAPE  H12B17451   4.224   3.103   5.984  0.0448 -1.4278  0.0472
  157SAPE   C1117452   4.007   3.135   6.029  0.2159  0.0973 -0.1088
  157SAPE  H11A17453   4.036   3.186   6.123  2.0204 -0.6452 -0.2259
  157SAPE  H11B17454   3.982   3.030   6.055 -0.5394 -0.6219 -3.2788
  157SAPE     P17455   3.747   3.154   6.019 -0.2820  0.2205 -0.0765
  157SAPE   O1317456   3.641   3.225   5.951  0.2007  0.1377 -0.0177
  157SAPE   O1417457   3.735   3.003   6.032 -0.1997 -0.5969  0.1396
  157SAPE   O1217458   3.894   3.198   5.970  0.3191  0.6084  0.3648
  157SAPE   O1117459   3.756   3.213   6.166 -0.1310  0.1187  0.0468
  157SAPE    C117460   3.762   3.356   6.198 -0.2584  0.4363  0.3253
  157SAPE    HA17461   3.781   3.423   6.111 -1.9000 -2.1256 -2.2040
  157SAPE    HB17462   3.667   3.381   6.249 -1.0814 -0.5383 -0.6605
  157SAPE    C217463   3.876   3.392   6.305  0.3775 -0.6529  0.8902
  157SAPE    HS17464   3.976   3.396   6.257  0.2234  0.2352  0.6167
  157SAPE   O2117465   3.870   3.297   6.419  0.1459 -0.2058 -0.5750
  157SAPE   C2117466   3.961   3.212   6.430 -0.3719  0.1692  1.0083
  157SAPE   O2217467   4.069   3.209   6.366 -0.4917 -0.2342 -0.5502
  157SAPE   C2217468   3.919   3.122   6.546 -0.5871 -0.0891  1.0732
  157SAPE   H2R17469   3.902   3.192   6.631 -0.4930 -0.4330  1.3812
  157SAPE   H2S17470   3.819   3.088   6.512 -0.3085 -0.2522  0.4023
  157SAPE    C317471   3.852   3.537   6.352  0.1294 -0.2859  0.1091
  157SAPE    HX17472   3.746   3.541   6.384 -0.0415 -1.8853 -0.1812
  157SAPE    HY17473   3.855   3.609   6.267 -0.0705  0.2597  0.5526
  157SAPE   O3117474   3.946   3.595   6.446 -0.2698  0.0192  0.0679
  157SAPE   C3117475   3.913   3.591   6.577  0.7105  0.6594  0.4881
  157SAPE   O3217476   3.804   3.550   6.620 -0.5686  0.6355 -0.4030
  157SAPE   C3217477   4.032   3.649   6.665  0.6223  0.2839 -0.0060
  157SAPE   H2X17478   4.017   3.758   6.649 -0.0157 -0.0562 -2.0995
  157SAPE   H2Y17479   4.131   3.626   6.620  0.3646  1.2541 -1.1099
  157SAPE   C2317480   4.028   3.012   6.588  0.3332 -0.3478  0.2187
  157SAPE   H3R17481   4.035   2.947   6.498  0.1503  2.4669 -1.9858
  157SAPE   H3S17482   3.972   2.957   6.666 -1.6207 -2.0125 -2.2324
  157SAPE   C2417483   4.158   3.071   6.641  0.7459 -0.3381  0.3111
  157SAPE   H4R17484   4.129   3.126   6.734  0.9250 -1.3032  0.9480
  157SAPE   H4S17485   4.183   3.156   6.574 -1.7554 -0.6369 -1.1269
  157SAPE   C2517486   4.269   2.970   6.674 -0.3791 -0.0473 -0.3139
  157SAPE   H5R17487   4.317   2.914   6.593  0.3696  1.6540 -1.0812
  157SAPE   C2617488   4.310   2.952   6.800 -0.6261  0.1222 -0.0142
  157SAPE   H6R17489   4.398   2.887   6.811 -0.3537  0.0164 -2.3218
  157SAPE   C2717490   4.266   3.022   6.922  0.1945  0.0329 -0.5782
  157SAPE   H7R17491   4.156   3.013   6.935  0.4791  0.0038  2.5903
  157SAPE   H7S17492   4.282   3.132   6.917  1.9259 -0.0446  1.8265
  157SAPE   C2817493   4.330   2.973   7.047  0.7820 -0.2481 -0.2002
  157SAPE   H8R17494   4.429   2.928   7.035  0.2558 -1.3346 -0.6359
  157SAPE   C2917495   4.281   2.985   7.177  0.1212 -0.5321  0.2058
  157SAPE   H9R17496   4.340   2.946   7.261  0.2922 -2.7841 -0.8738
  157SAPE  C21017497   4.147   3.046   7.215  0.2899 -0.1842  0.3061
  157SAPE  H10R17498   4.106   2.971   7.287  0.2245  0.3880  0.8702
  157SAPE  H10S17499   4.083   3.051   7.124 -2.0631  2.5809  1.9430
  157SAPE  C21117500   4.164   3.184   7.276 -0.0506  0.3402  0.5816
  157SAPE  H11R17501   4.194   3.265   7.208  2.3504 -0.4254  0.6323
  157SAPE  C21217502   4.144   3.208   7.401  0.5789  0.1733  0.0524
  157SAPE  H12R17503   4.137   3.316   7.421  0.4029  0.2499 -0.4290
  157SAPE  C21317504   4.094   3.111   7.509  0.6615  0.0965  0.3876
  157SAPE  H13R17505   4.034   3.032   7.458  1.2906  1.7169 -3.1709
  157SAPE  H13S17506   4.035   3.157   7.592 -0.0183 -0.4577  0.2279
  157SAPE  C21417507   4.205   3.031   7.568  0.0232 -1.1235 -0.0246
  157SAPE  H14R17508   4.307   3.069   7.557 -0.6211  0.2742 -1.6440
  157SAPE  C21517509   4.186   2.929   7.653 -0.9526 -0.2936 -0.1838
  157SAPE  H15R17510   4.275   2.897   7.709  1.4498  2.4839 -2.1244
  157SAPE  C21617511   4.051   2.871   7.695  0.1362  0.1357  0.1343
  157SAPE  H16R17512   4.004   2.824   7.606 -0.9875  1.2818  0.0966
  157SAPE  H16S17513   3.971   2.940   7.728 -0.7332 -1.5114  1.6237
  157SAPE  C21717514   4.054   2.773   7.814 -0.6481  0.1256 -0.3941
  157SAPE  H17R17515   4.121   2.687   7.793  0.1280  0.1780  1.6363
  157SAPE  H17S17516   3.948   2.748   7.834 -0.7754  0.1714 -1.0035
  157SAPE  C21817517   4.122   2.839   7.942  0.9991 -0.3246  0.4265
  157SAPE  H18R17518   4.045   2.914   7.969 -0.2560 -1.0522 -0.9418
  157SAPE  H18S17519   4.216   2.890   7.913  0.7844 -0.4996 -0.6403
  157SAPE  C21917520   4.139   2.738   8.061  0.4394 -0.7257 -0.3723
  157SAPE  H19R17521   4.230   2.770   8.116  1.0166  1.2860 -2.3254
  157SAPE  H19S17522   4.171   2.645   8.009 -0.1274 -0.1380 -1.8327
  157SAPE  C22017523   4.030   2.707   8.160  0.1702  0.4945 -0.0465
  157SAPE  H20R17524   3.956   2.635   8.118  1.8310 -0.3097 -1.7905
  157SAPE  H20S17525   3.956   2.789   8.170 -0.7672 -0.4250  0.8122
  157SAPE  H20T17526   4.052   2.690   8.267  0.4656 -2.7098 -0.5150
  157SAPE   C3317527   4.017   3.608   6.813 -0.5390  0.2701  0.1699
  157SAPE   H3X17528   3.921   3.638   6.860 -1.0913 -2.3152  0.8905
  157SAPE   H3Y17529   4.099   3.656   6.869 -0.3427  2.4774 -1.8371
  157SAPE   C3417530   4.021   3.457   6.844 -0.2042  0.3570  0.4130
  157SAPE   H4X17531   4.109   3.414   6.792  1.6977  1.6761  2.3542
  157SAPE   H4Y17532   3.935   3.398   6.807  0.8738 -1.6452  0.9327
  157SAPE   C3517533   4.033   3.435   6.994 -0.7053  0.4495  0.0381
  157SAPE   H5X17534   4.129   3.463   7.041  0.6163 -0.2911 -2.0872
  157SAPE   H5Y17535   4.037   3.325   7.010 -1.5499  0.5191  0.8567
  157SAPE   C3617536   3.907   3.482   7.063 -0.2235  0.7141  0.1071
  157SAPE   H6X17537   3.817   3.451   7.005 -0.1124  1.1780 -0.3266
  157SAPE   H6Y17538   3.892   3.592   7.068  1.1887  0.8640  2.9832
  157SAPE   C3717539   3.904   3.424   7.206  0.5679  0.4799  0.3218
  157SAPE   H7X17540   3.989   3.465   7.264  0.5168  2.2072 -0.7417
  157SAPE   H7Y17541   3.922   3.316   7.190 -0.2311  0.6720 -2.4475
  157SAPE   C3817542   3.767   3.449   7.266  0.2451 -0.4125  0.0919
  157SAPE   H8X17543   3.708   3.463   7.173  3.1318 -0.7522 -1.9259
  157SAPE   H8Y17544   3.764   3.549   7.314 -0.5390  0.8372 -2.3678
  157SAPE   C3917545   3.702   3.336   7.341  0.1252 -0.3366  0.5367
  157SAPE   H9X17546   3.702   3.240   7.285  0.6116  0.2570 -0.5188
  157SAPE   H9Y17547   3.598   3.371   7.361  1.0012  1.7948  1.6693
  157SAPE  C31017548   3.755   3.320   7.482  0.0660 -0.7851 -0.6591
  157SAPE  H10X17549   3.748   3.425   7.520 -2.8473 -1.4439  0.9322
  157SAPE  H10Y17550   3.858   3.281   7.466 -0.0209 -0.6847 -1.5020
  157SAPE  C31117551   3.679   3.238   7.589  0.2385  0.4079  0.2644
  157SAPE  H11X17552   3.751   3.202   7.666  1.9072 -0.0753 -1.4399
  157SAPE  H11Y17553   3.637   3.141   7.555  0.4264  0.9515 -1.6654
  157SAPE  C31217554   3.580   3.309   7.674  0.1359 -0.0050 -0.3139
  157SAPE  H12X17555   3.484   3.318   7.619  0.1180 -1.5543 -0.5797
  157SAPE  H12Y17556   3.621   3.410   7.693  1.1034 -0.5038  0.3008
  157SAPE  C31317557   3.556   3.237   7.804  0.8787 -0.5756 -0.2863
  157SAPE  H13X17558   3.646   3.248   7.868  0.4271 -0.2331  0.3056
  157SAPE  H13Y17559   3.542   3.128   7.785 -1.8325 -0.3595  0.0434
  157SAPE  C31417560   3.444   3.287   7.895 -0.4841 -0.1020  0.6427
  157SAPE  H14X17561   3.348   3.258   7.846  0.5738 -1.7910 -0.5399
  157SAPE  H14Y17562   3.437   3.397   7.915 -2.4434 -0.2562  0.9843
  157SAPE  C31517563   3.451   3.211   8.035 -0.7587  0.4925  0.4619
  157SAPE  H15X17564   3.554   3.226   8.074 -0.5405 -0.4778  0.2988
  157SAPE  H15Y17565   3.435   3.102   8.019  1.2467  0.1275  0.5775
  157SAPE  C31617566   3.341   3.262   8.134  0.5059 -0.0495 -0.1405
  157SAPE  H16X17567   3.328   3.183   8.211 -1.9126  0.8814  0.5046
  157SAPE  H16Y17568   3.250   3.285   8.075  1.0962  0.4361 -0.8798
  157SAPE  C31717569   3.390   3.388   8.222 -0.7246  0.4146  0.6378
  157SAPE  H17X17570   3.331   3.393   8.316  3.6888  0.9915  3.6593
  157SAPE  H17Y17571   3.370   3.473   8.153  0.1439  0.6594  0.6801
  157SAPE  C31817572   3.533   3.379   8.271  0.0225  0.1709  0.5603
  157SAPE  H18X17573   3.594   3.432   8.195 -0.9560  0.8003  0.2004
  157SAPE  H18Y17574   3.570   3.277   8.294 -0.1370 -0.3806 -1.4586
  157SAPE  H18Z17575   3.530   3.440   8.365 -0.6858 -0.4954  0.9842
  158SAPE     N17576   5.772   4.425   6.100  0.3399  0.5847  0.0201
  158SAPE   HN117577   5.806   4.327   6.106  1.4156  0.9926  0.9391
  158SAPE   HN217578   5.673   4.433   6.069 -0.5551  0.0698  2.5084
  158SAPE   HN317579   5.840   4.464   6.033 -1.0126  2.0264 -0.5911
  158SAPE   C1217580   5.801   4.488   6.234 -0.3435  0.3134 -0.3731
  158SAPE  H12A17581   5.908   4.465   6.254  0.5387  0.2875 -4.3092
  158SAPE  H12B17582   5.741   4.433   6.310  2.4419 -0.6809  1.2762
  158SAPE   C1117583   5.773   4.635   6.243 -0.9461  0.0185 -0.0592
  158SAPE  H11A17584   5.834   4.682   6.162 -1.1972 -3.3235 -2.3910
  158SAPE  H11B17585   5.797   4.668   6.346 -1.7091 -2.7637  1.0797
  158SAPE     P17586   5.569   4.796   6.239 -0.2384  0.6747  0.2897
  158SAPE   O1317587   5.540   4.851   6.108  0.0992  0.0122  0.0465
  158SAPE   O1417588   5.457   4.772   6.338  0.2952 -0.5978  0.2725
  158SAPE   O1217589   5.639   4.662   6.211 -0.1574  0.1760 -0.4871
  158SAPE   O1117590   5.683   4.876   6.301 -0.9300 -0.0406 -0.1023
  158SAPE    C117591   5.654   4.960   6.414 -0.0715  0.4195  0.2590
  158SAPE    HA17592   5.727   5.044   6.409 -0.1181  0.5092  0.9816
  158SAPE    HB17593   5.555   5.009   6.402  0.4614  1.3645 -0.3874
  158SAPE    C217594   5.680   4.897   6.555 -0.1732 -0.6549  0.0442
  158SAPE    HS17595   5.663   4.975   6.633  0.5891  0.8593 -1.2667
  158SAPE   O2117596   5.807   4.852   6.567 -0.5818 -0.3622 -0.0068
  158SAPE   C2117597   5.908   4.945   6.582 -0.6466 -0.5525  0.5250
  158SAPE   O2217598   5.885   5.061   6.603  0.3665 -0.4951  0.4946
  158SAPE   C2217599   6.046   4.888   6.561  1.1406  0.7520 -0.0175
  158SAPE   H2R17600   6.043   4.779   6.581 -2.1879  0.7349  0.0431
  158SAPE   H2S17601   6.076   4.917   6.459  0.1796  2.1477  0.0660
  158SAPE    C317602   5.582   4.783   6.593 -0.0138 -0.4276 -0.5915
  158SAPE    HX17603   5.617   4.699   6.530  0.5856  0.0376 -0.8986
  158SAPE    HY17604   5.484   4.825   6.561  0.7928  1.4887 -0.7151
  158SAPE   O3117605   5.597   4.762   6.740 -0.1566  0.1218  0.7333
  158SAPE   C3117606   5.673   4.656   6.779 -0.4822  0.4083 -0.0190
  158SAPE   O3217607   5.707   4.569   6.697  0.0784  0.2350 -0.2347
  158SAPE   C3217608   5.722   4.676   6.920 -0.3033  1.1827  0.5103
  158SAPE   H2X17609   5.639   4.705   6.989 -0.7918  1.6685 -0.2619
  158SAPE   H2Y17610   5.795   4.760   6.917  0.3146  0.6507  0.7057
  158SAPE   C2317611   6.145   4.951   6.653 -0.0680 -0.3550  0.0736
  158SAPE   H3R17612   6.116   4.940   6.760 -0.1895  1.5081  0.2646
  158SAPE   H3S17613   6.143   5.062   6.638  1.2486 -0.3230  0.0613
  158SAPE   C2417614   6.288   4.908   6.618  0.7078  0.9093  0.7603
  158SAPE   H4R17615   6.362   4.985   6.647 -1.2821  2.2944  2.5022
  158SAPE   H4S17616   6.291   4.897   6.507 -1.8994  0.2092  0.6898
  158SAPE   C2517617   6.314   4.773   6.680  0.6304 -0.5729  0.5378
  158SAPE   H5R17618   6.316   4.694   6.604  1.9528  0.4913 -0.5939
  158SAPE   C2617619   6.362   4.742   6.800  0.5625 -0.0708 -0.3059
  158SAPE   H6R17620   6.382   4.635   6.815 -0.0868  0.0180  1.3042
  158SAPE   C2717621   6.404   4.837   6.906 -0.5924  0.7009 -0.6636
  158SAPE   H7R17622   6.431   4.938   6.870 -0.3154  0.6728 -0.5356
  158SAPE   H7S17623   6.496   4.797   6.953 -0.8216  1.2056  0.2455
  158SAPE   C2817624   6.297   4.847   7.014  0.4810 -0.2311 -0.3905
  158SAPE   H8R17625   6.192   4.861   6.984  0.0701  1.6559  1.6861
  158SAPE   C2917626   6.311   4.828   7.149 -0.2071  0.5877  0.2332
  158SAPE   H9R17627   6.227   4.852   7.215 -1.7289 -0.3220 -1.2751
  158SAPE  C21017628   6.432   4.788   7.231  0.5656 -0.7937 -0.3071
  158SAPE  H10R17629   6.464   4.877   7.290 -1.5612  0.3009 -0.7287
  158SAPE  H10S17630   6.520   4.773   7.165  1.1804  0.5411  0.1648
  158SAPE  C21117631   6.412   4.666   7.310 -0.1700  0.3466 -0.3233
  158SAPE  H11R17632   6.435   4.573   7.256  0.4103 -0.2562  0.8965
  158SAPE  C21217633   6.369   4.654   7.436  0.2108 -0.0690 -0.2712
  158SAPE  H12R17634   6.365   4.555   7.484 -2.9144  1.1661  2.3471
  158SAPE  C21317635   6.327   4.766   7.531 -0.4421  0.5149 -0.4019
  158SAPE  H13R17636   6.219   4.747   7.546 -0.3254 -0.5003 -0.7510
  158SAPE  H13S17637   6.322   4.862   7.476 -2.5554  0.5318 -0.2290
  158SAPE  C21417638   6.391   4.775   7.671  0.5878  0.1614  0.8973
  158SAPE  H14R17639   6.484   4.718   7.682 -0.4802 -1.8047  0.1154
  158SAPE  C21517640   6.347   4.849   7.775  0.6094 -1.1543 -0.4204
  158SAPE  H15R17641   6.393   4.840   7.874 -0.6075  0.5517  0.3437
  158SAPE  C21617642   6.219   4.927   7.770 -0.3826  0.1352  0.3047
  158SAPE  H16R17643   6.179   4.939   7.667 -0.7000  0.1169  0.4243
  158SAPE  H16S17644   6.236   5.032   7.803  0.2821  0.4972 -1.1370
  158SAPE  C21717645   6.113   4.874   7.873 -0.4702  0.2988  0.5221
  158SAPE  H17R17646   6.148   4.895   7.976 -0.0379 -0.3532  0.5153
  158SAPE  H17S17647   6.104   4.765   7.854  1.1506  0.6287 -2.9696
  158SAPE  C21817648   5.973   4.933   7.887  0.0318 -0.7826  0.4183
  158SAPE  H18R17649   5.920   4.916   7.791  0.0964  0.3258  0.1682
  158SAPE  H18S17650   5.982   5.044   7.896  1.3117 -0.7264 -1.1316
  158SAPE  C21917651   5.893   4.873   8.007 -1.4677  0.0047  0.0992
  158SAPE  H19R17652   5.926   4.938   8.091  0.4767 -0.2557 -0.4320
  158SAPE  H19S17653   5.921   4.766   8.012  2.2581  0.8830  1.0325
  158SAPE  C22017654   5.748   4.875   7.999  0.3453 -0.1828 -0.5350
  158SAPE  H20R17655   5.718   4.979   8.022  1.4233  0.4648 -1.9441
  158SAPE  H20S17656   5.695   4.809   8.072 -2.0062  1.4155 -0.6965
  158SAPE  H20T17657   5.711   4.850   7.897  1.4113  1.0469 -1.2531
  158SAPE   C3317658   5.790   4.555   6.971  0.4282 -0.6894  0.4429
  158SAPE   H3X17659   5.878   4.552   6.903 -2.2330  0.7906 -3.3603
  158SAPE   H3Y17660   5.724   4.466   6.971 -0.9816  0.2117  3.3272
  158SAPE   C3417661   5.850   4.579   7.116 -0.3352  0.2395 -0.4235
  158SAPE   H4X17662   5.777   4.614   7.192  0.0853 -3.5963  2.0310
  158SAPE   H4Y17663   5.920   4.665   7.120 -1.5169  1.2722 -1.1400
  158SAPE   C3517664   5.927   4.448   7.162  0.1128  1.1576 -0.1874
  158SAPE   H5X17665   6.007   4.415   7.092  0.5425 -1.7533  1.5307
  158SAPE   H5Y17666   5.850   4.369   7.161 -0.2562  1.4968 -1.6601
  158SAPE   C3617667   5.995   4.464   7.296  0.2420 -0.3444  0.1766
  158SAPE   H6X17668   6.064   4.551   7.299 -0.0651 -0.0955 -0.0315
  158SAPE   H6Y17669   6.054   4.374   7.324 -0.9649 -1.0653  0.4777
  158SAPE   C3717670   5.887   4.497   7.404 -0.3230  0.7462  0.2525
  158SAPE   H7X17671   5.855   4.599   7.377 -1.0256  0.9014  1.6006
  158SAPE   H7Y17672   5.813   4.416   7.386  2.2819 -1.7370 -0.2497
  158SAPE   C3817673   5.927   4.501   7.554 -0.1273  0.1379 -0.2643
  158SAPE   H8X17674   6.000   4.584   7.558  1.4648 -1.2127 -0.3591
  158SAPE   H8Y17675   5.979   4.406   7.580 -0.0171 -0.0815 -1.2677
  158SAPE   C3917676   5.810   4.534   7.654 -0.6443  0.1654  0.0286
  158SAPE   H9X17677   5.724   4.468   7.629 -0.0105  0.3269 -2.9597
  158SAPE   H9Y17678   5.772   4.638   7.640 -1.8799 -0.2747 -0.0443
  158SAPE  C31017679   5.854   4.503   7.803  0.7213 -0.4832  0.8327
  158SAPE  H10X17680   5.924   4.585   7.831 -1.0934  1.7121 -0.6989
  158SAPE  H10Y17681   5.907   4.405   7.798 -0.2934 -1.0024 -2.8025
  158SAPE  C31117682   5.736   4.512   7.903 -0.6668 -0.5316  0.4209
  158SAPE  H11X17683   5.647   4.470   7.853  0.6150 -1.5036 -1.1468
  158SAPE  H11Y17684   5.708   4.617   7.929 -3.0356 -0.4909 -1.9443
  158SAPE  C31217685   5.760   4.441   8.046  0.1761  0.4565  0.0445
  158SAPE  H12X17686   5.855   4.465   8.099  0.7861 -0.7350 -0.4891
  158SAPE  H12Y17687   5.773   4.332   8.027  0.6265  0.2472  1.4420
  158SAPE  C31317688   5.629   4.449   8.127 -0.0874 -0.0508 -0.4585
  158SAPE  H13X17689   5.550   4.392   8.074 -2.0420 -1.0189  3.1369
  158SAPE  H13Y17690   5.593   4.553   8.139  0.4993  0.1007  0.0488
  158SAPE  C31417691   5.634   4.396   8.275 -0.7285 -0.4639  0.2578
  158SAPE  H14X17692   5.662   4.288   8.276  3.7796  0.4425  2.7830
  158SAPE  H14Y17693   5.533   4.400   8.321 -0.9625 -1.8590 -0.0697
  158SAPE  C31517694   5.742   4.464   8.359 -0.0526 -0.1243  0.3759
  158SAPE  H15X17695   5.843   4.427   8.329  0.0525 -0.5949  1.2963
  158SAPE  H15Y17696   5.729   4.440   8.466 -0.6703 -1.2634  0.0633
  158SAPE  C31617697   5.743   4.620   8.347 -0.0670 -0.0471  0.3130
  158SAPE  H16X17698   5.649   4.658   8.391  0.4980 -0.1946  1.6971
  158SAPE  H16Y17699   5.751   4.659   8.243  0.0863 -1.7258 -0.3385
  158SAPE  C31717700   5.854   4.675   8.431  0.2665 -0.3971  0.3852
  158SAPE  H17X17701   5.950   4.620   8.424  1.6770  1.6650  2.0805
  158SAPE  H17Y17702   5.809   4.653   8.531 -1.4631  1.8037  0.1770
  158SAPE  C31817703   5.870   4.822   8.415 -0.4056 -0.1907  0.6026
  158SAPE  H18X17704   5.937   4.865   8.492  1.6186  0.3349 -1.3415
  158SAPE  H18Y17705   5.774   4.878   8.413  0.0174  0.5510 -0.6260
  158SAPE  H18Z17706   5.922   4.838   8.318 -0.9732 -0.0531  0.3136
  159SAPE     N17707   4.240   4.827   6.418 -0.5652 -0.0696 -0.0836
  159SAPE   HN117708   4.211   4.872   6.507  1.4181 -0.5019  0.8401
  159SAPE   HN217709   4.203   4.882   6.337 -0.1759 -0.5019 -0.5611
  159SAPE   HN317710   4.198   4.733   6.424  1.3686 -1.0610 -1.1311
  159SAPE   C1217711   4.389   4.818   6.413  0.2332  0.1027 -0.1746
  159SAPE  H12A17712   4.414   4.749   6.330 -1.8023  1.3984 -2.0108
  159SAPE  H12B17713   4.418   4.771   6.509 -3.8881  0.7673  1.6261
  159SAPE   C1117714   4.449   4.952   6.368  0.2602 -0.0772 -1.0051
  159SAPE  H11A17715   4.559   4.937   6.363  0.0584 -1.7275 -1.2048
  159SAPE  H11B17716   4.425   5.035   6.437  1.0436 -1.9717  1.7190
  159SAPE     P17717   4.481   5.111   6.156  0.2665 -0.2675  0.2279
  159SAPE   O1317718   4.624   5.090   6.163  0.2251 -0.2613  0.3105
  159SAPE   O1417719   4.414   5.098   6.020  0.1203  0.0868 -1.1208
  159SAPE   O1217720   4.412   4.990   6.238 -0.0559 -0.5207  0.1695
  159SAPE   O1117721   4.449   5.245   6.231 -0.0349 -0.2451 -0.1512
  159SAPE    C117722   4.318   5.274   6.290  0.0454 -0.0254 -0.0368
  159SAPE    HA17723   4.263   5.342   6.222  1.4474 -1.5899 -2.9134
  159SAPE    HB17724   4.253   5.184   6.286 -0.4032  0.3466 -1.5010
  159SAPE    C217725   4.321   5.352   6.434 -0.0992 -0.1313 -0.0635
  159SAPE    HS17726   4.359   5.456   6.423 -1.8186  0.7368  1.5997
  159SAPE   O2117727   4.413   5.281   6.523  0.2998 -0.0871  0.2365
  159SAPE   C2117728   4.542   5.296   6.511 -0.2049 -0.3265  0.5753
  159SAPE   O2217729   4.603   5.373   6.438  0.3058  0.1037 -0.2493
  159SAPE   C2217730   4.608   5.209   6.619 -0.7800 -0.0399  0.4117
  159SAPE   H2R17731   4.609   5.102   6.590 -1.7074 -0.0849  0.5169
  159SAPE   H2S17732   4.713   5.244   6.622 -0.9147  0.3575  0.5634
  159SAPE    C317733   4.182   5.375   6.498  0.7209  0.0231  0.0148
  159SAPE    HX17734   4.124   5.283   6.518 -1.7674  1.3753 -0.6561
  159SAPE    HY17735   4.125   5.436   6.424  1.3481  2.1789  1.2104
  159SAPE   O3117736   4.202   5.459   6.614  0.3642  0.0398  0.6034
  159SAPE   C3117737   4.215   5.388   6.728  0.1446 -0.2965 -0.5840
  159SAPE   O3217738   4.201   5.265   6.729  0.2841  0.2678 -0.5298
  159SAPE   C3217739   4.244   5.479   6.845 -0.2852 -0.3159  0.2665
  159SAPE   H2X17740   4.160   5.548   6.865 -1.9993 -1.0530 -3.5655
  159SAPE   H2Y17741   4.332   5.541   6.821 -1.5839  0.8047 -1.8758
  159SAPE   C2317742   4.545   5.224   6.759  0.4652  0.0425  0.0244
  159SAPE   H3R17743   4.465   5.152   6.786  0.1158  0.7448  0.9015
  159SAPE   H3S17744   4.499   5.324   6.774  0.5084  0.2844 -1.3024
  159SAPE   C2417745   4.651   5.209   6.869 -0.0094  0.3237 -0.2244
  159SAPE   H4R17746   4.603   5.239   6.964  1.0430  0.8907  0.1441
  159SAPE   H4S17747   4.723   5.291   6.850 -1.1729  1.7391  1.2090
  159SAPE   C2517748   4.727   5.083   6.882  0.1265  0.3802 -0.1547
  159SAPE   H5R17749   4.747   5.033   6.786  1.2095  0.7933 -0.1650
  159SAPE   C2617750   4.772   5.019   6.995  0.5704  0.3874  0.6518
  159SAPE   H6R17751   4.826   4.924   6.987 -0.2138 -0.0134 -0.0092
  159SAPE   C2717752   4.759   5.060   7.134 -0.5913 -0.6899 -0.0338
  159SAPE   H7R17753   4.670   5.010   7.177 -1.7449  2.5063  1.5816
  159SAPE   H7S17754   4.733   5.168   7.143  1.7022 -0.1636  1.0215
  159SAPE   C2817755   4.885   5.037   7.217 -1.1139  0.4001  0.6399
  159SAPE   H8R17756   4.979   5.026   7.161 -1.1339 -0.2612  0.7165
  159SAPE   C2917757   4.897   5.031   7.350 -0.4625 -0.1300  0.2786
  159SAPE   H9R17758   4.997   5.016   7.393 -0.4668 -0.4788  0.1700
  159SAPE  C21017759   4.784   5.039   7.449  0.5999 -0.2370 -0.3925
  159SAPE  H10R17760   4.702   4.988   7.395  0.5044  0.8341 -1.2954
  159SAPE  H10S17761   4.742   5.142   7.446  0.0801 -0.4523 -0.6239
  159SAPE  C21117762   4.809   4.983   7.589 -0.1153  0.0518  0.6261
  159SAPE  H11R17763   4.895   5.029   7.639  0.8426 -1.1967  0.1764
  159SAPE  C21217764   4.745   4.885   7.655 -0.0373  0.2811 -0.2447
  159SAPE  H12R17765   4.790   4.851   7.749 -1.5912  2.3547  1.3418
  159SAPE  C21317766   4.626   4.810   7.612  0.3377 -0.4223 -0.3385
  159SAPE  H13R17767   4.582   4.851   7.518  0.2751 -0.9195 -0.5306
  159SAPE  H13S17768   4.548   4.814   7.690  2.3119  0.2549  1.6946
  159SAPE  C21417769   4.661   4.663   7.594 -0.2072  0.7044  0.4379
  159SAPE  H14R17770   4.722   4.633   7.507  0.9814 -0.8044  1.7308
  159SAPE  C21517771   4.605   4.556   7.658 -0.4650 -0.9331 -0.3778
  159SAPE  H15R17772   4.638   4.455   7.630  0.4191 -0.2385 -1.9401
  159SAPE  C21617773   4.516   4.573   7.776  0.2023  0.6072 -0.3005
  159SAPE  H16R17774   4.459   4.477   7.778  2.3875 -0.8235 -1.5254
  159SAPE  H16S17775   4.439   4.649   7.751 -1.0179 -0.8679 -1.2766
  159SAPE  C21717776   4.576   4.609   7.915 -1.3652 -0.6920 -0.0259
  159SAPE  H17R17777   4.655   4.681   7.886 -2.4293 -0.1123 -1.5627
  159SAPE  H17S17778   4.614   4.520   7.971 -0.4312  0.0133  0.4945
  159SAPE  C21817779   4.476   4.673   8.006 -0.1983  0.0350  0.5291
  159SAPE  H18R17780   4.396   4.605   8.042 -0.1955 -1.1677 -1.5869
  159SAPE  H18S17781   4.429   4.749   7.939  1.4792  0.5402 -0.1253
  159SAPE  C21917782   4.540   4.747   8.128 -0.1513  0.1986 -0.6075
  159SAPE  H19R17783   4.601   4.831   8.089  3.0990 -1.4908  0.4454
  159SAPE  H19S17784   4.614   4.676   8.171  0.2295  0.6240 -0.5515
  159SAPE  C22017785   4.441   4.812   8.220 -0.3700  0.4688  0.4066
  159SAPE  H20R17786   4.351   4.849   8.166 -0.2343 -1.4624 -1.2839
  159SAPE  H20S17787   4.484   4.885   8.292 -0.3833  0.2223  0.6681
  159SAPE  H20T17788   4.394   4.727   8.275 -1.4623 -0.1450 -1.4073
  159SAPE   C3317789   4.289   5.392   6.966  0.6774 -0.7951  0.0363
  159SAPE   H3X17790   4.387   5.342   6.946  0.9870 -0.0017 -0.4862
  159SAPE   H3Y17791   4.213   5.315   6.991  0.1366  0.2094  1.5807
  159SAPE   C3417792   4.329   5.478   7.090  0.0456  0.7463 -0.3273
  159SAPE   H4X17793   4.243   5.543   7.119 -1.3680 -0.6244 -1.2493
  159SAPE   H4Y17794   4.423   5.535   7.075  1.0117 -0.6511  0.2229
  159SAPE   C3517795   4.340   5.382   7.214  0.0554  0.1270  0.2940
  159SAPE   H5X17796   4.413   5.301   7.194 -0.3757  0.3456 -2.5162
  159SAPE   H5Y17797   4.246   5.327   7.237  1.0163 -1.4815  0.5574
  159SAPE   C3617798   4.364   5.453   7.349  0.1487 -0.0955 -0.3400
  159SAPE   H6X17799   4.289   5.534   7.360 -0.2632 -0.3933 -0.8784
  159SAPE   H6Y17800   4.464   5.501   7.350  0.3265 -0.3280 -2.3170
  159SAPE   C3717801   4.361   5.359   7.468 -0.0414  0.0111 -0.1365
  159SAPE   H7X17802   4.442   5.284   7.459 -0.2875 -0.0558 -2.6297
  159SAPE   H7Y17803   4.265   5.303   7.466  0.4503 -0.8391  0.0168
  159SAPE   C3817804   4.386   5.435   7.594 -0.1377 -0.7762 -0.7193
  159SAPE   H8X17805   4.321   5.524   7.611  1.2805  0.0582  0.6516
  159SAPE   H8Y17806   4.484   5.487   7.585 -1.3802  1.6926 -0.7204
  159SAPE   C3917807   4.378   5.347   7.724 -0.1176 -0.1749  0.0670
  159SAPE   H9X17808   4.466   5.279   7.732 -0.4912 -0.6061  0.5805
  159SAPE   H9Y17809   4.291   5.278   7.721  1.1786 -1.8731 -0.3995
  159SAPE  C31017810   4.362   5.430   7.853  0.3461  0.0762  0.3199
  159SAPE  H10X17811   4.256   5.464   7.845 -0.3764 -2.1193 -0.0727
  159SAPE  H10Y17812   4.420   5.525   7.842  1.1526 -0.6827 -5.2141
  159SAPE  C31117813   4.391   5.368   7.986  0.3452 -0.2320  0.1502
  159SAPE  H11X17814   4.359   5.437   8.067  1.4307  0.3476  0.1007
  159SAPE  H11Y17815   4.499   5.343   7.998 -0.3991 -4.3029 -0.2444
  159SAPE  C31217816   4.309   5.237   8.009  0.0351  0.5339  0.1366
  159SAPE  H12X17817   4.350   5.152   7.951 -2.1957 -0.1510 -0.5528
  159SAPE  H12Y17818   4.210   5.254   7.961  1.6712  0.2243 -3.6962
  159SAPE  C31317819   4.302   5.189   8.158  0.1720 -0.4605 -0.5754
  159SAPE  H13X17820   4.400   5.211   8.206 -0.7444 -1.1960  1.7675
  159SAPE  H13Y17821   4.282   5.080   8.165 -1.0361 -0.3108 -1.5098
  159SAPE  C31417822   4.187   5.255   8.227  0.0969  0.7779  0.1504
  159SAPE  H14X17823   4.092   5.234   8.173  1.4227  1.2799 -2.5616
  159SAPE  H14Y17824   4.202   5.363   8.209  0.5139  0.4511 -1.6307
  159SAPE  C31517825   4.167   5.228   8.375 -0.3735  0.3462  0.5383
  159SAPE  H15X17826   4.264   5.253   8.422  0.3461 -0.7836 -0.3023
  159SAPE  H15Y17827   4.141   5.121   8.386  0.5938  0.1689  1.2144
  159SAPE  C31617828   4.055   5.307   8.427 -0.2668  0.4419  0.0893
  159SAPE  H16X17829   3.959   5.284   8.376  0.3457 -1.6274 -0.2231
  159SAPE  H16Y17830   4.086   5.411   8.404  3.8200 -0.9441 -1.6595
  159SAPE  C31717831   4.026   5.289   8.579  0.8649  0.4251 -0.2483
  159SAPE  H17X17832   4.116   5.307   8.642  1.1805  1.0556 -0.8639
  159SAPE  H17Y17833   3.999   5.183   8.599  1.4808  0.2147 -0.5204
  159SAPE  C31817834   3.906   5.378   8.626  0.2930 -0.0318 -1.0351
  159SAPE  H18X17835   3.871   5.344   8.726  0.2026 -0.3588 -1.1758
  159SAPE  H18Y17836   3.817   5.359   8.562 -0.5275  0.6410 -0.1215
  159SAPE  H18Z17837   3.931   5.486   8.637 -0.4052 -0.0740  1.8796
  160SAPE     N17838   3.429   1.348   6.239  0.0095 -0.6980  0.3944
  160SAPE   HN117839   3.522   1.356   6.193  0.4203 -1.0268  1.1460
  160SAPE   HN217840   3.364   1.421   6.206 -0.6321 -1.4616 -0.0583
  160SAPE   HN317841   3.445   1.354   6.342  2.1330  2.9588  0.0168
  160SAPE   C1217842   3.368   1.216   6.196  0.1625 -0.6563 -0.1242
  160SAPE  H12A17843   3.398   1.203   6.090  0.9221 -2.3550  0.2702
  160SAPE  H12B17844   3.258   1.231   6.202  0.5810  3.2867  0.6485
  160SAPE   C1117845   3.425   1.106   6.281  0.1537  0.5003 -0.0143
  160SAPE  H11A17846   3.396   1.004   6.247  0.1071 -0.1235  1.7544
  160SAPE  H11B17847   3.395   1.115   6.388  0.5804 -0.3577  0.1945
  160SAPE     P17848   3.678   1.026   6.336 -0.1046  0.1060  0.1813
  160SAPE   O1317849   3.673   0.884   6.292 -0.1649 -0.3182 -0.0799
  160SAPE   O1417850   3.802   1.103   6.328  0.2683 -0.2431  0.0282
  160SAPE   O1217851   3.569   1.109   6.256 -0.3878 -0.2687  0.2786
  160SAPE   O1117852   3.629   1.045   6.485  0.3541 -0.3336 -0.2675
  160SAPE    C117853   3.638   1.173   6.556 -0.0464  0.3984 -0.3055
  160SAPE    HA17854   3.629   1.262   6.490  3.0792  0.1833 -1.1535
  160SAPE    HB17855   3.550   1.194   6.621 -1.6274 -0.3222 -2.1043
  160SAPE    C217856   3.763   1.177   6.650  0.8290  0.1131 -0.2577
  160SAPE    HS17857   3.845   1.174   6.575  1.1644  0.0777  0.1076
  160SAPE   O2117858   3.758   1.061   6.738  0.0084  0.4062  0.6051
  160SAPE   C2117859   3.841   0.954   6.713  0.7200  0.1177 -0.0335
  160SAPE   O2217860   3.919   0.958   6.619  0.0625 -0.0508 -0.0605
  160SAPE   C2217861   3.817   0.835   6.806 -0.9322 -0.1501  0.0193
  160SAPE   H2R17862   3.762   0.757   6.748 -1.5740 -1.0827  1.8042
  160SAPE   H2S17863   3.917   0.794   6.828 -0.2492  2.6821  2.8490
  160SAPE    C317864   3.786   1.311   6.719 -0.6195 -0.6998  0.3957
  160SAPE    HX17865   3.787   1.382   6.634 -1.9873  0.2528  1.1330
  160SAPE    HY17866   3.886   1.311   6.768  0.1677 -0.3789 -1.1696
  160SAPE   O3117867   3.678   1.358   6.803  0.2925 -0.3972  0.3805
  160SAPE   C3117868   3.704   1.359   6.940  0.4970  0.4212  0.3598
  160SAPE   O3217869   3.811   1.324   6.987  0.2238  0.1863 -0.2098
  160SAPE   C3217870   3.586   1.425   7.007 -0.8290 -0.2540  0.3379
  160SAPE   H2X17871   3.498   1.358   6.997  0.3182 -1.9778  1.4300
  160SAPE   H2Y17872   3.573   1.526   6.962 -0.3314 -0.3364 -0.0015
  160SAPE   C2317873   3.750   0.868   6.943  0.3123 -0.0710  0.5269
  160SAPE   H3R17874   3.721   0.773   6.993 -0.5034 -0.2732 -0.3073
  160SAPE   H3S17875   3.660   0.928   6.918 -0.0567 -0.1891  1.5327
  160SAPE   C2417876   3.844   0.941   7.042  0.2420 -0.3293 -0.0407
  160SAPE   H4R17877   3.904   1.012   6.980  0.7785  0.6186  1.5084
  160SAPE   H4S17878   3.910   0.865   7.088 -0.9728 -0.6700  1.2119
  160SAPE   C2517879   3.777   1.016   7.152 -0.0308  0.7719  0.2110
  160SAPE   H5R17880   3.750   1.120   7.129  1.2847  1.1885  0.4548
  160SAPE   C2617881   3.758   0.975   7.279 -0.5607 -0.4972  0.6757
  160SAPE   H6R17882   3.726   1.057   7.345 -0.9970  1.7448 -2.1308
  160SAPE   C2717883   3.785   0.841   7.338 -0.5092  0.3413 -0.2975
  160SAPE   H7R17884   3.880   0.830   7.394  0.0364  0.0765 -1.2610
  160SAPE   H7S17885   3.783   0.752   7.272 -2.0651 -1.2558  1.7334
  160SAPE   C2817886   3.682   0.808   7.443  0.2919  1.0012  0.1784
  160SAPE   H8R17887   3.581   0.817   7.401  0.3746 -1.9527 -0.8740
  160SAPE   C2917888   3.692   0.768   7.570  0.4658  0.2436 -0.2616
  160SAPE   H9R17889   3.600   0.746   7.626  0.3240 -0.3784 -0.7272
  160SAPE  C21017890   3.826   0.751   7.651  0.4793  0.0620  0.3958
  160SAPE  H10R17891   3.913   0.742   7.582  0.4874 -2.9180  0.6786
  160SAPE  H10S17892   3.823   0.652   7.700 -0.4068  0.3909  1.0398
  160SAPE  C21117893   3.842   0.859   7.756 -0.2924 -0.4595 -0.2015
  160SAPE  H11R17894   3.845   0.960   7.711 -1.5028 -0.0088  0.6623
  160SAPE  C21217895   3.882   0.862   7.884 -0.5870 -0.5668 -0.2285
  160SAPE  H12R17896   3.885   0.961   7.933  0.5634 -1.1046  0.8024
  160SAPE  C21317897   3.908   0.742   7.974 -0.7792  0.5376 -0.0503
  160SAPE  H13R17898   4.016   0.734   7.997 -1.2646 -0.3389  2.2049
  160SAPE  H13S17899   3.890   0.646   7.922  0.4542  0.4004 -0.2373
  160SAPE  C21417900   3.830   0.745   8.102  0.3678  0.5144  0.6813
  160SAPE  H14R17901   3.724   0.720   8.090 -0.0188  1.1545  2.4964
  160SAPE  C21517902   3.863   0.811   8.216 -0.3653  0.1067 -0.9779
  160SAPE  H15R17903   3.805   0.799   8.309 -0.0071 -1.1009 -0.9003
  160SAPE  C21617904   3.992   0.884   8.237  0.3966 -0.0282  0.0078
  160SAPE  H16R17905   4.041   0.900   8.139  1.9456 -1.6482  0.4599
  160SAPE  H16S17906   4.051   0.825   8.310 -0.6851 -0.6870  0.3715
  160SAPE  C21717907   3.979   1.021   8.304 -0.1472 -0.7526 -0.2486
  160SAPE  H17R17908   3.914   1.026   8.394 -0.0640 -1.3041 -0.1567
  160SAPE  H17S17909   3.936   1.082   8.222  0.7164  0.4458  0.1431
  160SAPE  C21817910   4.121   1.082   8.338 -0.1344  0.4079  0.1290
  160SAPE  H18R17911   4.163   1.015   8.415 -0.1746  0.2352  0.0019
  160SAPE  H18S17912   4.109   1.185   8.378 -1.2660  0.8349 -1.1994
  160SAPE  C21917913   4.211   1.090   8.216 -0.4841 -0.7479  0.5991
  160SAPE  H19R17914   4.160   1.146   8.134  0.2756 -0.0001  0.6227
  160SAPE  H19S17915   4.236   0.985   8.190  1.2959 -0.6856  1.9197
  160SAPE  C22017916   4.344   1.163   8.247  0.3093 -0.0145 -0.4842
  160SAPE  H20R17917   4.335   1.202   8.351  1.0907 -0.6812 -0.1525
  160SAPE  H20S17918   4.348   1.254   8.184 -0.5473 -0.3891 -1.1046
  160SAPE  H20T17919   4.431   1.094   8.244  0.0590 -0.4873  1.5824
  160SAPE   C3317920   3.618   1.450   7.164 -0.7683 -1.0838  0.5629
  160SAPE   H3X17921   3.710   1.511   7.177 -2.7893  2.3541  0.0217
  160SAPE   H3Y17922   3.648   1.352   7.207  3.8786  1.3555  3.7508
  160SAPE   C3417923   3.491   1.506   7.236 -0.4133 -0.0630  0.1548
  160SAPE   H4X17924   3.424   1.418   7.226  1.7154 -1.5461 -1.9252
  160SAPE   H4Y17925   3.456   1.597   7.182  3.9051  2.0836  0.5722
  160SAPE   C3517926   3.508   1.543   7.389  0.0986  0.0729  0.1406
  160SAPE   H5X17927   3.598   1.608   7.402  0.1536 -0.2831  1.6278
  160SAPE   H5Y17928   3.531   1.443   7.430 -0.8275 -1.4799 -2.8489
  160SAPE   C3617929   3.386   1.616   7.437  0.1575 -0.1592  0.7294
  160SAPE   H6X17930   3.293   1.558   7.421 -1.2926  2.1236  0.4976
  160SAPE   H6Y17931   3.375   1.706   7.373 -1.2454 -0.0011  1.1699
  160SAPE   C3717932   3.376   1.679   7.580 -0.5308 -0.3533  0.4620
  160SAPE   H7X17933   3.268   1.701   7.594 -0.4292  0.0722  0.6139
  160SAPE   H7Y17934   3.430   1.776   7.582 -0.0109 -0.6366  0.4603
  160SAPE   C3817935   3.442   1.592   7.693 -0.0111  0.7988 -0.2527
  160SAPE   H8X17936   3.551   1.603   7.678  0.1143  0.0598  0.0736
  160SAPE   H8Y17937   3.409   1.486   7.685  0.0887  0.8984 -4.2659
  160SAPE   C3917938   3.402   1.640   7.832 -0.4612 -0.7674 -0.3316
  160SAPE   H9X17939   3.293   1.624   7.842 -1.0164  1.8598 -1.5026
  160SAPE   H9Y17940   3.420   1.749   7.842  0.7907 -1.0452  0.7626
  160SAPE  C31017941   3.486   1.559   7.931  0.0411  0.0457 -0.4520
  160SAPE  H10X17942   3.593   1.575   7.903 -0.4293  1.5277 -1.5407
  160SAPE  H10Y17943   3.462   1.451   7.921  1.5246 -0.3559  0.0195
  160SAPE  C31117944   3.472   1.599   8.074 -0.2605  0.4179 -0.1538
  160SAPE  H11X17945   3.514   1.702   8.086  0.2548  0.2521 -0.5006
  160SAPE  H11Y17946   3.519   1.530   8.148  3.3271  2.8292  0.0907
  160SAPE  C31217947   3.326   1.600   8.129 -0.3226  0.1649  0.8277
  160SAPE  H12X17948   3.288   1.500   8.101 -1.8063  0.1578  2.6808
  160SAPE  H12Y17949   3.271   1.674   8.066  0.1260  0.4976  0.8151
  160SAPE  C31317950   3.315   1.628   8.283  0.4042  0.2835  0.5204
  160SAPE  H13X17951   3.362   1.726   8.306 -0.6628  0.8094  0.5018
  160SAPE  H13Y17952   3.369   1.554   8.345  1.7875  2.4131  2.0171
  160SAPE  C31417953   3.171   1.616   8.333  0.7363 -0.2386 -0.4271
  160SAPE  H14X17954   3.098   1.698   8.319  0.3171  0.0877  2.8040
  160SAPE  H14Y17955   3.191   1.622   8.442  0.7954  0.3746 -0.4694
  160SAPE  C31517956   3.108   1.481   8.318  0.5371 -0.2090 -0.9613
  160SAPE  H15X17957   3.188   1.405   8.333  0.9195  0.5138  1.0079
  160SAPE  H15Y17958   3.079   1.487   8.212 -1.5844 -1.4396 -0.5083
  160SAPE  C31617959   2.979   1.449   8.397 -0.7069 -0.1973 -0.4589
  160SAPE  H16X17960   2.922   1.544   8.388  1.7062  1.2042 -1.9125
  160SAPE  H16Y17961   3.009   1.448   8.504 -2.1918  1.6408  0.0250
  160SAPE  C31717962   2.913   1.320   8.366 -0.0011 -0.3350  0.4681
  160SAPE  H17X17963   2.831   1.306   8.439  0.1326  1.6694  1.0729
  160SAPE  H17Y17964   2.994   1.244   8.378  0.1243 -0.5295 -1.2797
  160SAPE  C31817965   2.843   1.318   8.227 -0.4289 -0.2244 -0.2096
  160SAPE  H18X17966   2.777   1.407   8.220  0.9486  1.1235  2.5893
  160SAPE  H18Y17967   2.788   1.226   8.199 -1.2110 -0.8834  3.0869
  160SAPE  H18Z17968   2.919   1.346   8.150  0.3694 -0.9105  0.3074
  161SOPE     N17969   3.369   4.472  10.511  0.1834 -0.0413  0.0815
  161SOPE   HN117970   3.280   4.426  10.536 -0.2023  0.5450 -0.1966
  161SOPE   HN217971   3.357   4.574  10.528  0.1139  0.3806 -2.1831
  161SOPE   HN317972   3.394   4.451  10.412 -2.0168  0.6301 -0.6598
  161SOPE   C1217973   3.475   4.410  10.600 -0.4029  0.5721 -0.2151
  161SOPE  H12A17974   3.548   4.492  10.619 -0.4083  0.7651 -0.9899
  161SOPE  H12B17975   3.521   4.321  10.553 -0.3827  0.9003 -0.8312
  161SOPE   C1117976   3.405   4.359  10.735  0.0151 -0.0223 -0.3372
  161SOPE  H11A17977   3.385   4.446  10.801  2.7442 -0.3353  1.0592
  161SOPE  H11B17978   3.477   4.308  10.803 -1.3807 -2.0629 -0.2861
  161SOPE     P17979   3.306   4.115  10.689  0.3834 -0.0374  0.2025
  161SOPE   O1317980   3.183   4.062  10.625 -0.5510 -0.5911 -0.4124
  161SOPE   O1417981   3.347   4.059  10.817  0.2094  0.4715  0.3342
  161SOPE   O1217982   3.290   4.271  10.715  0.7843  0.2120  0.3098
  161SOPE   O1117983   3.422   4.105  10.589 -0.0612  0.0459 -0.4444
  161SOPE    C117984   3.438   3.998  10.496 -0.4057 -0.3401 -0.2704
  161SOPE    HA17985   3.340   3.962  10.457 -0.1621  0.8463 -2.0853
  161SOPE    HB17986   3.506   3.915  10.526  0.4619  0.6584  0.5995
  161SOPE    C217987   3.510   4.058  10.369 -0.9042  0.7044 -0.0561
  161SOPE    HS17988   3.566   4.150  10.397 -0.6214  0.3465  0.5566
  161SOPE   O2117989   3.409   4.083  10.271 -0.5206 -0.2754  0.1823
  161SOPE   C2117990   3.381   4.207  10.238  0.1755  0.4335  0.0337
  161SOPE   O2217991   3.417   4.308  10.297  0.2340  0.1832  0.2360
  161SOPE   C2217992   3.279   4.210  10.123  0.9397  0.1085 -0.2628
  161SOPE   H2R17993   3.245   4.314  10.108 -0.0121 -0.1889 -0.2483
  161SOPE   H2S17994   3.191   4.151  10.156 -1.6285  2.4419 -2.4608
  161SOPE    C317995   3.621   3.960  10.311  0.2468  0.1515  0.7944
  161SOPE    HX17996   3.567   3.868  10.280  1.9652 -0.5130 -0.3457
  161SOPE    HY17997   3.697   3.942  10.391 -0.0026  2.6187  1.6574
  161SOPE   O3117998   3.682   4.018  10.194 -0.4498  0.4551  0.0314
  161SOPE   C3117999   3.802   4.075  10.210  0.3790  0.2975  0.2155
  161SOPE   O3218000   3.864   4.083  10.311  0.3670  0.0969 -0.3256
  161SOPE   C3218001   3.851   4.126  10.084 -0.0259 -0.2048 -0.4558
  161SOPE   H2X18002   3.931   4.059  10.045  1.7279  0.4585  1.8008
  161SOPE   H2Y18003   3.904   4.222  10.105  1.4047 -1.2987  1.2272
  161SOPE   C2318004   3.334   4.144   9.994 -0.6353 -0.1536  0.0553
  161SOPE   H3R18005   3.341   4.034  10.000  1.0143 -0.1069 -0.4843
  161SOPE   H3S18006   3.435   4.190   9.980 -0.8534  0.0459 -0.8987
  161SOPE   C2418007   3.252   4.190   9.871 -0.5720  0.6046  0.5270
  161SOPE   H4R18008   3.143   4.165   9.870 -0.2554 -0.8705  0.6608
  161SOPE   H4S18009   3.255   4.301   9.863 -1.7201  0.7699  1.9229
  161SOPE   C2518010   3.299   4.126   9.741 -0.0064  0.1419  0.2838
  161SOPE   H5R18011   3.406   4.142   9.719 -0.2027  1.1686  0.0237
  161SOPE   H5S18012   3.287   4.016   9.749  0.1158 -0.1547 -2.3938
  161SOPE   C2618013   3.196   4.176   9.637 -0.1178  0.4610  0.2873
  161SOPE   H6R18014   3.106   4.111   9.644 -0.1392  0.5778  1.2007
  161SOPE   H6S18015   3.155   4.278   9.652 -0.5743  0.4862 -1.0036
  161SOPE   C2718016   3.259   4.168   9.497  0.2260 -0.4020 -0.0020
  161SOPE   H7R18017   3.188   4.213   9.424  0.4994  0.3649  0.1939
  161SOPE   H7S18018   3.352   4.229   9.502  1.5557 -2.3519  0.4158
  161SOPE   C2818019   3.301   4.023   9.458  0.5084  0.2058  0.7206
  161SOPE   H8R18020   3.383   3.997   9.529  2.1884  2.5589 -0.2123
  161SOPE   H8S18021   3.208   3.962   9.463 -0.5744  1.5816 -1.3536
  161SOPE   C2918022   3.364   4.033   9.320  0.5610  0.3739  0.3213
  161SOPE   H9118023   3.472   4.057   9.320  0.8180 -0.7234  0.7925
  161SOPE  C21018024   3.288   4.026   9.207 -0.5558  0.0282  0.3339
  161SOPE  H10118025   3.338   4.039   9.110 -0.9220 -1.5641 -0.0861
  161SOPE  C21118026   3.142   3.997   9.177  0.0048 -0.0275 -0.5990
  161SOPE  H11R18027   3.075   4.022   9.262  0.5852  1.7365 -0.6271
  161SOPE  H11S18028   3.133   3.888   9.159  1.4141 -0.0771 -1.1200
  161SOPE  C21218029   3.074   4.066   9.057 -0.1146  0.4541  0.1839
  161SOPE  H12R18030   3.142   4.056   8.969  0.1317  1.0845  0.3024
  161SOPE  H12S18031   3.047   4.171   9.079 -0.8849 -0.0449  1.7283
  161SOPE  C21318032   2.939   4.001   9.025  1.3841  0.4369  1.0655
  161SOPE  H13R18033   2.874   4.017   9.114 -0.4028 -3.3109  0.6035
  161SOPE  H13S18034   2.946   3.891   9.016 -1.7003  0.2201  0.1697
  161SOPE  C21418035   2.869   4.065   8.896  0.4634  0.6449 -0.2992
  161SOPE  H14R18036   2.932   4.018   8.817 -0.5751  0.3296 -0.9740
  161SOPE  H14S18037   2.884   4.175   8.900  0.0935  0.6985 -0.3918
  161SOPE  C21518038   2.728   4.005   8.864  0.2435 -0.4865  0.4640
  161SOPE  H15R18039   2.646   4.071   8.900  1.0227  1.3610 -0.9750
  161SOPE  H15S18040   2.723   3.911   8.923  0.3310 -1.7173 -1.4371
  161SOPE  C21618041   2.704   3.974   8.720 -0.4566  0.1076  0.6207
  161SOPE  H16R18042   2.713   4.061   8.651  1.3365  0.6711  1.4844
  161SOPE  H16S18043   2.597   3.945   8.710  0.0829 -2.4014  1.3920
  161SOPE  C21718044   2.788   3.855   8.661 -0.1680  0.0129 -0.3093
  161SOPE  H17R18045   2.788   3.776   8.739 -0.3050 -1.0609 -1.3726
  161SOPE  H17S18046   2.896   3.877   8.649 -0.3085  0.4794 -0.7496
  161SOPE  C21818047   2.735   3.793   8.529  0.2861 -0.4367  0.8062
  161SOPE  H18R18048   2.698   3.867   8.455  0.1950 -0.3902  0.8970
  161SOPE  H18S18049   2.650   3.730   8.562 -0.6093  0.5170  0.3814
  161SOPE  H18T18050   2.818   3.727   8.498 -1.5285 -2.8314  0.7840
  161SOPE   C3318051   3.749   4.137   9.969  0.5073 -0.2478 -0.8947
  161SOPE   H3X18052   3.653   4.191   9.985 -0.4011 -2.3272  1.2706
  161SOPE   H3Y18053   3.724   4.031   9.950  1.0321 -0.2519 -1.5852
  161SOPE   C3418054   3.816   4.194   9.842 -0.6581 -0.5166 -0.0395
  161SOPE   H4X18055   3.917   4.149   9.824 -0.5655 -0.0596 -0.6854
  161SOPE   H4Y18056   3.838   4.302   9.853 -1.1574 -0.1318 -2.2539
  161SOPE   C3518057   3.724   4.173   9.717 -0.3800 -0.7180 -0.3479
  161SOPE   H5X18058   3.634   4.234   9.738  0.6156  1.3806 -1.7858
  161SOPE   H5Y18059   3.711   4.064   9.699  2.8688 -0.9900 -1.6502
  161SOPE   C3618060   3.779   4.242   9.586  0.2632  0.0034  0.0851
  161SOPE   H6X18061   3.879   4.205   9.554  0.3674  0.1345  0.2621
  161SOPE   H6Y18062   3.792   4.350   9.606  0.2341  0.2461 -1.1029
  161SOPE   C3718063   3.680   4.226   9.471  0.4057 -0.2183 -0.4478
  161SOPE   H7X18064   3.580   4.253   9.512  0.4107 -0.5980 -0.1831
  161SOPE   H7Y18065   3.673   4.120   9.440  1.5661 -0.6998  0.8390
  161SOPE   C3818066   3.720   4.315   9.359 -0.3950  0.2128  0.3383
  161SOPE   H8X18067   3.746   4.411   9.408 -2.2908  0.6663  0.5302
  161SOPE   H8Y18068   3.634   4.340   9.292 -0.9958 -0.1083  0.9778
  161SOPE   C3918069   3.822   4.257   9.259 -0.1662  0.0495 -0.5329
  161SOPE   H9X18070   3.916   4.214   9.299  0.3050 -0.3170 -1.9926
  161SOPE   H9Y18071   3.859   4.338   9.193 -1.3033  0.0891 -1.1396
  161SOPE  C31018072   3.759   4.148   9.173  0.3201 -0.0935  0.3404
  161SOPE  H10X18073   3.671   4.189   9.118  1.5291  2.3128  0.0526
  161SOPE  H10Y18074   3.724   4.066   9.239 -1.3499 -0.3823 -0.8443
  161SOPE  C31118075   3.860   4.096   9.069  0.7381  0.3301  0.2068
  161SOPE  H11X18076   3.835   3.993   9.036  1.2153 -0.1368  1.2505
  161SOPE  H11Y18077   3.962   4.085   9.114  0.6651  1.1890  0.6083
  161SOPE  C31218078   3.850   4.170   8.931 -0.2214 -0.3018 -0.0971
  161SOPE  H12X18079   3.844   4.279   8.955  0.2008 -0.3805  0.3756
  161SOPE  H12Y18080   3.759   4.139   8.875 -0.0996 -0.5763 -0.1435
  161SOPE  C31318081   3.965   4.148   8.832 -0.4342 -0.5456 -0.9137
  161SOPE  H13X18082   3.947   4.043   8.801 -0.1465 -0.9708  0.3243
  161SOPE  H13Y18083   4.053   4.165   8.898 -1.5896 -0.2371  0.5882
  161SOPE  C31418084   3.944   4.225   8.698  0.4004  1.2816 -0.3100
  161SOPE  H14X18085   3.837   4.211   8.670  1.2368 -1.4755 -2.6490
  161SOPE  H14Y18086   4.004   4.171   8.621  0.1928  0.6904 -0.0648
  161SOPE  C31518087   3.975   4.369   8.710 -0.2873  0.0336 -0.4633
  161SOPE  H15X18088   4.086   4.366   8.718 -0.3157  1.0061  0.6760
  161SOPE  H15Y18089   3.931   4.411   8.803 -0.3023  0.7937 -0.8059
  161SOPE  C31618090   3.928   4.459   8.593 -0.3851  0.0993 -0.5262
  161SOPE  H16X18091   3.945   4.567   8.614 -2.4176 -0.0877  2.6358
  161SOPE  H16Y18092   3.817   4.448   8.590 -0.1377 -3.1614 -2.3762
  161SOPE  C31718093   3.991   4.408   8.465 -0.2478 -0.7689  0.8893
  161SOPE  H17X18094   3.965   4.301   8.450 -0.3038 -0.3829 -2.6682
  161SOPE  H17Y18095   4.100   4.427   8.466 -0.2090 -0.2176 -2.3609
  161SOPE  C31818096   3.939   4.482   8.330 -0.4074 -0.5099 -0.0647
  161SOPE  H18X18097   3.829   4.497   8.328 -0.2930  0.4667 -2.4506
  161SOPE  H18Y18098   3.959   4.414   8.245  3.3130  0.8334 -0.4544
  161SOPE  H18Z18099   3.995   4.578   8.320 -1.1887  0.3360  2.6995
  162SOPE     N18100   4.610   2.266  11.162 -0.1521  0.1525  0.6958
  162SOPE   HN118101   4.555   2.332  11.103 -0.8063 -1.2405 -0.3111
  162SOPE   HN218102   4.621   2.318  11.252  0.8918  1.2096 -0.0217
  162SOPE   HN318103   4.702   2.248  11.118 -0.3138  0.4746  0.2241
  162SOPE   C1218104   4.524   2.136  11.176 -0.6995  0.2080 -0.4000
  162SOPE  H12A18105   4.437   2.152  11.243  0.8159  1.8418  1.2798
  162SOPE  H12B18106   4.587   2.057  11.221  0.3912  2.5150  2.4385
  162SOPE   C1118107   4.479   2.094  11.039 -0.6104  0.4754  0.4487
  162SOPE  H11A18108   4.448   1.987  11.043  0.0610  0.2483 -0.2562
  162SOPE  H11B18109   4.567   2.086  10.971 -0.7472 -0.7630  0.3879
  162SOPE     P18110   4.332   2.196  10.851 -0.1982  0.3618 -0.2656
  162SOPE   O1318111   4.376   2.330  10.804 -0.6351  0.2969 -0.6105
  162SOPE   O1418112   4.191   2.150  10.849 -0.1266  0.6944 -0.2964
  162SOPE   O1218113   4.376   2.187  10.994 -0.3800 -0.1861  0.1613
  162SOPE   O1118114   4.416   2.084  10.773  0.4681 -0.2279  0.5210
  162SOPE    C118115   4.535   2.116  10.700 -0.2226 -0.0177  0.6053
  162SOPE    HA18116   4.622   2.113  10.768 -2.1164  1.3938  3.2595
  162SOPE    HB18117   4.535   2.217  10.655 -1.4938 -0.2995 -0.0728
  162SOPE    C218118   4.561   2.023  10.563 -0.3165 -0.0797  0.6895
  162SOPE    HS18119   4.638   2.080  10.507  0.7239 -3.1275 -1.1961
  162SOPE   O2118120   4.441   2.003  10.491  0.2144  0.3290  0.5534
  162SOPE   C2118121   4.365   2.102  10.456 -0.3687 -0.3566  0.2172
  162SOPE   O2218122   4.389   2.220  10.456  0.5711 -0.3410 -0.2683
  162SOPE   C2218123   4.232   2.036  10.416 -0.1845 -0.6016 -0.1055
  162SOPE   H2R18124   4.178   1.999  10.506 -1.0372  0.2960 -0.2384
  162SOPE   H2S18125   4.252   1.949  10.350  1.8436 -0.0275 -0.3132
  162SOPE    C318126   4.638   1.893  10.605  0.0246 -0.9371  0.1366
  162SOPE    HX18127   4.549   1.832  10.632 -0.5971  0.0373  0.3434
  162SOPE    HY18128   4.695   1.904  10.699  0.7812 -2.1304 -0.1691
  162SOPE   O3118129   4.718   1.837  10.503  0.2446 -0.1967  0.7330
  162SOPE   C3118130   4.696   1.708  10.488  0.1104  0.0690  0.1708
  162SOPE   O3218131   4.633   1.635  10.561  0.5728  0.9125  0.3502
  162SOPE   C3218132   4.768   1.658  10.365  0.4743 -0.0539  0.2113
  162SOPE   H2X18133   4.761   1.548  10.359  0.7819 -0.0352 -0.6845
  162SOPE   H2Y18134   4.874   1.692  10.365  0.3124  0.4920 -0.9321
  162SOPE   C2318135   4.140   2.130  10.337  0.2740  0.1066 -0.0548
  162SOPE   H3R18136   4.138   2.233  10.379 -0.9275 -0.3612  1.1276
  162SOPE   H3S18137   4.037   2.087  10.342  0.0599  0.5727 -0.4805
  162SOPE   C2418138   4.194   2.135  10.199  0.4258 -0.4987  0.8410
  162SOPE   H4R18139   4.298   2.172  10.212  0.6465  0.0543 -1.9151
  162SOPE   H4S18140   4.198   2.041  10.140 -0.3772  0.0531 -0.1293
  162SOPE   C2518141   4.116   2.237  10.109 -0.5358  0.0979  0.4192
  162SOPE   H5R18142   4.017   2.190  10.089  0.3230 -1.3940 -0.5190
  162SOPE   H5S18143   4.121   2.330  10.169  1.1853  0.5365 -0.3598
  162SOPE   C2618144   4.191   2.274   9.972  0.4773 -0.0604  0.5125
  162SOPE   H6R18145   4.189   2.184   9.906  2.7001  1.5451 -1.9522
  162SOPE   H6S18146   4.134   2.349   9.913  2.4573  0.9937 -0.1607
  162SOPE   C2718147   4.331   2.331   9.976  0.9671 -0.6284 -0.1642
  162SOPE   H7R18148   4.329   2.415  10.049  0.9727 -0.2876 -0.5551
  162SOPE   H7S18149   4.407   2.256  10.004 -0.7071 -2.0186  0.8780
  162SOPE   C2818150   4.382   2.391   9.838  0.4733 -0.4584 -0.2067
  162SOPE   H8R18151   4.320   2.481   9.817 -2.3125 -1.5580  2.4737
  162SOPE   H8S18152   4.485   2.428   9.853 -0.2116  1.2029  0.6108
  162SOPE   C2918153   4.387   2.304   9.716 -0.7055  0.8146 -0.9108
  162SOPE   H9118154   4.417   2.201   9.741  1.0018  1.7557  1.2459
  162SOPE  C21018155   4.364   2.336   9.592 -0.6180  0.0248  0.4381
  162SOPE  H10118156   4.396   2.270   9.509 -1.6947  1.8340 -1.5356
  162SOPE  C21118157   4.325   2.472   9.551  0.4591  0.1237 -0.0489
  162SOPE  H11R18158   4.387   2.541   9.612  0.4691  0.1444 -0.0835
  162SOPE  H11S18159   4.217   2.493   9.566  0.9354  3.0387 -0.1499
  162SOPE  C21218160   4.360   2.501   9.402  0.3930  0.3672 -0.1505
  162SOPE  H12R18161   4.471   2.502   9.394  0.3358  2.6815 -1.4165
  162SOPE  H12S18162   4.331   2.606   9.385 -1.5649 -0.2478 -0.8453
  162SOPE  C21318163   4.288   2.403   9.303  0.0473  0.0224  0.8263
  162SOPE  H13R18164   4.179   2.391   9.317 -0.2311 -1.5389 -2.0944
  162SOPE  H13S18165   4.333   2.303   9.322  0.3068  0.2216  1.2871
  162SOPE  C21418166   4.313   2.440   9.156  0.7695 -0.4971  0.5473
  162SOPE  H14R18167   4.421   2.451   9.132  0.2578  0.9220 -1.3415
  162SOPE  H14S18168   4.265   2.539   9.143 -0.6001 -1.1485  0.4228
  162SOPE  C21518169   4.253   2.335   9.062  0.2108 -0.7441 -0.0064
  162SOPE  H15R18170   4.156   2.301   9.105 -0.3770  0.3365 -0.4321
  162SOPE  H15S18171   4.317   2.244   9.067 -0.6454 -1.3094  2.8097
  162SOPE  C21618172   4.232   2.372   8.912  0.7031 -0.0313 -0.6246
  162SOPE  H16R18173   4.173   2.466   8.914  2.8136  1.3245  0.1175
  162SOPE  H16S18174   4.169   2.294   8.864  0.0833  1.1130 -1.7429
  162SOPE  C21718175   4.358   2.405   8.850  0.2615  0.0923 -0.2560
  162SOPE  H17R18176   4.425   2.319   8.869  0.8830  0.2027 -1.8222
  162SOPE  H17S18177   4.412   2.494   8.888  0.1598  0.7908 -1.6963
  162SOPE  C21818178   4.354   2.414   8.700  0.1275 -0.5565  0.3260
  162SOPE  H18R18179   4.259   2.467   8.676 -1.3116 -2.3345  1.8174
  162SOPE  H18S18180   4.351   2.312   8.655  1.7657 -0.6690  0.4172
  162SOPE  H18T18181   4.447   2.467   8.670 -0.8658  1.1646  0.1647
  162SOPE   C3318182   4.708   1.706  10.227 -0.5264  0.3060 -0.5664
  162SOPE   H3X18183   4.679   1.813  10.228 -1.0914  0.1573 -0.5741
  162SOPE   H3Y18184   4.614   1.654  10.196 -1.0646  2.6190 -3.2759
  162SOPE   C3418185   4.808   1.683  10.106 -0.0828 -0.0566 -0.9226
  162SOPE   H4X18186   4.841   1.577  10.100  0.4029  0.0099  0.3927
  162SOPE   H4Y18187   4.896   1.743  10.136 -0.4147 -0.9674  2.1365
  162SOPE   C3518188   4.743   1.738   9.986  0.1506 -0.2000  0.3512
  162SOPE   H5X18189   4.718   1.846   9.994 -0.0030 -0.0024 -2.0424
  162SOPE   H5Y18190   4.644   1.690   9.973  0.6991 -1.6900  1.4002
  162SOPE   C3618191   4.826   1.723   9.858 -0.1170  0.3041  0.1886
  162SOPE   H6X18192   4.842   1.617   9.828 -0.3271  0.2565  0.2452
  162SOPE   H6Y18193   4.924   1.775   9.870  0.1262 -0.2703  0.7326
  162SOPE   C3718194   4.764   1.796   9.737 -0.5491 -0.2815  0.5125
  162SOPE   H7X18195   4.741   1.901   9.764 -0.8167 -0.8858  2.9552
  162SOPE   H7Y18196   4.663   1.752   9.723 -0.8464  0.8013 -1.0010
  162SOPE   C3818197   4.834   1.781   9.606  0.8321 -0.5073  1.2271
  162SOPE   H8X18198   4.852   1.671   9.603  0.7152 -0.5103  0.0068
  162SOPE   H8Y18199   4.930   1.836   9.614  1.7875 -1.1578 -3.3132
  162SOPE   C3918200   4.760   1.838   9.486  0.2265 -0.3441  0.2728
  162SOPE   H9X18201   4.719   1.938   9.514 -0.5603 -0.7659  0.6811
  162SOPE   H9Y18202   4.679   1.767   9.458  1.4014 -1.5712 -0.0702
  162SOPE  C31018203   4.855   1.846   9.368 -0.9514 -0.7428  0.6654
  162SOPE  H10X18204   4.909   1.750   9.353 -1.2583 -1.1100  1.8590
  162SOPE  H10Y18205   4.933   1.920   9.395 -1.9403 -0.1202  1.9068
  162SOPE  C31118206   4.795   1.892   9.234  0.4915 -0.0005 -0.3977
  162SOPE  H11X18207   4.731   1.983   9.230  1.2564  0.5243 -1.0814
  162SOPE  H11Y18208   4.730   1.807   9.205  2.7843 -1.0904 -2.6381
  162SOPE  C31218209   4.905   1.910   9.127 -1.0671 -0.4551 -0.3492
  162SOPE  H12X18210   4.975   1.824   9.128  0.2175  0.5423  1.0814
  162SOPE  H12Y18211   4.967   1.995   9.162 -1.3999 -1.4488  3.0000
  162SOPE  C31318212   4.844   1.928   8.987 -0.0979 -0.5645 -0.1945
  162SOPE  H13X18213   4.792   2.025   8.974 -2.3526 -1.8098 -1.0012
  162SOPE  H13Y18214   4.769   1.847   8.976 -2.5072  1.5808 -0.3549
  162SOPE  C31418215   4.941   1.906   8.868 -0.1053 -0.4627 -0.2072
  162SOPE  H14X18216   4.991   1.807   8.870 -1.1302 -1.0014  2.1457
  162SOPE  H14Y18217   5.018   1.986   8.867  0.4689 -0.9744 -2.3622
  162SOPE  C31518218   4.872   1.914   8.732  0.9059 -0.1032  0.1623
  162SOPE  H15X18219   4.809   2.005   8.716 -0.4256 -1.0614 -0.1810
  162SOPE  H15Y18220   4.796   1.834   8.738  0.4089 -0.1691 -3.8960
  162SOPE  C31618221   4.976   1.891   8.621  0.2721 -1.2035 -0.0095
  162SOPE  H16X18222   5.023   1.792   8.641  1.0937 -1.3244 -2.2712
  162SOPE  H16Y18223   5.057   1.967   8.614  0.3324 -1.4376 -5.1292
  162SOPE  C31718224   4.915   1.891   8.486  0.7184 -0.5918 -0.0298
  162SOPE  H17X18225   4.983   1.840   8.414  0.9046  2.5830 -2.3227
  162SOPE  H17Y18226   4.910   1.993   8.441 -0.8756  0.0056  1.3970
  162SOPE  C31818227   4.776   1.817   8.475  0.7937 -0.3632  0.0650
  162SOPE  H18X18228   4.736   1.809   8.372  0.4521 -2.0538  0.2904
  162SOPE  H18Y18229   4.694   1.881   8.513  0.8228 -1.2039  1.6235
  162SOPE  H18Z18230   4.769   1.717   8.524  1.1474 -0.1983  0.4581
  163SOPE     N18231   6.602   5.061  10.404  0.2162 -0.0828 -0.3131
  163SOPE   HN118232   6.597   5.163  10.424  1.1697 -0.2440  0.8634
  163SOPE   HN218233   6.631   5.039  10.307  0.7610 -1.5227  0.1553
  163SOPE   HN318234   6.505   5.024  10.407  0.1950 -0.1587 -1.3559
  163SOPE   C1218235   6.680   4.982  10.505 -0.0695 -0.0748  0.5626
  163SOPE  H12A18236   6.790   4.989  10.493 -0.1378  0.7777  0.4080
  163SOPE  H12B18237   6.658   4.873  10.503 -0.9455  0.1053 -0.5009
  163SOPE   C1118238   6.622   5.040  10.638 -0.4653  0.8474  0.8707
  163SOPE  H11A18239   6.685   4.990  10.714  1.1107  1.8706  0.3005
  163SOPE  H11B18240   6.517   5.005  10.646 -0.7066  0.9861 -1.1336
  163SOPE     P18241   6.559   5.311  10.630  0.5052  0.1182  0.1441
  163SOPE   O1318242   6.642   5.431  10.631  0.2233 -0.1460  0.0454
  163SOPE   O1418243   6.440   5.318  10.722 -0.2123 -0.2981  0.1913
  163SOPE   O1218244   6.655   5.182  10.655 -0.4437  0.7851 -0.1494
  163SOPE   O1118245   6.507   5.294  10.483 -0.6200  0.5373  0.5103
  163SOPE    C118246   6.390   5.368  10.442  0.1509  0.2225 -0.3737
  163SOPE    HA18247   6.402   5.478  10.456 -0.0276  0.2125 -0.1399
  163SOPE    HB18248   6.305   5.338  10.507  1.1724 -0.4473  0.6923
  163SOPE    C218249   6.358   5.340  10.291 -0.3248  0.4114 -0.3575
  163SOPE    HS18250   6.374   5.234  10.265  1.0429  0.7764 -1.0894
  163SOPE   O2118251   6.453   5.431  10.235 -0.5741 -0.2307  0.1487
  163SOPE   C2118252   6.568   5.376  10.190  0.0833 -0.2225  0.9432
  163SOPE   O2218253   6.599   5.262  10.189 -0.0563  0.3513 -0.2769
  163SOPE   C2218254   6.654   5.476  10.118 -0.7053 -0.5729 -0.5825
  163SOPE   H2R18255   6.748   5.430  10.079 -1.0778 -0.0164 -2.2287
  163SOPE   H2S18256   6.673   5.547  10.201 -0.2056 -3.2462  1.7572
  163SOPE    C318257   6.216   5.380  10.251 -0.2606  0.0217  0.6543
  163SOPE    HX18258   6.190   5.479  10.296 -0.9501  0.7401 -1.2341
  163SOPE    HY18259   6.143   5.307  10.291  0.5655 -0.1927  1.8471
  163SOPE   O3118260   6.205   5.386  10.107 -0.2656 -0.7817  0.3712
  163SOPE   C3118261   6.107   5.467  10.056 -0.2440  0.8888 -0.4405
  163SOPE   O3218262   6.010   5.507  10.119 -0.4024 -0.7321 -0.2737
  163SOPE   C3218263   6.126   5.498   9.908 -0.2776  0.5049  0.1029
  163SOPE   H2X18264   6.151   5.399   9.865 -0.5095 -0.2245  1.5811
  163SOPE   H2Y18265   6.216   5.561   9.893 -1.4478  1.7138 -2.5257
  163SOPE   C2318266   6.573   5.550  10.004 -0.3380  0.2650  0.4575
  163SOPE   H3R18267   6.634   5.637   9.971  2.5826 -0.2800  3.7910
  163SOPE   H3S18268   6.477   5.592  10.039 -0.7263 -0.6788  0.5497
  163SOPE   C2418269   6.554   5.460   9.876  0.4513 -0.2601 -1.1807
  163SOPE   H4R18270   6.653   5.420   9.844  0.5642 -1.2199  0.2802
  163SOPE   H4S18271   6.499   5.365   9.890 -1.0397  0.7076 -0.1772
  163SOPE   C2518272   6.503   5.542   9.759 -0.1629  0.0890  0.4390
  163SOPE   H5R18273   6.417   5.595   9.804 -0.1788 -1.4662  2.3605
  163SOPE   H5S18274   6.579   5.613   9.719  2.6103 -2.7961  0.1504
  163SOPE   C2618275   6.457   5.457   9.640 -0.0917 -0.0890 -0.7447
  163SOPE   H6R18276   6.532   5.391   9.591 -0.3023  0.5580 -2.0139
  163SOPE   H6S18277   6.378   5.386   9.670 -0.0118 -1.0118 -2.5498
  163SOPE   C2718278   6.410   5.543   9.525  0.2058  0.3504 -0.0804
  163SOPE   H7R18279   6.387   5.638   9.579  1.4465  0.2432  0.6669
  163SOPE   H7S18280   6.493   5.563   9.455  0.8818  0.1000  0.6291
  163SOPE   C2818281   6.261   5.516   9.472 -0.1954  0.1275  0.1196
  163SOPE   H8R18282   6.258   5.408   9.444 -1.5064 -0.3315  1.8539
  163SOPE   H8S18283   6.196   5.535   9.560  1.3583  0.4260  1.2466
  163SOPE   C2918284   6.233   5.605   9.349  0.3877  0.0874  0.9496
  163SOPE   H9118285   6.237   5.715   9.359  1.3216  0.3718 -1.8456
  163SOPE  C21018286   6.200   5.559   9.226 -0.5414  0.9071  0.0391
  163SOPE  H10118287   6.183   5.623   9.137 -1.6383  0.8524  0.1949
  163SOPE  C21118288   6.192   5.411   9.198 -0.7044  0.8111  0.5067
  163SOPE  H11R18289   6.092   5.371   9.225 -1.4228 -0.0099 -2.8899
  163SOPE  H11S18290   6.259   5.344   9.256 -1.3426 -1.1295 -0.8455
  163SOPE  C21218291   6.210   5.390   9.050 -0.1341 -0.1493 -0.2471
  163SOPE  H12R18292   6.151   5.449   8.977  2.2941  1.0925 -1.3460
  163SOPE  H12S18293   6.188   5.284   9.025 -0.4600  0.2410 -1.6962
  163SOPE  C21318294   6.360   5.406   9.005  0.0734 -0.5456  1.2316
  163SOPE  H13R18295   6.426   5.348   9.074  1.2512 -2.9996 -1.7215
  163SOPE  H13S18296   6.377   5.515   9.016  0.2979 -0.5334  0.7898
  163SOPE  C21418297   6.380   5.341   8.865 -0.3463  0.0511  0.0408
  163SOPE  H14R18298   6.344   5.414   8.789 -2.2536  0.1380  0.9523
  163SOPE  H14S18299   6.312   5.254   8.849 -1.7771  1.3513 -1.4275
  163SOPE  C21518300   6.528   5.323   8.814  0.8270 -0.3894  0.0752
  163SOPE  H15R18301   6.575   5.252   8.885 -1.3001 -1.9821  0.0063
  163SOPE  H15S18302   6.567   5.427   8.812 -0.3190  0.0550  0.0471
  163SOPE  C21618303   6.548   5.256   8.681 -0.0059 -0.0433 -0.2218
  163SOPE  H16R18304   6.489   5.312   8.606 -0.7629 -0.4613  0.0523
  163SOPE  H16S18305   6.502   5.155   8.694 -0.5377  0.3790  1.3965
  163SOPE  C21718306   6.694   5.246   8.644  0.0443 -0.2480  0.0965
  163SOPE  H17R18307   6.748   5.174   8.710  1.2449 -0.1396 -0.7205
  163SOPE  H17S18308   6.742   5.344   8.663 -0.3843 -0.2194  1.1137
  163SOPE  C21818309   6.704   5.187   8.504 -0.2324 -0.0515 -0.2184
  163SOPE  H18R18310   6.640   5.241   8.430  0.2538  0.5020 -0.2359
  163SOPE  H18S18311   6.671   5.081   8.504 -2.9369  0.6946  0.2684
  163SOPE  H18T18312   6.810   5.185   8.472  0.1049  2.0325  0.6187
  163SOPE   C3318313   6.010   5.563   9.840  0.3289 -0.5791  0.2828
  163SOPE   H3X18314   5.909   5.540   9.879 -1.1893  1.3603 -2.1477
  163SOPE   H3Y18315   5.998   5.531   9.734 -0.3797 -0.5528  0.3519
  163SOPE   C3418316   6.013   5.721   9.820  0.2295  0.6935  0.3053
  163SOPE   H4X18317   6.058   5.762   9.913  0.1761 -0.1153  0.6992
  163SOPE   H4Y18318   5.908   5.751   9.800 -0.1033 -1.3619 -1.4238
  163SOPE   C3518319   6.094   5.775   9.703 -0.7111 -0.6856  0.2360
  163SOPE   H5X18320   6.105   5.698   9.624  1.3518 -0.7385  0.5376
  163SOPE   H5Y18321   6.197   5.785   9.741  0.1445 -1.9006 -1.6070
  163SOPE   C3618322   6.056   5.906   9.631  0.5482  0.1296  0.4001
  163SOPE   H6X18323   6.085   5.985   9.704 -0.7536 -0.2076  1.3226
  163SOPE   H6Y18324   5.946   5.913   9.638  0.4992  1.8111 -1.3192
  163SOPE   C3718325   6.122   5.932   9.489 -0.5103  0.1922 -0.3820
  163SOPE   H7X18326   6.083   5.854   9.420  1.0096  0.6266 -1.7813
  163SOPE   H7Y18327   6.232   5.925   9.503 -0.3029  3.3289  0.1934
  163SOPE   C3818328   6.087   6.068   9.422  0.5128 -1.0957 -0.2681
  163SOPE   H8X18329   6.108   6.159   9.482  1.7636 -0.0438 -2.2086
  163SOPE   H8Y18330   5.980   6.069   9.391  0.5405 -0.2105 -0.3624
  163SOPE   C3918331   6.157   6.087   9.287  0.1750  0.2190  0.2147
  163SOPE   H9X18332   6.139   6.000   9.221  0.2110  1.3101 -1.2975
  163SOPE   H9Y18333   6.264   6.087   9.317 -0.2682  1.2024  1.9551
  163SOPE  C31018334   6.134   6.228   9.216 -0.0331  0.3694  0.4587
  163SOPE  H10X18335   6.174   6.314   9.274  3.2598  0.5190 -1.7464
  163SOPE  H10Y18336   6.023   6.234   9.206  0.1251  1.9493 -0.7314
  163SOPE  C31118337   6.212   6.240   9.079  0.1017  0.3110 -0.4098
  163SOPE  H11X18338   6.170   6.178   8.997 -2.1592 -0.1364  1.0120
  163SOPE  H11Y18339   6.320   6.214   9.088  0.7850  2.9226 -0.2938
  163SOPE  C31218340   6.212   6.382   9.016 -0.7380  0.5623 -0.7723
  163SOPE  H12X18341   6.262   6.439   9.098 -0.1997  1.4996 -1.7231
  163SOPE  H12Y18342   6.109   6.419   8.996 -0.7196  0.0403 -1.9493
  163SOPE  C31318343   6.299   6.383   8.894  0.7314  0.0682  0.0089
  163SOPE  H13X18344   6.279   6.293   8.831  1.9767 -0.3899  0.2465
  163SOPE  H13Y18345   6.404   6.361   8.924  0.5543 -0.7679  0.0526
  163SOPE  C31418346   6.275   6.510   8.818 -0.0398  0.0506 -0.2911
  163SOPE  H14X18347   6.253   6.581   8.901 -0.8270  1.4513 -1.6660
  163SOPE  H14Y18348   6.191   6.509   8.746 -0.3587 -1.3182  0.0694
  163SOPE  C31518349   6.405   6.550   8.741  0.1003 -0.3923  0.1380
  163SOPE  H15X18350   6.431   6.456   8.689 -1.1846  0.1779 -1.6155
  163SOPE  H15Y18351   6.480   6.579   8.818  0.0731  0.6813 -0.2190
  163SOPE  C31618352   6.394   6.664   8.632  0.7133  0.1233 -0.6180
  163SOPE  H16X18353   6.328   6.631   8.549 -0.9484 -0.8967  1.0246
  163SOPE  H16Y18354   6.496   6.679   8.591  1.0960 -0.0786  0.2465
  163SOPE  C31718355   6.341   6.799   8.681 -0.0472  0.0481  0.4765
  163SOPE  H17X18356   6.402   6.835   8.767  0.1707 -0.6067  0.6027
  163SOPE  H17Y18357   6.237   6.795   8.719 -0.5964  1.6610 -0.7583
  163SOPE  C31818358   6.343   6.908   8.574  0.7738 -0.8997  0.2536
  163SOPE  H18X18359   6.400   6.865   8.489  3.3381 -1.7513  2.2476
  163SOPE  H18Y18360   6.402   7.000   8.598  2.3007 -1.5006 -1.0210
  163SOPE  H18Z18361   6.248   6.958   8.544  1.8090  1.6503  0.8865
  164SOPE     N18362   0.883   6.177  10.774  0.5381 -0.3963  0.0250
  164SOPE   HN118363   0.937   6.100  10.819  1.8784 -0.2922 -1.3172
  164SOPE   HN218364   0.952   6.253  10.755 -1.5770  1.2631 -1.4145
  164SOPE   HN318365   0.797   6.205  10.825  0.4087 -0.0466 -0.3803
  164SOPE   C1218366   0.835   6.129  10.646  0.4901 -0.1117  0.5842
  164SOPE  H12A18367   0.758   6.050  10.661  2.1498 -1.7144  1.0648
  164SOPE  H12B18368   0.923   6.092  10.589  0.9594 -1.9099  2.3517
  164SOPE   C1118369   0.762   6.243  10.570  0.2221  0.0584  0.1391
  164SOPE  H11A18370   0.664   6.252  10.622 -0.3867 -1.9625 -0.5439
  164SOPE  H11B18371   0.748   6.224  10.461 -1.2186  2.6448 -0.2011
  164SOPE     P18372   0.780   6.509  10.534  0.2543 -0.1065  0.0198
  164SOPE   O1318373   0.874   6.575  10.439 -0.2640 -0.0532 -0.7984
  164SOPE   O1418374   0.744   6.577  10.656  0.6383  0.5261  0.3080
  164SOPE   O1218375   0.834   6.370  10.577  0.2038  0.8469 -0.5958
  164SOPE   O1118376   0.646   6.471  10.458  0.1211  0.4353 -0.1259
  164SOPE    C118377   0.579   6.585  10.398 -0.9306 -0.6262 -0.4974
  164SOPE    HA18378   0.572   6.674  10.465 -0.4254 -0.7041 -0.3397
  164SOPE    HB18379   0.475   6.557  10.371 -2.8351  0.8586  4.2631
  164SOPE    C218380   0.642   6.637  10.267 -0.1663 -0.5921  0.1166
  164SOPE    HS18381   0.733   6.697  10.288  0.4129 -1.6825  0.8181
  164SOPE   O2118382   0.546   6.723  10.199  0.0711 -0.0598  0.1038
  164SOPE   C2118383   0.521   6.840  10.251 -0.1165  0.4306  0.7400
  164SOPE   O2218384   0.585   6.892  10.344 -0.0811  0.2806  0.0325
  164SOPE   C2218385   0.411   6.905  10.168 -0.1423 -0.1942 -0.3191
  164SOPE   H2R18386   0.369   6.988  10.229  0.7546 -0.5687  0.8673
  164SOPE   H2S18387   0.336   6.825  10.154  0.0015 -0.2289 -0.9018
  164SOPE    C318388   0.683   6.516  10.174  0.0567  0.0101 -0.2528
  164SOPE    HX18389   0.599   6.443  10.174  1.2699 -1.4574  0.8900
  164SOPE    HY18390   0.769   6.459  10.216 -0.5291 -1.7252 -1.3301
  164SOPE   O3118391   0.710   6.556  10.035  0.9023 -0.1941 -0.0307
  164SOPE   C3118392   0.829   6.614  10.017 -0.3923 -1.1979 -0.0292
  164SOPE   O3218393   0.907   6.626  10.109 -0.1224  0.2050  0.1950
  164SOPE   C3218394   0.860   6.667   9.876 -0.2827  0.0901 -0.6196
  164SOPE   H2X18395   0.961   6.713   9.874 -1.1142  1.9665 -0.8573
  164SOPE   H2Y18396   0.793   6.754   9.859  0.5936  0.3837 -2.9144
  164SOPE   C2318397   0.458   6.977  10.040  0.0955 -0.1383 -0.1615
  164SOPE   H3R18398   0.423   6.935   9.944 -1.9593 -0.0050  0.4660
  164SOPE   H3S18399   0.569   6.981  10.034  0.2669 -1.6198  1.2531
  164SOPE   C2418400   0.403   7.126  10.027  0.0822  0.4761 -0.0869
  164SOPE   H4R18401   0.299   7.125  10.066  0.4312 -2.9998  1.0788
  164SOPE   H4S18402   0.452   7.184  10.108 -0.7304 -0.8724  1.4121
  164SOPE   C2518403   0.414   7.191   9.885  0.0352 -0.3241  0.4090
  164SOPE   H5R18404   0.521   7.210   9.861 -0.3021 -1.5491 -2.6019
  164SOPE   H5S18405   0.373   7.128   9.803  2.0700 -2.4089  0.8799
  164SOPE   C2618406   0.330   7.324   9.889  0.1846 -0.0897 -0.4756
  164SOPE   H6R18407   0.223   7.301   9.903  0.5137 -1.5479 -0.1791
  164SOPE   H6S18408   0.344   7.398   9.971 -1.3596 -0.2537 -0.0314
  164SOPE   C2718409   0.342   7.405   9.756 -0.4611 -0.7321 -0.4238
  164SOPE   H7R18410   0.271   7.490   9.758  0.0978 -0.2594 -0.5016
  164SOPE   H7S18411   0.445   7.443   9.739  0.2915 -3.4075 -2.7344
  164SOPE   C2818412   0.318   7.323   9.621 -0.1319 -0.5830 -0.6953
  164SOPE   H8R18413   0.336   7.389   9.533  0.8619 -1.1236 -0.9090
  164SOPE   H8S18414   0.384   7.234   9.618 -3.0459 -3.0146  1.4978
  164SOPE   C2918415   0.174   7.280   9.616  0.3710  0.4911 -0.7888
  164SOPE   H9118416   0.137   7.247   9.714  1.2087 -2.1507 -1.3047
  164SOPE  C21018417   0.092   7.290   9.516  0.3227  0.0889 -0.3158
  164SOPE  H10118418  -0.010   7.254   9.537  1.0634 -0.4453  2.7557
  164SOPE  C21118419   0.117   7.342   9.372  0.0116  0.7805 -0.1789
  164SOPE  H11R18420   0.196   7.277   9.328 -0.3419 -0.7889  1.3957
  164SOPE  H11S18421   0.154   7.446   9.381  1.6784  0.2043  0.1027
  164SOPE  C21218422  -0.008   7.327   9.285  0.1294  0.3387 -0.4648
  164SOPE  H12R18423  -0.101   7.362   9.334  0.3546  1.2244 -0.6410
  164SOPE  H12S18424  -0.015   7.218   9.267  0.0919 -0.0423  1.5637
  164SOPE  C21318425   0.007   7.380   9.147 -0.4103  0.2327  0.2085
  164SOPE  H13R18426   0.081   7.323   9.088 -1.0180 -0.5498  0.1713
  164SOPE  H13S18427   0.034   7.487   9.139 -2.8479  0.8974 -0.0982
  164SOPE  C21418428  -0.129   7.377   9.072  0.3141  0.2377 -0.5493
  164SOPE  H14R18429  -0.103   7.425   8.975  0.1790  0.0605 -0.6755
  164SOPE  H14S18430  -0.199   7.442   9.128 -0.8312 -1.4665  0.0936
  164SOPE  C21518431  -0.182   7.235   9.044  0.5926 -0.4313 -0.2981
  164SOPE  H15R18432  -0.207   7.196   9.145  0.6147  0.2659 -0.0169
  164SOPE  H15S18433  -0.106   7.166   9.001 -1.0207 -2.1720 -0.4982
  164SOPE  C21618434  -0.313   7.231   8.955 -0.3108  0.3324  0.1065
  164SOPE  H16R18435  -0.338   7.125   8.934  1.1575  0.3503 -2.0465
  164SOPE  H16S18436  -0.276   7.275   8.860  1.8293  1.7448  1.4990
  164SOPE  C21718437  -0.423   7.310   9.021  0.0982 -0.1216 -0.0852
  164SOPE  H17R18438  -0.396   7.417   9.011 -1.9618  0.4084 -0.4246
  164SOPE  H17S18439  -0.443   7.300   9.130 -1.8722  0.2230 -0.3831
  164SOPE  C21818440  -0.568   7.299   8.942  0.4477  0.1153 -0.1815
  164SOPE  H18R18441  -0.632   7.302   9.033  0.4767 -0.2825 -0.1461
  164SOPE  H18S18442  -0.572   7.195   8.904  1.6061  0.0813 -0.2609
  164SOPE  H18T18443  -0.573   7.384   8.871  0.5798 -0.5402 -0.9840
  164SOPE   C3318444   0.839   6.568   9.763 -0.4523  0.9954 -0.2217
  164SOPE   H3X18445   0.729   6.552   9.754 -0.1943  0.2415 -3.1866
  164SOPE   H3Y18446   0.895   6.472   9.772  0.3137  1.3577 -0.9859
  164SOPE   C3418447   0.867   6.626   9.623 -0.7720  0.4399  0.3993
  164SOPE   H4X18448   0.831   6.731   9.617 -0.9950  0.5041  2.2820
  164SOPE   H4Y18449   0.811   6.570   9.545  3.5366 -0.9182 -2.0860
  164SOPE   C3518450   1.019   6.612   9.589  0.3251 -0.4249  0.4815
  164SOPE   H5X18451   1.072   6.517   9.614  0.0707 -0.2507  1.7230
  164SOPE   H5Y18452   1.073   6.691   9.645  0.3052 -0.5358  0.6596
  164SOPE   C3618453   1.051   6.624   9.439 -0.2972 -0.3885  0.4361
  164SOPE   H6X18454   0.996   6.542   9.387  0.5068  0.0636 -1.1846
  164SOPE   H6Y18455   1.157   6.602   9.416 -0.8359 -1.4117 -1.2486
  164SOPE   C3718456   0.994   6.752   9.368  0.1049  0.4056  0.3916
  164SOPE   H7X18457   1.061   6.834   9.402  1.4294 -0.5792  0.2432
  164SOPE   H7Y18458   0.890   6.774   9.398  0.9300  1.4005  2.8182
  164SOPE   C3818459   0.992   6.751   9.220 -0.0986  0.6677  0.4781
  164SOPE   H8X18460   0.910   6.817   9.186 -0.0945 -0.7740 -2.7609
  164SOPE   H8Y18461   0.963   6.648   9.188  2.7989 -0.2332  0.4114
  164SOPE   C3918462   1.127   6.789   9.150 -0.0964  0.0187  0.5016
  164SOPE   H9X18463   1.212   6.818   9.216  1.6158  1.3424 -2.0791
  164SOPE   H9Y18464   1.099   6.872   9.082 -0.9515 -2.9839 -3.1454
  164SOPE  C31018465   1.187   6.681   9.053 -0.3712  1.0445  1.0258
  164SOPE  H10X18466   1.125   6.664   8.962  0.7627 -1.1950  0.6073
  164SOPE  H10Y18467   1.192   6.586   9.111  0.2515 -0.5963 -1.5553
  164SOPE  C31118468   1.334   6.710   9.022 -0.2809  0.0493 -0.0767
  164SOPE  H11X18469   1.399   6.718   9.112 -0.7838 -2.9251  0.6278
  164SOPE  H11Y18470   1.344   6.806   8.966 -1.6126  1.2084  1.5798
  164SOPE  C31218471   1.381   6.602   8.921 -0.6087  0.3780  0.2162
  164SOPE  H12X18472   1.311   6.627   8.839  0.5655 -1.6076 -1.4787
  164SOPE  H12Y18473   1.364   6.499   8.959 -0.6319  0.9898  1.9655
  164SOPE  C31318474   1.517   6.608   8.863 -0.0657 -0.2080 -0.6081
  164SOPE  H13X18475   1.521   6.529   8.785 -1.9136  0.7482 -1.7371
  164SOPE  H13Y18476   1.600   6.591   8.935  0.0376 -1.4792 -1.0032
  164SOPE  C31418477   1.560   6.745   8.810 -0.0415  0.0935 -0.1930
  164SOPE  H14X18478   1.557   6.828   8.885  1.0070 -0.3598  0.3719
  164SOPE  H14Y18479   1.481   6.763   8.734  0.6903 -2.0754 -1.5712
  164SOPE  C31518480   1.706   6.757   8.757 -0.3626 -0.1168 -0.1520
  164SOPE  H15X18481   1.728   6.681   8.678 -1.0811  0.9814 -1.4554
  164SOPE  H15Y18482   1.761   6.741   8.852 -0.2830 -2.0034 -0.4753
  164SOPE  C31618483   1.739   6.891   8.689  0.7061  0.6233 -0.2807
  164SOPE  H16X18484   1.749   6.970   8.766 -0.5031  0.5858 -0.0637
  164SOPE  H16Y18485   1.653   6.922   8.626 -1.1676  0.3592  2.0281
  164SOPE  C31718486   1.869   6.886   8.604  0.1574  0.6457  0.6032
  164SOPE  H17X18487   1.901   6.986   8.569 -0.5654  0.1146 -1.7326
  164SOPE  H17Y18488   1.857   6.814   8.520 -0.1223  1.3418  0.0414
  164SOPE  C31818489   1.990   6.846   8.687 -0.3616  0.0650 -0.4082
  164SOPE  H18X18490   1.975   6.762   8.759 -0.4794 -1.3158 -1.9715
  164SOPE  H18Y18491   2.021   6.933   8.749  0.0718 -0.9116  0.7806
  164SOPE  H18Z18492   2.080   6.828   8.624 -1.5193 -0.2499 -2.0623
  165SOPE     N18493   4.807   6.668  10.821  0.3029  0.0615 -0.0836
  165SOPE   HN118494   4.897   6.712  10.847 -1.2913  1.7047  3.3423
  165SOPE   HN218495   4.812   6.569  10.856 -0.2415  0.7874  2.2643
  165SOPE   HN318496   4.800   6.670  10.718 -1.5050  1.5855  0.0164
  165SOPE   C1218497   4.703   6.756  10.880 -0.3061  0.3139  0.3215
  165SOPE  H12A18498   4.712   6.859  10.840  0.3148 -0.3592 -1.3312
  165SOPE  H12B18499   4.715   6.755  10.991 -1.5182  2.4436  0.5144
  165SOPE   C1118500   4.573   6.681  10.857 -0.5202  0.1713  0.1634
  165SOPE  H11A18501   4.498   6.754  10.895 -1.4256 -1.1160  0.9167
  165SOPE  H11B18502   4.564   6.591  10.921 -2.3918 -0.1307 -0.4741
  165SOPE     P18503   4.402   6.610  10.695 -0.1265  0.1624  0.2819
  165SOPE   O1318504   4.321   6.734  10.700  0.5273  0.0129 -0.6996
  165SOPE   O1418505   4.359   6.498  10.783 -0.1611  0.9871 -0.2937
  165SOPE   O1218506   4.555   6.651  10.722 -0.5773  0.0850 -0.7502
  165SOPE   O1118507   4.408   6.548  10.550  0.0804  0.3285 -0.1738
  165SOPE    C118508   4.532   6.501  10.493 -0.4898 -0.2072 -0.3069
  165SOPE    HA18509   4.520   6.446  10.397  1.1938  0.7050 -1.0833
  165SOPE    HB18510   4.587   6.438  10.565  0.9007  0.9567 -0.3041
  165SOPE    C218511   4.621   6.611  10.434 -0.7444  0.0254  0.1344
  165SOPE    HS18512   4.649   6.686  10.510 -0.1226  1.7292 -1.7065
  165SOPE   O2118513   4.558   6.676  10.321 -0.0425 -0.3020  0.1646
  165SOPE   C2118514   4.506   6.796  10.341  0.2929  0.7610  0.4904
  165SOPE   O2218515   4.511   6.859  10.439 -0.4565 -0.0696 -0.1450
  165SOPE   C2218516   4.463   6.854  10.201 -0.1968  0.7219  0.3313
  165SOPE   H2R18517   4.534   6.819  10.123 -1.1539 -1.2888  0.3007
  165SOPE   H2S18518   4.467   6.965  10.207  2.6134  0.7326 -0.3925
  165SOPE    C318519   4.745   6.540  10.378 -0.1740 -0.9232  0.4059
  165SOPE    HX18520   4.710   6.498  10.282  0.1539 -1.1296  0.3774
  165SOPE    HY18521   4.777   6.463  10.452 -1.4613 -3.4225 -1.5314
  165SOPE   O3118522   4.851   6.636  10.340  0.5398 -0.5704  0.3294
  165SOPE   C3118523   4.921   6.691  10.432 -0.1130  0.4214 -0.2046
  165SOPE   O3218524   4.910   6.674  10.554 -0.4614  0.4117 -0.1518
  165SOPE   C3218525   5.031   6.781  10.380  0.4524 -0.0631  0.3617
  165SOPE   H2X18526   5.126   6.724  10.395  1.2887  0.4877 -2.2438
  165SOPE   H2Y18527   5.026   6.873  10.441  0.2144  0.2976 -0.1915
  165SOPE   C2318528   4.329   6.794  10.147  0.1727  0.6434 -0.5304
  165SOPE   H3R18529   4.255   6.790  10.230  0.8269 -1.1042  0.0225
  165SOPE   H3S18530   4.343   6.687  10.119  4.2634  0.7680  0.5009
  165SOPE   C2418531   4.282   6.871  10.027  0.0203 -0.2610 -0.4564
  165SOPE   H4R18532   4.172   6.862  10.016  0.1356 -1.3954 -0.8645
  165SOPE   H4S18533   4.306   6.976  10.053 -1.9638  0.0584  0.2797
  165SOPE   C2518534   4.362   6.829   9.910 -0.6559 -0.2602  0.0905
  165SOPE   H5R18535   4.458   6.884   9.905 -0.4964 -0.6836 -2.1893
  165SOPE   H5S18536   4.377   6.719   9.910 -2.0714 -0.6099  3.6127
  165SOPE   C2618537   4.282   6.868   9.785  0.5986 -0.0514 -0.4477
  165SOPE   H6R18538   4.184   6.815   9.786  0.6953 -0.2271  0.1229
  165SOPE   H6S18539   4.252   6.975   9.778  1.5105  0.1234 -2.4831
  165SOPE   C2718540   4.369   6.841   9.657  0.1617 -0.5262  0.7747
  165SOPE   H7R18541   4.461   6.901   9.675 -0.5200  0.8111 -0.0579
  165SOPE   H7S18542   4.386   6.731   9.656  0.3057 -0.5577 -1.9211
  165SOPE   C2818543   4.280   6.878   9.534  0.5680  0.2995 -0.8101
  165SOPE   H8R18544   4.188   6.816   9.538 -0.7760  2.2563  2.2848
  165SOPE   H8S18545   4.260   6.987   9.546 -1.3751 -0.0489 -0.4277
  165SOPE   C2918546   4.358   6.856   9.408 -0.1032 -0.2066  0.1781
  165SOPE   H9118547   4.466   6.852   9.427 -0.4351 -3.7721  2.2482
  165SOPE  C21018548   4.296   6.848   9.286  0.4645  0.4307  0.1679
  165SOPE  H10118549   4.359   6.834   9.197  0.1428 -0.2818  0.0479
  165SOPE  C21118550   4.146   6.853   9.261 -0.2882  0.5324  0.5768
  165SOPE  H11R18551   4.096   6.890   9.354  0.9244 -2.2751  2.4970
  165SOPE  H11S18552   4.108   6.748   9.260  3.1813 -0.8502  0.9580
  165SOPE  C21218553   4.087   6.927   9.137 -0.4696 -0.3743  0.4544
  165SOPE  H12R18554   4.149   7.019   9.128 -0.7606 -0.1353  0.8092
  165SOPE  H12S18555   3.977   6.947   9.142 -1.0694 -3.0161 -0.7589
  165SOPE  C21318556   4.103   6.831   9.014 -0.2055 -0.1025  0.2728
  165SOPE  H13R18557   4.046   6.737   9.036  0.6689 -0.4210  1.2740
  165SOPE  H13S18558   4.211   6.806   9.014  0.0716  1.0774 -0.2468
  165SOPE  C21418559   4.057   6.893   8.877  0.0425 -0.0765 -0.3793
  165SOPE  H14R18560   4.124   6.982   8.869 -1.0207  0.6980 -1.0541
  165SOPE  H14S18561   3.952   6.931   8.883 -0.2201 -1.0050  3.1344
  165SOPE  C21518562   4.066   6.814   8.743 -0.7351  0.4883  0.6201
  165SOPE  H15R18563   4.172   6.783   8.732 -0.7692  0.4329  0.4544
  165SOPE  H15S18564   4.050   6.883   8.657 -2.9191  1.2409  1.5614
  165SOPE  C21618565   3.958   6.710   8.738  0.3979  0.4652 -1.0977
  165SOPE  H16R18566   3.883   6.748   8.810  0.4089  0.1966 -0.9469
  165SOPE  H16S18567   3.982   6.610   8.780 -0.8952  0.3793 -0.5346
  165SOPE  C21718568   3.897   6.684   8.599  0.2127  0.2931 -0.0391
  165SOPE  H17R18569   3.974   6.649   8.527  1.0473 -0.5296  1.2192
  165SOPE  H17S18570   3.849   6.780   8.571  0.6989 -0.1679 -2.6468
  165SOPE  C21818571   3.781   6.585   8.596  0.2120  0.2666 -0.5775
  165SOPE  H18R18572   3.701   6.606   8.670  1.9373  0.2905  1.3996
  165SOPE  H18S18573   3.819   6.481   8.608  0.2580  0.5515  2.8299
  165SOPE  H18T18574   3.737   6.595   8.495 -2.4494 -0.1118  0.4569
  165SOPE   C3318575   5.003   6.832  10.232  0.0387  0.5425 -0.1764
  165SOPE   H3X18576   4.917   6.901  10.223 -1.9963 -1.6235  1.2491
  165SOPE   H3Y18577   4.980   6.749  10.162  0.7063 -0.6831  1.0008
  165SOPE   C3418578   5.128   6.903  10.182 -0.0249 -0.2172  0.1649
  165SOPE   H4X18579   5.214   6.833  10.179 -0.7632 -1.1127 -0.6617
  165SOPE   H4Y18580   5.148   6.992  10.246 -2.5137  1.5238 -1.2929
  165SOPE   C3518581   5.116   6.960  10.040 -0.1647  0.5442 -0.1345
  165SOPE   H5X18582   5.033   7.034  10.045 -0.0173  0.6873  0.2219
  165SOPE   H5Y18583   5.080   6.873   9.981 -1.4026  1.5551 -0.9171
  165SOPE   C3618584   5.235   7.047   9.990  0.2720  0.6471 -0.6357
  165SOPE   H6X18585   5.309   6.964   9.997 -1.7372 -1.1562  0.6352
  165SOPE   H6Y18586   5.271   7.115  10.069  1.2108 -0.9536  0.3654
  165SOPE   C3718587   5.217   7.095   9.840  0.0235 -0.0051  0.0249
  165SOPE   H7X18588   5.247   7.202   9.835 -1.1617  0.2902 -1.5836
  165SOPE   H7Y18589   5.110   7.106   9.813  0.3665 -1.0220 -1.8919
  165SOPE   C3818590   5.285   7.010   9.739 -0.4713  0.0596 -0.3316
  165SOPE   H8X18591   5.220   6.920   9.744 -0.5621  0.1992  1.7778
  165SOPE   H8Y18592   5.390   7.001   9.772 -0.5111 -0.5249 -0.3501
  165SOPE   C3918593   5.283   7.072   9.595 -0.3623 -0.3992  0.0345
  165SOPE   H9X18594   5.357   7.023   9.528 -0.5062  0.7309 -0.9842
  165SOPE   H9Y18595   5.325   7.174   9.602 -2.5649  0.5554  0.0287
  165SOPE  C31018596   5.153   7.074   9.518  0.1557  0.3805  0.3307
  165SOPE  H10X18597   5.088   7.157   9.553 -0.0864  0.9941 -1.4517
  165SOPE  H10Y18598   5.097   6.982   9.543  0.3497 -0.5531 -2.4010
  165SOPE  C31118599   5.175   7.078   9.369 -0.3347  0.7969  0.2465
  165SOPE  H11X18600   5.241   6.995   9.336  1.8384  3.0831 -1.6369
  165SOPE  H11Y18601   5.235   7.169   9.346 -0.6634  1.0441  0.3648
  165SOPE  C31218602   5.038   7.060   9.294 -0.4164  0.2161  0.1992
  165SOPE  H12X18603   4.983   7.154   9.315 -2.1305 -0.8198  0.5490
  165SOPE  H12Y18604   4.976   6.982   9.342  0.7018 -0.9521 -0.1813
  165SOPE  C31318605   5.046   7.065   9.134 -0.2537  0.1217 -1.0083
  165SOPE  H13X18606   5.123   7.139   9.105 -0.2693  0.6547  0.2256
  165SOPE  H13Y18607   4.944   7.104   9.114 -1.0088 -0.4310  1.4157
  165SOPE  C31418608   5.066   6.933   9.061 -0.5071 -0.0810 -0.3634
  165SOPE  H14X18609   4.986   6.866   9.100 -0.5499  0.9011  1.3402
  165SOPE  H14Y18610   5.162   6.897   9.102  0.6398  1.7908 -1.2855
  165SOPE  C31518611   5.060   6.949   8.907  0.1559  0.5735 -0.2335
  165SOPE  H15X18612   5.054   6.847   8.865  0.2902  0.8299 -0.8894
  165SOPE  H15Y18613   5.161   6.989   8.887  0.9353 -1.2223 -0.0525
  165SOPE  C31618614   4.951   7.038   8.857 -0.4767  0.9571  0.1162
  165SOPE  H16X18615   4.967   7.143   8.889 -1.3951  1.6772 -1.6631
  165SOPE  H16Y18616   4.859   7.006   8.911  0.0954  0.1232  0.6306
  165SOPE  C31718617   4.929   7.033   8.705  0.1230  0.3928 -0.4822
  165SOPE  H17X18618   4.874   6.944   8.668  0.5964 -1.3486  2.6340
  165SOPE  H17Y18619   5.028   7.032   8.653 -1.1018  1.4131 -2.9885
  165SOPE  C31818620   4.842   7.147   8.659 -0.0808 -0.4044  0.3283
  165SOPE  H18X18621   4.735   7.149   8.692  0.7017  1.6883  3.1133
  165SOPE  H18Y18622   4.836   7.157   8.549 -0.0663  0.7537  0.4265
  165SOPE  H18Z18623   4.890   7.240   8.696 -0.7089  0.6375 -1.3841
  166SOPE     N18624   1.947   4.174  11.092 -0.1510  0.2201 -0.2267
  166SOPE   HN118625   1.980   4.235  11.170  2.8820 -0.7032 -0.6831
  166SOPE   HN218626   1.844   4.164  11.101 -0.2769  0.5146 -1.2816
  166SOPE   HN318627   1.987   4.079  11.104 -1.4799 -0.3244  0.1159
  166SOPE   C1218628   1.969   4.238  10.960  0.4193 -0.1749  0.1636
  166SOPE  H12A18629   2.061   4.297  10.976 -0.1979  1.9868 -3.1522
  166SOPE  H12B18630   1.885   4.306  10.935  0.1170 -0.6938 -0.2605
  166SOPE   C1118631   1.977   4.126  10.852 -0.7776 -0.7187 -0.1138
  166SOPE  H11A18632   2.066   4.062  10.870  1.1000  1.5399 -0.9258
  166SOPE  H11B18633   2.004   4.178  10.758 -1.3072  0.4297  0.3540
  166SOPE     P18634   1.779   4.049  10.697  0.2114 -0.0347  0.1742
  166SOPE   O1318635   1.654   3.979  10.725 -0.2622  0.0067  0.7356
  166SOPE   O1418636   1.875   3.992  10.602 -0.1575 -0.6740 -0.5384
  166SOPE   O1218637   1.856   4.057  10.836  0.1575 -0.5334 -0.0973
  166SOPE   O1118638   1.759   4.199  10.665 -0.5871 -0.5073 -0.1416
  166SOPE    C118639   1.649   4.275  10.723 -0.7424 -0.0921 -0.1904
  166SOPE    HA18640   1.691   4.378  10.714 -1.1289 -0.0421 -1.6917
  166SOPE    HB18641   1.638   4.261  10.833  1.9246 -1.2348  0.0187
  166SOPE    C218642   1.521   4.255  10.654  1.1445 -0.3118  0.6816
  166SOPE    HS18643   1.497   4.147  10.654 -0.8276  0.0901  1.1470
  166SOPE   O2118644   1.557   4.310  10.523 -0.0822 -0.1038  0.1353
  166SOPE   C2118645   1.495   4.264  10.420  0.9426  0.1270 -0.4709
  166SOPE   O2218646   1.424   4.159  10.425  0.2299  0.1089  0.1897
  166SOPE   C2218647   1.539   4.340  10.298  0.4557  0.1128  0.5650
  166SOPE   H2R18648   1.637   4.299  10.267 -0.4091 -2.1300  0.5732
  166SOPE   H2S18649   1.556   4.448  10.319 -1.9546  0.2931  1.9880
  166SOPE    C318650   1.407   4.336  10.718 -0.3506 -0.5179 -0.4181
  166SOPE    HX18651   1.442   4.441  10.721 -0.8359 -0.2291 -2.6775
  166SOPE    HY18652   1.396   4.308  10.825  0.6091 -3.4348 -1.0005
  166SOPE   O3118653   1.288   4.321  10.642 -0.3572 -0.4335  0.0888
  166SOPE   C3118654   1.225   4.210  10.670  0.2453 -0.2222 -0.0066
  166SOPE   O3218655   1.273   4.116  10.739 -0.7103 -0.2040 -0.0019
  166SOPE   C3218656   1.084   4.201  10.602  0.3340  0.0819  0.6366
  166SOPE   H2X18657   1.012   4.183  10.685 -0.0380 -1.8516 -0.0504
  166SOPE   H2Y18658   1.086   4.115  10.532  0.9758  0.3651  0.2994
  166SOPE   C2318659   1.433   4.326  10.184  0.5861  0.5735 -0.0542
  166SOPE   H3R18660   1.336   4.358  10.227 -1.5475  0.1781 -4.1267
  166SOPE   H3S18661   1.419   4.222  10.147 -1.5484  0.0965  1.8522
  166SOPE   C2418662   1.467   4.409  10.060 -0.5458 -0.0239  0.8899
  166SOPE   H4R18663   1.465   4.518  10.082  1.6868  0.7153 -1.9275
  166SOPE   H4S18664   1.559   4.372  10.010 -1.8994 -1.2284 -0.8638
  166SOPE   C2518665   1.352   4.393   9.956  1.0003  0.5327  0.0289
  166SOPE   H5R18666   1.338   4.284   9.941  1.2553  0.7663 -2.1537
  166SOPE   H5S18667   1.266   4.438  10.011  0.2200 -0.6325 -0.2070
  166SOPE   C2618668   1.371   4.450   9.824 -0.3087  0.9414  0.5636
  166SOPE   H6R18669   1.376   4.559   9.845 -2.5555  0.8357  2.0472
  166SOPE   H6S18670   1.458   4.415   9.765 -0.0971 -0.8232  1.8125
  166SOPE   C2718671   1.243   4.423   9.732  0.6035  0.2077  0.5848
  166SOPE   H7R18672   1.233   4.318   9.696 -2.9647  0.7036 -0.2755
  166SOPE   H7S18673   1.156   4.443   9.798  0.5354  0.6817  0.3573
  166SOPE   C2818674   1.250   4.524   9.607  0.4726  0.4179 -0.0198
  166SOPE   H8R18675   1.149   4.526   9.562  0.4289  0.7893  0.0855
  166SOPE   H8S18676   1.274   4.625   9.648 -1.5267  1.1895 -0.6210
  166SOPE   C2918677   1.349   4.493   9.505 -0.5904  0.0526  0.1982
  166SOPE   H9118678   1.434   4.437   9.547 -0.9203 -1.4251 -0.9873
  166SOPE  C21018679   1.338   4.518   9.375 -0.4111  0.0364 -0.7539
  166SOPE  H10118680   1.417   4.479   9.309  3.4918  1.0941  2.8635
  166SOPE  C21118681   1.226   4.599   9.318  0.1620  0.0251  0.9527
  166SOPE  H11R18682   1.232   4.701   9.363 -0.8325  0.5655 -0.0801
  166SOPE  H11S18683   1.128   4.549   9.333 -0.2144  0.2518 -0.5312
  166SOPE  C21218684   1.234   4.614   9.165  0.3954 -0.8825 -0.2475
  166SOPE  H12R18685   1.227   4.514   9.117 -0.4126 -0.6400 -0.6617
  166SOPE  H12S18686   1.333   4.652   9.133 -0.2461  1.5889  0.5005
  166SOPE  C21318687   1.136   4.720   9.123 -0.6977 -0.4074  0.2728
  166SOPE  H13R18688   1.164   4.821   9.161 -1.8378 -0.0092  0.0847
  166SOPE  H13S18689   1.032   4.689   9.149 -0.4365 -2.1514 -0.6213
  166SOPE  C21418690   1.150   4.731   8.969 -0.1728 -1.1814  0.1317
  166SOPE  H14R18691   1.255   4.720   8.935  0.3569 -0.5061  1.5005
  166SOPE  H14S18692   1.123   4.836   8.943  2.1224 -0.0685  1.9250
  166SOPE  C21518693   1.054   4.639   8.891 -0.1682  0.4486 -0.2288
  166SOPE  H15R18694   0.948   4.652   8.920 -0.3778  0.1586 -0.8549
  166SOPE  H15S18695   1.083   4.534   8.915  0.2499  1.1074  2.5241
  166SOPE  C21618696   1.078   4.657   8.738 -0.0864  0.3722 -0.0848
  166SOPE  H16R18697   1.167   4.724   8.740  0.1812  0.0083  0.8520
  166SOPE  H16S18698   0.996   4.720   8.698  0.4972  1.0468 -0.2525
  166SOPE  C21718699   1.116   4.535   8.670  0.0092  0.1982 -0.6300
  166SOPE  H17R18700   1.043   4.456   8.698 -3.7921  3.6242  0.0634
  166SOPE  H17S18701   1.222   4.521   8.700 -0.2948 -2.6479 -0.6068
  166SOPE  C21818702   1.121   4.536   8.515  0.3169  0.0047  0.3530
  166SOPE  H18R18703   1.018   4.555   8.479  0.3981 -1.8947 -1.0031
  166SOPE  H18S18704   1.142   4.433   8.479 -2.3380 -0.6918  0.6137
  166SOPE  H18T18705   1.198   4.606   8.477 -0.4759 -0.2693 -1.9394
  166SOPE   C3318706   1.055   4.322  10.509  0.2899  0.0771  0.6273
  166SOPE   H3X18707   1.120   4.307  10.420  0.5388 -0.7880  0.9530
  166SOPE   H3Y18708   1.074   4.415  10.566 -0.6774  1.1781 -0.7470
  166SOPE   C3418709   0.908   4.322  10.464 -0.3723  0.3254 -0.5293
  166SOPE   H4X18710   0.856   4.332  10.562  2.3374  1.0095  0.9360
  166SOPE   H4Y18711   0.880   4.222  10.423  0.2737  0.3408 -1.0241
  166SOPE   C3518712   0.870   4.431  10.363 -0.0535 -1.3195  0.4254
  166SOPE   H5X18713   0.876   4.522  10.427 -0.0832 -1.3156  0.4223
  166SOPE   H5Y18714   0.761   4.422  10.341 -0.0510 -0.1260 -0.1271
  166SOPE   C3618715   0.959   4.447  10.240  0.3945  0.7639 -0.5399
  166SOPE   H6X18716   0.975   4.348  10.192  2.2088  0.0378  1.3908
  166SOPE   H6Y18717   1.063   4.478  10.266 -0.1126  1.8917  0.2044
  166SOPE   C3718718   0.887   4.554  10.152 -0.5534 -0.7097 -0.2328
  166SOPE   H7X18719   0.875   4.643  10.217 -1.7388 -0.6974 -0.4342
  166SOPE   H7Y18720   0.788   4.512  10.124 -2.1850  2.9085 -0.4721
  166SOPE   C3818721   0.956   4.567  10.020 -0.3289 -0.3945  0.1833
  166SOPE   H8X18722   0.956   4.470   9.965  3.6651 -0.0022 -0.8611
  166SOPE   H8Y18723   1.064   4.589  10.037 -0.7291 -0.2369  3.0372
  166SOPE   C3918724   0.893   4.672   9.926 -0.5480  0.8021  0.2485
  166SOPE   H9X18725   0.913   4.774   9.965  1.7976 -0.5847  3.1084
  166SOPE   H9Y18726   0.786   4.644   9.927 -1.0901  2.7014  1.9459
  166SOPE  C31018727   0.945   4.653   9.787 -0.3635  0.4200  0.4601
  166SOPE  H10X18728   0.915   4.554   9.747  1.8220 -0.3842  0.6979
  166SOPE  H10Y18729   1.055   4.655   9.775 -0.3174  1.7730  0.9526
  166SOPE  C31118730   0.871   4.764   9.705  0.5121  0.1795  0.1932
  166SOPE  H11X18731   0.888   4.861   9.756 -0.1511  0.3604  0.0740
  166SOPE  H11Y18732   0.760   4.754   9.706  0.3538  1.7390  1.5128
  166SOPE  C31218733   0.924   4.773   9.560  0.7308 -0.6506  0.1977
  166SOPE  H12X18734   0.896   4.679   9.506  2.0210 -0.4761 -0.8352
  166SOPE  H12Y18735   1.032   4.794   9.557  0.7514 -0.5872  1.1639
  166SOPE  C31318736   0.842   4.880   9.477  0.4515  0.2548 -0.5884
  166SOPE  H13X18737   0.859   4.979   9.525 -2.5669 -0.6095  2.6545
  166SOPE  H13Y18738   0.733   4.859   9.484  1.0108 -3.2493 -0.4888
  166SOPE  C31418739   0.877   4.875   9.328 -0.4739 -0.7162 -0.0528
  166SOPE  H14X18740   0.851   4.773   9.292  0.2153 -1.9162  2.5928
  166SOPE  H14Y18741   0.987   4.879   9.311 -0.6471 -1.4065 -1.4950
  166SOPE  C31518742   0.792   4.959   9.241 -0.2237  0.4392 -0.2503
  166SOPE  H15X18743   0.775   5.061   9.283 -1.7222 -0.2506  0.9185
  166SOPE  H15Y18744   0.694   4.911   9.220 -0.6022  1.5964 -1.2529
  166SOPE  C31618745   0.862   4.977   9.107  0.2555  0.4010 -0.6597
  166SOPE  H16X18746   0.859   4.880   9.052  2.1207 -0.3267  0.4215
  166SOPE  H16Y18747   0.968   5.006   9.099  0.0845  0.5922 -2.8646
  166SOPE  C31718748   0.792   5.089   9.023 -0.3330  0.5119 -0.4277
  166SOPE  H17X18749   0.790   5.183   9.082 -1.9089  1.4851 -1.9247
  166SOPE  H17Y18750   0.687   5.053   9.013  0.0536 -0.1526 -2.5881
  166SOPE  C31818751   0.849   5.109   8.883  0.2803 -0.0777 -0.5074
  166SOPE  H18X18752   0.957   5.084   8.871 -0.0229 -1.9645  0.2905
  166SOPE  H18Y18753   0.815   5.203   8.835  0.4485  0.7838  1.0178
  166SOPE  H18Z18754   0.802   5.028   8.823  0.5454 -0.1071 -0.6777
  167SOPE     N18755   3.673   4.998   5.997 -0.0140 -0.0020  0.0344
  167SOPE   HN118756   3.646   5.051   6.082 -1.8700 -0.6572 -0.1000
  167SOPE   HN218757   3.673   5.067   5.919  0.3099  0.0589  0.0902
  167SOPE   HN318758   3.603   4.925   5.971 -0.4057  0.5478 -0.4824
  167SOPE   C1218759   3.809   4.932   6.013  0.3323 -0.5529 -0.2327
  167SOPE  H12A18760   3.876   5.012   5.977 -0.5424  0.2778 -0.0472
  167SOPE  H12B18761   3.804   4.851   5.938 -2.3080 -1.5529  0.8849
  167SOPE   C1118762   3.827   4.879   6.155  0.0766 -0.2506  0.1084
  167SOPE  H11A18763   3.917   4.814   6.157 -0.3116 -0.7859  0.5842
  167SOPE  H11B18764   3.752   4.806   6.193 -0.4766 -0.2589 -0.9618
  167SOPE     P18765   3.961   5.035   6.320  0.3616 -0.1971  0.1941
  167SOPE   O1318766   3.952   5.186   6.323  0.1683 -0.8694  0.0552
  167SOPE   O1418767   4.077   4.975   6.254  0.0783 -0.5032  0.3413
  167SOPE   O1218768   3.827   4.985   6.254  0.4367 -0.1792 -0.2146
  167SOPE   O1118769   3.969   4.980   6.462  0.0800 -1.0661  0.4396
  167SOPE    C118770   3.873   4.885   6.503  0.4881  0.9028 -0.3799
  167SOPE    HA18771   3.873   4.792   6.442  1.6116  0.6963 -0.0817
  167SOPE    HB18772   3.771   4.925   6.484  0.7656  0.9371 -1.9356
  167SOPE    C218773   3.888   4.860   6.657  0.1377  0.1804 -0.5660
  167SOPE    HS18774   3.795   4.812   6.693  0.6429  0.5614  1.3458
  167SOPE   O2118775   3.901   4.980   6.723  0.2319  0.1909 -0.0589
  167SOPE   C2118776   3.796   5.063   6.734 -0.6159 -0.0401  0.1099
  167SOPE   O2218777   3.698   5.061   6.662  0.1587 -0.1910  0.1826
  167SOPE   C2218778   3.819   5.156   6.847 -0.6770  0.6468 -0.3243
  167SOPE   H2R18779   3.908   5.217   6.819 -0.2871  0.1294 -0.2179
  167SOPE   H2S18780   3.841   5.096   6.938  0.4733 -1.5062 -1.9356
  167SOPE    C318781   4.008   4.755   6.693  0.9236 -0.3022 -0.9169
  167SOPE    HX18782   4.100   4.805   6.656  1.1503 -0.5717 -0.7192
  167SOPE    HY18783   3.987   4.656   6.645  0.6857 -0.2180 -0.9881
  167SOPE   O3118784   4.018   4.746   6.836  0.3442  0.4006 -0.5404
  167SOPE   C3118785   3.939   4.662   6.894  0.4139  0.6476 -0.9512
  167SOPE   O3218786   3.859   4.589   6.838  0.2231  0.9268 -0.6503
  167SOPE   C3218787   3.954   4.664   7.053 -0.2542 -0.1146  0.6173
  167SOPE   H2X18788   3.889   4.748   7.085  1.3887  1.8792 -1.0359
  167SOPE   H2Y18789   4.057   4.694   7.084 -0.5503  0.3637  1.1733
  167SOPE   C2318790   3.695   5.237   6.890  0.4533  0.0392  0.6358
  167SOPE   H3R18791   3.624   5.156   6.916 -0.8976  0.3713 -1.7586
  167SOPE   H3S18792   3.664   5.300   6.804  0.7607  1.2169  1.3752
  167SOPE   C2418793   3.718   5.321   7.016  0.0326  0.1177  0.5185
  167SOPE   H4R18794   3.805   5.390   7.000 -0.3999  0.7957  1.0175
  167SOPE   H4S18795   3.642   5.396   7.046  1.5742  2.3797 -0.8113
  167SOPE   C2518796   3.738   5.250   7.152  0.4008 -0.4973 -0.1173
  167SOPE   H5R18797   3.664   5.167   7.160 -1.6704  1.3717  1.6300
  167SOPE   H5S18798   3.837   5.200   7.144  1.3756  0.9799  1.8435
  167SOPE   C2618799   3.724   5.339   7.280 -0.2917 -0.2576  0.2138
  167SOPE   H6R18800   3.807   5.413   7.277 -0.7169  0.2538  0.7276
  167SOPE   H6S18801   3.637   5.408   7.278  1.2020  1.8365  2.0456
  167SOPE   C2718802   3.736   5.270   7.417  0.4142  1.4702  0.2536
  167SOPE   H7R18803   3.636   5.227   7.438  1.2627 -1.5247 -1.2224
  167SOPE   H7S18804   3.812   5.191   7.402  0.0351  1.0138  0.6987
  167SOPE   C2818805   3.784   5.373   7.522 -0.0781 -0.3219 -0.4204
  167SOPE   H8R18806   3.725   5.467   7.512  2.3080  1.1714 -1.1531
  167SOPE   H8S18807   3.753   5.330   7.620 -1.1061 -0.1694 -0.6616
  167SOPE   C2918808   3.931   5.392   7.520 -0.1405 -0.5111  0.3933
  167SOPE   H9118809   3.985   5.298   7.539 -1.7299 -1.6411 -0.3932
  167SOPE  C21018810   4.000   5.503   7.503 -0.1005 -0.5418 -0.7347
  167SOPE  H10118811   4.110   5.499   7.500 -0.1194 -2.0690 -0.2137
  167SOPE  C21118812   3.945   5.641   7.490 -0.4773  0.0328  0.4099
  167SOPE  H11R18813   4.013   5.710   7.545 -0.7092  0.0282  0.7063
  167SOPE  H11S18814   3.848   5.646   7.544 -1.2533  0.0213 -0.9227
  167SOPE  C21218815   3.947   5.692   7.344 -0.2707  0.2688  0.3730
  167SOPE  H12R18816   3.852   5.653   7.302  0.7802 -3.8064  1.3280
  167SOPE  H12S18817   4.027   5.638   7.289  0.3072 -0.3508  1.7668
  167SOPE  C21318818   3.964   5.847   7.346  0.9964  0.0218  0.9096
  167SOPE  H13R18819   4.074   5.855   7.356  1.3443  0.5280 -2.3196
  167SOPE  H13S18820   3.917   5.884   7.439  0.7146 -0.7592  1.0829
  167SOPE  C21418821   3.905   5.925   7.227 -0.4168  0.5335 -0.3421
  167SOPE  H14R18822   3.927   6.034   7.236 -1.4598  0.7406 -0.1017
  167SOPE  H14S18823   3.794   5.917   7.224 -0.3800 -0.4092  0.3004
  167SOPE  C21518824   3.952   5.875   7.096 -0.1083  0.0537  0.1365
  167SOPE  H15R18825   3.912   5.773   7.076  1.9220 -0.7128 -0.2928
  167SOPE  H15S18826   4.062   5.881   7.081  0.3895  0.1521  3.1706
  167SOPE  C21618827   3.882   5.951   6.979 -0.4314 -0.6434 -0.6761
  167SOPE  H16R18828   3.916   6.057   6.984 -0.5047 -0.6581  0.5949
  167SOPE  H16S18829   3.776   5.957   7.011  0.2891  1.8626  1.6373
  167SOPE  C21718830   3.900   5.879   6.837  0.0567 -0.5785  0.3851
  167SOPE  H17R18831   3.826   5.920   6.766  1.0613 -0.0662 -0.3857
  167SOPE  H17S18832   3.880   5.770   6.849  0.4608 -0.7161 -0.1815
  167SOPE  C21818833   4.043   5.897   6.792 -0.0978 -0.1945 -0.2864
  167SOPE  H18R18834   4.039   5.909   6.682  0.1130 -0.3991 -0.3172
  167SOPE  H18S18835   4.106   5.810   6.820  0.9255  0.5059 -0.3192
  167SOPE  H18T18836   4.088   5.979   6.853  1.6249 -1.4416  0.2053
  167SOPE   C3318837   3.908   4.537   7.132  0.7444  0.0983  0.3454
  167SOPE   H3X18838   3.972   4.455   7.094 -0.4948  0.1318 -2.0255
  167SOPE   H3Y18839   3.802   4.520   7.105  0.9689  0.2851 -0.7105
  167SOPE   C3418840   3.905   4.551   7.283  0.0860 -0.3288 -0.5801
  167SOPE   H4X18841   4.006   4.593   7.301  0.0475  0.6084 -2.2951
  167SOPE   H4Y18842   3.890   4.458   7.341  0.9634 -0.6109 -0.7943
  167SOPE   C3518843   3.803   4.643   7.351 -0.2284  0.3843 -0.0354
  167SOPE   H5X18844   3.697   4.620   7.325 -0.8234 -0.0143  2.5196
  167SOPE   H5Y18845   3.815   4.751   7.325  6.3630  0.5671  1.9244
  167SOPE   C3618846   3.811   4.642   7.507 -0.0584  0.3793  0.7052
  167SOPE   H6X18847   3.767   4.735   7.547 -1.7408 -0.2404  0.3702
  167SOPE   H6Y18848   3.913   4.618   7.545 -1.0723 -3.5612  1.4347
  167SOPE   C3718849   3.729   4.525   7.572 -0.2509  0.7704  1.4080
  167SOPE   H7X18850   3.773   4.433   7.528  2.2739  2.1643  0.8375
  167SOPE   H7Y18851   3.625   4.532   7.533 -0.5748 -2.6652  1.3515
  167SOPE   C3818852   3.727   4.523   7.721  0.0809 -0.4641 -0.6332
  167SOPE   H8X18853   3.699   4.625   7.754  0.0376 -1.8217  4.2899
  167SOPE   H8Y18854   3.828   4.506   7.764 -0.3956 -1.4670  0.1166
  167SOPE   C3918855   3.634   4.423   7.796 -0.7708  0.1091 -0.4626
  167SOPE   H9X18856   3.663   4.318   7.772  1.7418  0.5884  0.1905
  167SOPE   H9Y18857   3.524   4.419   7.778 -0.7945 -2.3594 -0.1486
  167SOPE  C31018858   3.655   4.438   7.951  0.8453  0.4285  0.0747
  167SOPE  H10X18859   3.582   4.519   7.972  0.5192  0.0073  0.6175
  167SOPE  H10Y18860   3.763   4.465   7.959  1.3828 -1.1110 -1.4568
  167SOPE  C31118861   3.603   4.310   8.008 -0.1013  0.9910  0.0142
  167SOPE  H11X18862   3.512   4.269   7.959 -0.2488  0.8133  0.4389
  167SOPE  H11Y18863   3.588   4.331   8.116  0.9285  0.4767  0.2760
  167SOPE  C31218864   3.705   4.187   8.020 -0.2443 -0.2758 -0.0093
  167SOPE  H12X18865   3.803   4.218   8.062 -0.2400 -1.4908  0.9516
  167SOPE  H12Y18866   3.713   4.146   7.917 -0.9323 -1.3779  0.3602
  167SOPE  C31318867   3.650   4.088   8.124 -0.0329 -1.1323 -0.6575
  167SOPE  H13X18868   3.704   3.991   8.112  2.1185  0.0452 -1.1062
  167SOPE  H13Y18869   3.542   4.066   8.111 -0.3625  0.8708 -1.6830
  167SOPE  C31418870   3.691   4.115   8.268  0.0159  0.2289  0.6108
  167SOPE  H14X18871   3.664   4.217   8.302 -0.5803  1.3429 -2.7734
  167SOPE  H14Y18872   3.801   4.104   8.273  0.1451  1.2854  0.3849
  167SOPE  C31518873   3.615   4.019   8.356 -0.1903  1.0295 -0.4722
  167SOPE  H15X18874   3.632   3.916   8.317 -3.8455  0.2628 -0.3356
  167SOPE  H15Y18875   3.506   4.035   8.348 -1.1720 -3.4337  1.2507
  167SOPE  C31618876   3.654   4.023   8.505 -0.7274  0.4294  0.7280
  167SOPE  H16X18877   3.652   4.131   8.533 -0.8037  0.3555  1.0149
  167SOPE  H16Y18878   3.759   3.995   8.524 -0.2820  1.9549  0.7021
  167SOPE  C31718879   3.552   3.948   8.588  0.3151 -0.3322 -0.1496
  167SOPE  H17X18880   3.585   3.920   8.690 -2.2246 -0.0791  0.7973
  167SOPE  H17Y18881   3.531   3.852   8.535  0.8681 -0.4044 -0.2492
  167SOPE  C31818882   3.430   4.034   8.607 -0.1198 -0.2325 -0.0392
  167SOPE  H18X18883   3.448   4.123   8.670 -2.0490 -0.5532  1.0562
  167SOPE  H18Y18884   3.343   3.982   8.653 -0.0216 -1.0942 -0.8084
  167SOPE  H18Z18885   3.393   4.068   8.508  1.0645 -2.2077 -1.2250
  168SOPE     N18886   2.635   0.894   6.334 -0.0807  0.0266  0.3595
  168SOPE   HN118887   2.686   0.964   6.276 -0.2346 -0.0474  0.1299
  168SOPE   HN218888   2.545   0.872   6.286 -0.2764  0.5670  0.4722
  168SOPE   HN318889   2.602   0.935   6.423 -0.3952 -0.9036  0.6903
  168SOPE   C1218890   2.724   0.781   6.358 -0.1384 -0.2494  0.1270
  168SOPE  H12A18891   2.729   0.729   6.260 -0.0532  1.9615 -1.1045
  168SOPE  H12B18892   2.690   0.718   6.443  1.0590  0.0306  0.8413
  168SOPE   C1118893   2.863   0.827   6.407  0.5976  0.0646 -0.4999
  168SOPE  H11A18894   2.925   0.736   6.422 -1.4146 -1.4064 -0.7050
  168SOPE  H11B18895   2.847   0.868   6.509 -1.1283 -0.3239 -0.5787
  168SOPE     P18896   3.049   1.007   6.343  0.0610  0.1456 -0.2909
  168SOPE   O1318897   3.025   1.154   6.322  0.0122 -0.8501  0.7960
  168SOPE   O1418898   3.154   0.934   6.262 -0.1522  0.0009 -0.5419
  168SOPE   O1218899   2.916   0.929   6.321 -0.3902 -0.3986  1.0060
  168SOPE   O1118900   3.062   0.983   6.500  0.2730  0.1976 -0.1593
  168SOPE    C118901   2.989   1.079   6.583 -0.6851 -0.1709  0.4785
  168SOPE    HA18902   2.938   1.026   6.666 -0.1360 -1.1649  0.1921
  168SOPE    HB18903   2.916   1.147   6.534  0.7190  2.5126  1.8715
  168SOPE    C218904   3.084   1.177   6.655 -0.1253  0.4537 -0.5019
  168SOPE    HS18905   3.122   1.244   6.576 -0.1375  1.5899  0.4285
  168SOPE   O2118906   3.194   1.100   6.719 -0.4443 -0.6332 -0.1531
  168SOPE   C2118907   3.295   1.166   6.761 -1.0066 -1.2131  0.3345
  168SOPE   O2218908   3.321   1.284   6.736  0.2971 -0.2648  0.2107
  168SOPE   C2218909   3.375   1.088   6.859  0.1217 -0.2726  0.2870
  168SOPE   H2R18910   3.464   1.148   6.889  0.7981  0.4531 -2.8574
  168SOPE   H2S18911   3.411   0.994   6.812  1.3810  1.0152 -1.4498
  168SOPE    C318912   3.001   1.255   6.763 -0.4488 -0.4872  0.3428
  168SOPE    HX18913   2.948   1.329   6.698 -1.0884 -0.2646  1.1005
  168SOPE    HY18914   3.079   1.309   6.820  1.9924 -0.3788 -2.8328
  168SOPE   O3118915   2.924   1.171   6.855 -0.0085 -0.0011 -0.5255
  168SOPE   C3118916   2.802   1.200   6.872  0.2879 -0.7069 -0.1798
  168SOPE   O3218917   2.740   1.288   6.809 -0.8313  0.6846  0.1748
  168SOPE   C3218918   2.752   1.130   6.994 -0.1933  0.1637  0.3507
  168SOPE   H2X18919   2.771   1.022   6.973  0.3504  0.3050  0.1022
  168SOPE   H2Y18920   2.644   1.152   7.002 -0.2109  1.8625 -2.9596
  168SOPE   C2318921   3.303   1.069   6.991  0.5042  0.5735  0.5534
  168SOPE   H3R18922   3.259   0.967   6.994  0.5967  0.5026 -0.2237
  168SOPE   H3S18923   3.207   1.125   6.998 -0.5849 -0.9998 -0.6710
  168SOPE   C2418924   3.393   1.091   7.120  0.3574  0.1906 -0.5130
  168SOPE   H4R18925   3.462   1.005   7.109  3.3686  2.4136 -0.2269
  168SOPE   H4S18926   3.451   1.183   7.101 -1.0188  1.4210  0.9035
  168SOPE   C2518927   3.308   1.093   7.250  0.7121  0.6066 -0.5171
  168SOPE   H5R18928   3.242   1.004   7.245  1.3210  0.1207  0.0433
  168SOPE   H5S18929   3.382   1.084   7.332 -1.0178  0.8261  1.1246
  168SOPE   C2618930   3.205   1.211   7.257  0.3142 -0.4030 -0.2046
  168SOPE   H6R18931   3.256   1.310   7.266 -0.0635  0.1522 -3.2825
  168SOPE   H6S18932   3.135   1.222   7.172  0.8694 -2.6245 -0.9965
  168SOPE   C2718933   3.109   1.190   7.379 -0.1873 -0.2107  0.3410
  168SOPE   H7R18934   3.027   1.265   7.374 -0.0483 -0.1337 -0.9939
  168SOPE   H7S18935   3.055   1.093   7.375 -1.0021  0.2836 -2.0299
  168SOPE   C2818936   3.188   1.197   7.514  0.1133  0.5514  0.1317
  168SOPE   H8R18937   3.285   1.147   7.495  0.7923  1.7423  0.3336
  168SOPE   H8S18938   3.202   1.304   7.542  1.4589  0.5845 -0.5781
  168SOPE   C2918939   3.126   1.113   7.623 -0.1780 -0.4249  0.5395
  168SOPE   H9118940   3.081   1.021   7.583  0.0498  0.2879 -1.4486
  168SOPE  C21018941   3.108   1.146   7.752 -0.5784 -0.0561 -0.2589
  168SOPE  H10118942   3.049   1.087   7.823 -3.1481  0.7030 -1.6366
  168SOPE  C21118943   3.164   1.274   7.817 -0.4374  1.2928 -0.0204
  168SOPE  H11R18944   3.082   1.348   7.804 -0.0981  1.9658  1.4674
  168SOPE  H11S18945   3.252   1.314   7.762 -0.0573  1.4893  0.7216
  168SOPE  C21218946   3.202   1.261   7.972 -0.4437  0.1543  0.5034
  168SOPE  H12R18947   3.113   1.211   8.017 -1.4626  0.5767 -0.9683
  168SOPE  H12S18948   3.202   1.364   8.014 -0.6121 -0.0312  0.9618
  168SOPE  C21318949   3.334   1.189   7.999  0.9358 -0.5135  0.0579
  168SOPE  H13R18950   3.415   1.243   7.945  1.0607 -2.1308 -1.5210
  168SOPE  H13S18951   3.331   1.094   7.941 -0.6350  0.0972 -0.9159
  168SOPE  C21418952   3.364   1.178   8.146  0.3236 -0.1438 -0.7013
  168SOPE  H14R18953   3.280   1.127   8.198  1.0689  0.1182  0.8220
  168SOPE  H14S18954   3.381   1.274   8.198 -2.1603  0.0624 -0.1132
  168SOPE  C21518955   3.497   1.106   8.160 -0.4080  0.6826 -0.2376
  168SOPE  H15R18956   3.543   1.122   8.260 -0.1763  2.4496 -0.5934
  168SOPE  H15S18957   3.574   1.151   8.094  1.6385  0.8144  2.1136
  168SOPE  C21618958   3.494   0.954   8.145 -0.2010 -0.2063  0.4649
  168SOPE  H16R18959   3.590   0.908   8.177  0.7630  1.3729 -0.0390
  168SOPE  H16S18960   3.478   0.932   8.038  0.6542 -0.3711  0.3654
  168SOPE  C21718961   3.387   0.875   8.228 -0.3847  0.2511  0.3820
  168SOPE  H17R18962   3.284   0.898   8.192  0.7456  1.6969 -2.2646
  168SOPE  H17S18963   3.380   0.907   8.334  1.3411 -2.7321  1.5138
  168SOPE  C21818964   3.394   0.719   8.228 -0.3202  1.0833  0.8759
  168SOPE  H18R18965   3.499   0.684   8.235  0.4976  2.6893 -1.6814
  168SOPE  H18S18966   3.353   0.680   8.132  0.0759  0.6547  0.8795
  168SOPE  H18T18967   3.340   0.676   8.315  1.8307 -1.1216  1.2510
  168SOPE   C3318968   2.828   1.184   7.115 -0.0247  0.5513  0.5328
  168SOPE   H3X18969   2.934   1.152   7.106  0.1167  1.4302 -1.2556
  168SOPE   H3Y18970   2.797   1.123   7.203  1.5337 -2.2294 -0.7297
  168SOPE   C3418971   2.794   1.329   7.152  0.2747  1.4282 -0.4245
  168SOPE   H4X18972   2.848   1.399   7.085  0.6072  0.4006 -1.2405
  168SOPE   H4Y18973   2.860   1.332   7.242  0.1996  1.2808 -0.3640
  168SOPE   C3518974   2.639   1.369   7.169  0.4500  0.2593 -0.9494
  168SOPE   H5X18975   2.584   1.366   7.073 -0.6474  0.7463 -0.3499
  168SOPE   H5Y18976   2.643   1.478   7.192  2.6824  0.7587 -3.1967
  168SOPE   C3618977   2.564   1.291   7.272  0.2444  0.5810  0.4032
  168SOPE   H6X18978   2.628   1.269   7.360  0.8237  1.2066  0.1461
  168SOPE   H6Y18979   2.530   1.191   7.236 -1.1334  2.3972 -4.0196
  168SOPE   C3718980   2.436   1.357   7.315 -0.6398 -0.2124  0.4050
  168SOPE   H7X18981   2.398   1.283   7.388  1.3069 -0.8945  0.7839
  168SOPE   H7Y18982   2.366   1.369   7.230 -1.2182  0.7437  0.9907
  168SOPE   C3818983   2.458   1.499   7.388  0.0784  0.8014  0.0220
  168SOPE   H8X18984   2.368   1.524   7.447  0.3310 -2.5617  2.0559
  168SOPE   H8Y18985   2.474   1.573   7.306  0.4142 -0.6529 -1.2580
  168SOPE   C3918986   2.574   1.493   7.490  0.1840 -0.2334 -0.1092
  168SOPE   H9X18987   2.590   1.597   7.529 -1.6863  0.4181 -0.9848
  168SOPE   H9Y18988   2.661   1.468   7.426  1.1701  0.3851  0.9460
  168SOPE  C31018989   2.574   1.397   7.609 -0.3563  0.2458 -0.1450
  168SOPE  H10X18990   2.672   1.409   7.659  2.0774  1.5638 -4.6107
  168SOPE  H10Y18991   2.561   1.294   7.570  1.0834  0.3248 -0.9118
  168SOPE  C31118992   2.461   1.421   7.706 -0.7930  0.3471  0.6279
  168SOPE  H11X18993   2.370   1.391   7.650 -0.1307  0.0777 -0.3276
  168SOPE  H11Y18994   2.468   1.530   7.727  3.5198  0.4632 -0.5743
  168SOPE  C31218995   2.481   1.351   7.841  0.1000  0.5632 -0.3794
  168SOPE  H12X18996   2.576   1.395   7.880 -0.9444  2.1124  0.4857
  168SOPE  H12Y18997   2.478   1.240   7.830 -2.4966  0.6713 -1.2991
  168SOPE  C31318998   2.366   1.369   7.941  0.1708 -0.5323 -0.2810
  168SOPE  H13X18999   2.273   1.338   7.888  0.2193  1.1630 -1.4474
  168SOPE  H13Y19000   2.353   1.479   7.951 -0.7921 -0.8638  4.2506
  168SOPE  C31419001   2.397   1.308   8.080  0.1982  1.0414  0.7754
  168SOPE  H14X19002   2.489   1.355   8.120 -0.7812  0.6306  3.7668
  168SOPE  H14Y19003   2.413   1.199   8.065 -1.5568  0.4470  2.7385
  168SOPE  C31519004   2.285   1.316   8.187 -0.1803  0.0860  0.9451
  168SOPE  H15X19005   2.185   1.308   8.138  0.7411  1.3180 -1.2562
  168SOPE  H15Y19006   2.288   1.421   8.221  1.8549  0.5003 -0.3762
  168SOPE  C31619007   2.312   1.241   8.317 -0.2343  0.0459 -0.0413
  168SOPE  H16X19008   2.411   1.282   8.348 -0.6886  1.7413 -0.7543
  168SOPE  H16Y19009   2.323   1.134   8.288  0.9653 -0.6714  2.7033
  168SOPE  C31719010   2.207   1.251   8.426  0.1104 -0.1413  0.2979
  168SOPE  H17X19011   2.209   1.156   8.484  2.0358  0.4278  1.2283
  168SOPE  H17Y19012   2.105   1.239   8.384 -0.8583  0.8594  2.2539
  168SOPE  C31819013   2.224   1.368   8.519 -0.2391  0.1578  0.1730
  168SOPE  H18X19014   2.151   1.368   8.603 -1.3518 -0.1824 -0.7637
  168SOPE  H18Y19015   2.198   1.458   8.458 -1.2696  1.0700  1.8596
  168SOPE  H18Z19016   2.328   1.374   8.556  0.9191 -2.0068 -2.4242
  169SOPE     N19017   3.691   4.356   6.289 -0.7573  0.0530 -0.4089
  169SOPE   HN119018   3.588   4.345   6.279 -0.8590  1.7854 -1.5170
  169SOPE   HN219019   3.743   4.382   6.203 -1.3436  0.5924 -0.6064
  169SOPE   HN319020   3.724   4.262   6.320 -0.2339 -0.1596 -1.5445
  169SOPE   C1219021   3.727   4.464   6.380  0.6589  0.1531  0.4433
  169SOPE  H12A19022   3.655   4.462   6.465  0.4362  2.6417  0.3753
  169SOPE  H12B19023   3.711   4.558   6.324  1.4139  0.4700  0.7486
  169SOPE   C1119024   3.871   4.454   6.428 -0.4776 -0.2740 -0.0303
  169SOPE  H11A19025   3.875   4.357   6.481 -0.4948 -1.0622 -1.4083
  169SOPE  H11B19026   3.890   4.541   6.494  0.4217 -0.0492 -0.5714
  169SOPE     P19027   4.118   4.476   6.362  0.1530 -0.2164  0.4359
  169SOPE   O1319028   4.142   4.594   6.449  0.6019  0.0263 -0.3934
  169SOPE   O1419029   4.208   4.470   6.246 -0.6315 -0.2975  0.3054
  169SOPE   O1219030   3.966   4.459   6.315 -0.7550  0.1177 -0.8046
  169SOPE   O1119031   4.143   4.348   6.448  0.2427 -0.4485  0.3192
  169SOPE    C119032   4.108   4.224   6.389  0.2418  0.4705  0.0013
  169SOPE    HA19033   4.092   4.220   6.279  0.6466  1.0805 -0.0877
  169SOPE    HB19034   4.022   4.178   6.442  1.7709 -0.0869  2.1467
  169SOPE    C219035   4.231   4.129   6.405  0.9179 -0.5956 -0.2270
  169SOPE    HS19036   4.216   4.027   6.365 -1.5299 -0.0445 -0.8668
  169SOPE   O2119037   4.272   4.122   6.541  0.1101  0.0322  0.1077
  169SOPE   C2119038   4.188   4.051   6.614  0.1119 -0.3625  0.3390
  169SOPE   O2219039   4.095   3.985   6.572  0.3526 -0.4810 -0.4210
  169SOPE   C2219040   4.236   4.043   6.755 -1.2700  0.6315 -0.6488
  169SOPE   H2R19041   4.238   4.143   6.803 -1.2104 -0.6246  2.2011
  169SOPE   H2S19042   4.342   4.010   6.758 -1.0930  1.2527  1.1197
  169SOPE    C319043   4.357   4.193   6.326  0.1816  0.4880 -0.0284
  169SOPE    HX19044   4.367   4.301   6.346  0.5482  0.4758 -0.1316
  169SOPE    HY19045   4.350   4.191   6.215  2.4426  2.3850 -0.2877
  169SOPE   O3119046   4.483   4.123   6.347  0.2976 -0.2521 -0.3884
  169SOPE   C3119047   4.557   4.178   6.450  0.6447  0.6198 -0.3789
  169SOPE   O3219048   4.528   4.273   6.514  0.6147 -0.1621 -0.1141
  169SOPE   C3219049   4.675   4.093   6.482 -0.0709  0.5787  0.2543
  169SOPE   H2X19050   4.752   4.088   6.402 -1.2603 -1.5482 -0.8312
  169SOPE   H2Y19051   4.640   3.988   6.493  1.8919 -0.0332  1.0590
  169SOPE   C2319052   4.166   3.946   6.851  0.0611 -0.2106 -0.1341
  169SOPE   H3R19053   4.197   3.841   6.836  0.7958 -0.4209  2.4145
  169SOPE   H3S19054   4.055   3.956   6.845  0.3321  3.6505 -2.5166
  169SOPE   C2419055   4.195   3.981   7.001 -0.1213  0.1391 -0.5910
  169SOPE   H4R19056   4.304   3.974   7.022 -0.3101  1.2927  1.0046
  169SOPE   H4S19057   4.160   4.084   7.024  2.3786  0.6011  1.7302
  169SOPE   C2519058   4.124   3.880   7.091 -0.2873  0.0043 -0.0954
  169SOPE   H5R19059   4.013   3.882   7.084 -0.3463 -2.1955 -0.7107
  169SOPE   H5S19060   4.141   3.775   7.058 -1.4114 -0.4746  0.8000
  169SOPE   C2619061   4.147   3.897   7.239 -0.3273  0.1722  0.4032
  169SOPE   H6R19062   4.256   3.881   7.255 -0.6652 -0.3303  2.4249
  169SOPE   H6S19063   4.122   4.002   7.266 -0.9374 -0.1955  1.2943
  169SOPE   C2719064   4.070   3.793   7.314  0.6846 -0.3496  0.3527
  169SOPE   H7R19065   3.963   3.823   7.312  0.1428 -2.1509  0.3504
  169SOPE   H7S19066   4.085   3.697   7.260  0.9184 -1.0398  1.6137
  169SOPE   C2819067   4.106   3.765   7.457 -0.3294  0.3443  0.2385
  169SOPE   H8R19068   4.029   3.694   7.494 -1.9619  0.8093 -1.9825
  169SOPE   H8S19069   4.196   3.704   7.474  0.0494  1.0712  0.8924
  169SOPE   C2919070   4.101   3.885   7.537 -1.0234  0.3218 -0.7375
  169SOPE   H9119071   4.179   3.962   7.525 -1.6166  1.0645  0.0124
  169SOPE  C21019072   4.007   3.908   7.631 -0.7392 -0.0824  0.2457
  169SOPE  H10119073   4.015   3.995   7.698  0.5366 -0.9173  1.2237
  169SOPE  C21119074   3.890   3.815   7.660 -0.9518 -0.6129 -0.0145
  169SOPE  H11R19075   3.931   3.746   7.736 -0.9409 -0.8900 -0.2737
  169SOPE  H11S19076   3.864   3.758   7.569  0.4164 -0.4543 -0.5333
  169SOPE  C21219077   3.761   3.884   7.709 -0.1044  0.4067  0.3279
  169SOPE  H12R19078   3.778   3.899   7.818  0.8898  1.2676  0.0719
  169SOPE  H12S19079   3.672   3.819   7.702 -0.8394  1.3766  0.5056
  169SOPE  C21319080   3.724   4.011   7.638 -0.2475 -0.0226  0.0157
  169SOPE  H13R19081   3.809   4.082   7.650  0.9581 -1.6682  2.1710
  169SOPE  H13S19082   3.641   4.063   7.690  1.8239  2.5569  1.0099
  169SOPE  C21419083   3.685   4.000   7.492  0.6736  0.3465 -0.0457
  169SOPE  H14R19084   3.575   4.001   7.477  0.8718  1.2625 -1.6863
  169SOPE  H14S19085   3.717   3.899   7.459 -0.6599 -0.1498  0.0960
  169SOPE  C21519086   3.757   4.109   7.409 -0.2106 -0.1367  0.3905
  169SOPE  H15R19087   3.860   4.106   7.450 -0.3383  1.2634  0.8706
  169SOPE  H15S19088   3.716   4.206   7.443  2.1122  0.6762  1.0034
  169SOPE  C21619089   3.743   4.094   7.256  0.2096 -0.2196  0.3688
  169SOPE  H16R19090   3.635   4.093   7.233  0.4173 -0.3730 -0.6432
  169SOPE  H16S19091   3.779   3.996   7.217 -2.3341 -0.8248 -0.6434
  169SOPE  C21719092   3.811   4.206   7.170 -0.2961  0.3838 -0.0381
  169SOPE  H17R19093   3.909   4.218   7.220  0.0685  0.3506 -0.7410
  169SOPE  H17S19094   3.745   4.296   7.178  0.1358  0.7516 -0.5109
  169SOPE  C21819095   3.833   4.167   7.025  0.1013 -0.8252 -0.1309
  169SOPE  H18R19096   3.852   4.258   6.965 -3.0945  0.5537  0.7079
  169SOPE  H18S19097   3.739   4.141   6.971  0.7320 -0.4334 -1.4642
  169SOPE  H18T19098   3.905   4.085   7.005  0.9160 -0.2829  0.5283
  169SOPE   C3319099   4.749   4.134   6.618 -0.6003  0.2160  0.0811
  169SOPE   H3X19100   4.754   4.245   6.624 -3.0094  0.4349 -0.8394
  169SOPE   H3Y19101   4.856   4.104   6.627 -0.7822 -0.2313  0.8732
  169SOPE   C3419102   4.672   4.080   6.737  0.6987  0.0438 -0.1125
  169SOPE   H4X19103   4.653   3.971   6.724 -1.1433  0.4500 -1.1177
  169SOPE   H4Y19104   4.571   4.125   6.728  0.7176  0.4595  1.4693
  169SOPE   C3519105   4.739   4.106   6.869  0.0517 -1.1728  0.2453
  169SOPE   H5X19106   4.803   4.196   6.854 -0.4482 -1.2700 -3.6522
  169SOPE   H5Y19107   4.806   4.020   6.887  0.5063 -0.5672  1.5874
  169SOPE   C3619108   4.642   4.104   6.980  1.3408  0.8945 -0.2356
  169SOPE   H6X19109   4.703   4.116   7.072  1.7310 -1.3141 -0.1627
  169SOPE   H6Y19110   4.604   4.000   6.984 -0.5985  1.6025  0.6742
  169SOPE   C3719111   4.537   4.217   6.971 -0.7687 -0.5434 -0.1413
  169SOPE   H7X19112   4.465   4.193   6.891 -0.7281 -1.9409  0.2173
  169SOPE   H7Y19113   4.587   4.303   6.922 -0.3332 -1.5612 -1.5595
  169SOPE   C3819114   4.479   4.265   7.107  1.1136  0.2900 -0.2659
  169SOPE   H8X19115   4.443   4.175   7.162 -1.9537  0.8639 -1.1527
  169SOPE   H8Y19116   4.553   4.318   7.171 -0.1576  0.4805  1.0989
  169SOPE   C3919117   4.355   4.359   7.103  0.1245 -1.0957 -0.7716
  169SOPE   H9X19118   4.263   4.312   7.060 -0.0792 -2.3586  0.9413
  169SOPE   H9Y19119   4.374   4.454   7.049 -1.6811 -0.8580 -1.0799
  169SOPE  C31019120   4.318   4.416   7.248 -0.2914  1.0769  0.3824
  169SOPE  H10X19121   4.231   4.486   7.247  0.1825  1.6764  0.3619
  169SOPE  H10Y19122   4.413   4.459   7.289  0.0006 -0.8494  1.8540
  169SOPE  C31119123   4.270   4.306   7.339  0.2154 -0.1874  0.5644
  169SOPE  H11X19124   4.348   4.232   7.369  0.3363  0.9691  3.3612
  169SOPE  H11Y19125   4.182   4.254   7.297 -0.5397  0.9591  0.6956
  169SOPE  C31219126   4.213   4.375   7.464  0.2837  0.1799 -0.4485
  169SOPE  H12X19127   4.128   4.445   7.450 -0.2718  0.0373  1.8261
  169SOPE  H12Y19128   4.298   4.432   7.508  0.1123 -0.7327  1.1330
  169SOPE  C31319129   4.176   4.279   7.584  0.0352 -0.2894  0.4049
  169SOPE  H13X19130   4.251   4.199   7.600 -1.4364 -2.0388 -1.0518
  169SOPE  H13Y19131   4.087   4.226   7.545  1.0791 -2.2785  0.6138
  169SOPE  C31419132   4.141   4.342   7.720  0.0342 -0.0398  0.6733
  169SOPE  H14X19133   4.060   4.418   7.709 -1.8171 -2.1244 -0.8158
  169SOPE  H14Y19134   4.230   4.403   7.746 -0.1647  0.5813 -0.0550
  169SOPE  C31519135   4.099   4.243   7.834 -0.5616 -0.3414 -0.3354
  169SOPE  H15X19136   4.155   4.147   7.840  3.4963  1.9526  2.2378
  169SOPE  H15Y19137   3.993   4.216   7.814 -0.3317 -1.7127  0.1527
  169SOPE  C31619138   4.111   4.318   7.972  0.1757  0.1462 -0.3841
  169SOPE  H16X19139   4.063   4.249   8.045 -1.9377  1.4660 -0.4419
  169SOPE  H16Y19140   4.048   4.410   7.968  1.3296  1.0008  0.2548
  169SOPE  C31719141   4.253   4.348   8.020  0.5849  0.6066  0.3288
  169SOPE  H17X19142   4.287   4.442   7.972  0.2674  0.3183 -0.4682
  169SOPE  H17Y19143   4.314   4.259   7.992 -1.1884 -2.0428  4.0015
  169SOPE  C31819144   4.269   4.366   8.168 -0.1844 -0.8156 -0.3816
  169SOPE  H18X19145   4.237   4.282   8.233 -1.7256  0.0877  0.0901
  169SOPE  H18Y19146   4.213   4.456   8.203 -0.8397 -0.6734 -1.7314
  169SOPE  H18Z19147   4.375   4.392   8.187 -1.1309  1.9681  1.8454
  170SOPE     N19148   2.909   1.646   6.159  0.3799  0.1297  0.0204
  170SOPE   HN119149   2.923   1.702   6.246 -1.4627  3.0398 -1.4111
  170SOPE   HN219150   2.806   1.632   6.168  0.0585  2.3437  0.1984
  170SOPE   HN319151   2.945   1.549   6.149 -1.8121 -0.6021 -1.5287
  170SOPE   C1219152   2.924   1.729   6.036 -0.0275 -1.0293  0.3182
  170SOPE  H12A19153   2.837   1.701   5.973 -0.5104 -2.6537  1.6422
  170SOPE  H12B19154   3.017   1.698   5.984  0.9282  0.6593  0.9554
  170SOPE   C1119155   2.914   1.874   6.071  0.3413 -0.5706  0.1216
  170SOPE  H11A19156   2.810   1.901   6.100  0.1394 -0.4807 -0.6712
  170SOPE  H11B19157   2.922   1.932   5.976 -0.9796 -1.2739 -0.4458
  170SOPE     P19158   3.158   1.951   6.139 -0.3354 -0.1779  0.4625
  170SOPE   O1319159   3.168   2.001   6.001  0.2718  0.1805 -0.1505
  170SOPE   O1419160   3.237   1.836   6.181 -0.2386 -0.1489  0.3628
  170SOPE   O1219161   3.003   1.924   6.169 -0.5112  0.4623  0.0617
  170SOPE   O1119162   3.186   2.079   6.234  0.0274  0.0120 -0.1234
  170SOPE    C119163   3.078   2.170   6.271  0.4756  0.9428 -0.0419
  170SOPE    HA19164   3.009   2.125   6.346  0.6753 -0.1807 -0.5041
  170SOPE    HB19165   3.020   2.199   6.182 -1.5214 -2.7414 -0.1412
  170SOPE    C219166   3.138   2.293   6.342 -0.5044  0.7346 -0.1301
  170SOPE    HS19167   3.201   2.340   6.263 -1.3933 -0.7590 -1.8176
  170SOPE   O2119168   3.213   2.250   6.462  0.0970 -0.1693 -0.3995
  170SOPE   C2119169   3.294   2.342   6.509 -0.5397 -0.7313 -0.8146
  170SOPE   O2219170   3.309   2.454   6.463  0.3175  0.2153 -0.1003
  170SOPE   C2219171   3.335   2.295   6.652  0.4003 -0.1039 -0.1940
  170SOPE   H2R19172   3.276   2.360   6.720 -0.9044 -0.7829 -0.6401
  170SOPE   H2S19173   3.444   2.315   6.660  0.8559 -2.0146 -1.0664
  170SOPE    C319174   3.028   2.399   6.377  0.5682 -0.0065 -0.2911
  170SOPE    HX19175   2.973   2.421   6.284  1.0272 -1.1654 -0.8659
  170SOPE    HY19176   3.081   2.494   6.402 -0.3328 -0.1616  2.6771
  170SOPE   O3119177   2.947   2.359   6.491  0.2806  0.1206 -0.0985
  170SOPE   C3119178   2.815   2.365   6.483  0.1401 -0.1894 -0.4564
  170SOPE   O3219179   2.751   2.392   6.387 -0.1745 -0.0507  1.1441
  170SOPE   C3219180   2.753   2.345   6.622  0.9406 -0.1970  0.3867
  170SOPE   H2X19181   2.643   2.334   6.610  1.0255 -1.1532  0.4418
  170SOPE   H2Y19182   2.766   2.438   6.681  0.9096 -0.1982  0.3954
  170SOPE   C2319183   3.288   2.151   6.684 -0.1104 -0.0743 -0.4737
  170SOPE   H3R19184   3.323   2.080   6.607  0.4887 -0.0837 -0.1957
  170SOPE   H3S19185   3.177   2.154   6.671 -0.0386  2.8720 -1.1359
  170SOPE   C2419186   3.330   2.121   6.823 -0.2223  0.2107 -0.7567
  170SOPE   H4R19187   3.332   2.218   6.876 -0.1480  0.1425 -0.6335
  170SOPE   H4S19188   3.257   2.050   6.868 -1.3559 -0.3914 -3.3401
  170SOPE   C2519189   3.465   2.047   6.824  0.4544 -0.5340 -0.5260
  170SOPE   H5R19190   3.443   1.953   6.770 -2.8873 -0.3353  0.2946
  170SOPE   H5S19191   3.544   2.111   6.779  1.0988 -0.0127  1.2405
  170SOPE   C2619192   3.504   2.007   6.969 -0.2670  0.2464 -0.1182
  170SOPE   H6R19193   3.547   2.100   7.011  1.1231 -0.3619 -0.1655
  170SOPE   H6S19194   3.415   1.971   7.025 -0.1066  1.5886  1.0521
  170SOPE   C2719195   3.609   1.888   6.969  0.2466 -0.1573 -0.3906
  170SOPE   H7R19196   3.565   1.788   6.948  0.4894 -0.6751  1.4119
  170SOPE   H7S19197   3.669   1.900   6.876  0.7567  0.1654 -0.0215
  170SOPE   C2819198   3.696   1.867   7.089 -0.2695 -0.0186 -0.5253
  170SOPE   H8R19199   3.743   1.767   7.081 -0.8080 -0.2604 -0.7252
  170SOPE   H8S19200   3.771   1.949   7.089 -2.0362  1.6451  0.2867
  170SOPE   C2919201   3.610   1.865   7.214  0.2427  0.1445 -0.1494
  170SOPE   H9119202   3.514   1.812   7.210  0.6554 -0.5417 -2.3122
  170SOPE  C21019203   3.649   1.910   7.331 -0.2944 -0.0297 -0.7414
  170SOPE  H10119204   3.580   1.899   7.416  0.1070 -0.8997 -0.5243
  170SOPE  C21119205   3.780   1.977   7.365  0.5732 -0.9343 -0.1932
  170SOPE  H11R19206   3.757   2.082   7.393  1.6270 -0.4941 -0.8797
  170SOPE  H11S19207   3.851   1.986   7.280  0.2546 -1.0454 -0.4674
  170SOPE  C21219208   3.858   1.911   7.481  0.3759 -0.4685  0.4459
  170SOPE  H12R19209   3.961   1.951   7.477  0.5372 -0.9698 -2.8008
  170SOPE  H12S19210   3.873   1.802   7.465 -1.1002 -0.3881 -2.0322
  170SOPE  C21319211   3.800   1.949   7.624 -0.3354  0.5963  0.2094
  170SOPE  H13R19212   3.701   1.899   7.619 -0.0555  0.0249  0.2323
  170SOPE  H13S19213   3.792   2.059   7.626  1.6256  0.8158 -0.9301
  170SOPE  C21419214   3.881   1.880   7.743  0.4927  0.7476  0.6825
  170SOPE  H14R19215   3.988   1.910   7.737  0.2558  1.5218  0.0381
  170SOPE  H14S19216   3.879   1.770   7.735  1.0379  0.8426 -1.5439
  170SOPE  C21519217   3.815   1.914   7.873  0.2179  0.9164 -1.1722
  170SOPE  H15R19218   3.708   1.893   7.852 -0.3903  0.8010  1.6127
  170SOPE  H15S19219   3.825   2.023   7.892  0.4354  1.1300 -2.3859
  170SOPE  C21619220   3.857   1.833   7.993  0.6615 -0.0466 -0.5195
  170SOPE  H16R19221   3.963   1.841   8.026  0.0367  2.4495  1.2125
  170SOPE  H16S19222   3.831   1.729   7.965 -1.8094  0.3521  0.0971
  170SOPE  C21719223   3.776   1.856   8.120  0.2074 -0.4328  0.3064
  170SOPE  H17R19224   3.813   1.788   8.200 -0.5228 -0.1958  0.8537
  170SOPE  H17S19225   3.668   1.842   8.097  0.2539  1.0454 -0.9775
  170SOPE  C21819226   3.798   1.991   8.181  0.2781 -0.6939  0.6037
  170SOPE  H18R19227   3.779   2.082   8.120  1.8607 -1.3447 -0.9346
  170SOPE  H18S19228   3.906   1.993   8.207  0.4139  1.3440  0.0359
  170SOPE  H18T19229   3.739   1.998   8.276  0.8551  0.1552  0.9080
  170SOPE   C3319230   2.801   2.229   6.716 -0.0751  0.2255 -0.5116
  170SOPE   H3X19231   2.814   2.132   6.664 -1.9700 -0.9830  1.0897
  170SOPE   H3Y19232   2.719   2.199   6.785 -1.1227  0.1926 -1.7407
  170SOPE   C3419233   2.915   2.267   6.811 -0.3348  0.2599  0.4932
  170SOPE   H4X19234   2.897   2.366   6.858 -1.6907 -0.3293  1.2751
  170SOPE   H4Y19235   3.007   2.264   6.749  0.3920  1.3765  1.4892
  170SOPE   C3519236   2.935   2.163   6.926 -0.0582  0.0527  1.0478
  170SOPE   H5X19237   2.962   2.063   6.885 -1.0132  0.0648  0.3603
  170SOPE   H5Y19238   2.831   2.147   6.961 -1.8137  1.7522 -2.7467
  170SOPE   C3619239   3.020   2.212   7.045 -0.2042 -0.3593 -0.2359
  170SOPE   H6X19240   2.967   2.296   7.094  0.9767 -0.7158  1.7935
  170SOPE   H6Y19241   3.111   2.269   7.014  0.0327 -0.1601  0.8019
  170SOPE   C3719242   3.029   2.099   7.145  0.2422  0.8429 -0.4535
  170SOPE   H7X19243   3.094   2.022   7.098 -0.2360 -1.0216  1.7713
  170SOPE   H7Y19244   2.937   2.046   7.178 -0.2188  1.4384 -0.7474
  170SOPE   C3819245   3.105   2.151   7.272 -0.2881 -0.3813 -0.3826
  170SOPE   H8X19246   3.184   2.225   7.247 -2.1930  1.4476 -1.2733
  170SOPE   H8Y19247   3.157   2.062   7.313 -0.7608 -1.5142 -2.1428
  170SOPE   C3919248   3.017   2.211   7.384  0.3542  0.7021 -0.4662
  170SOPE   H9X19249   2.941   2.274   7.332  0.2770  1.3141  0.3728
  170SOPE   H9Y19250   3.080   2.276   7.448 -0.9079 -1.5262  3.3320
  170SOPE  C31019251   2.956   2.096   7.471  0.0045 -0.1951  0.2589
  170SOPE  H10X19252   3.033   2.057   7.540 -0.2994  0.1205  0.7833
  170SOPE  H10Y19253   2.924   2.018   7.398  0.9078 -0.6183  0.3124
  170SOPE  C31119254   2.836   2.146   7.550 -0.3055 -0.7624  0.4430
  170SOPE  H11X19255   2.800   2.062   7.613 -1.0218 -1.1438 -0.4441
  170SOPE  H11Y19256   2.758   2.180   7.478  0.3936 -0.5797 -0.2461
  170SOPE  C31219257   2.883   2.250   7.656  0.3940 -0.0014 -0.9128
  170SOPE  H12X19258   2.916   2.339   7.600  1.3643 -0.3164 -0.8606
  170SOPE  H12Y19259   2.971   2.202   7.705  0.4252 -1.9958 -2.7524
  170SOPE  C31319260   2.759   2.290   7.742  0.6126 -0.3318 -1.0539
  170SOPE  H13X19261   2.721   2.194   7.781  2.1399 -0.2005  0.9254
  170SOPE  H13Y19262   2.674   2.341   7.692  1.9096  0.9997 -1.9948
  170SOPE  C31419263   2.809   2.376   7.860  0.0689  0.1631  0.4096
  170SOPE  H14X19264   2.902   2.328   7.897  0.9830  1.8817  0.4277
  170SOPE  H14Y19265   2.725   2.362   7.931 -0.0668 -0.4422  0.1426
  170SOPE  C31519266   2.838   2.522   7.833 -0.9228 -0.4764 -0.1808
  170SOPE  H15X19267   2.758   2.555   7.764  0.4046  2.3957 -0.5003
  170SOPE  H15Y19268   2.924   2.534   7.764  0.1443 -0.9377  1.0261
  170SOPE  C31619269   2.850   2.612   7.961 -0.7451  0.6352  0.0156
  170SOPE  H16X19270   2.868   2.715   7.925  2.4059 -0.3703 -1.6370
  170SOPE  H16Y19271   2.944   2.587   8.013 -2.0929  1.0380  2.8224
  170SOPE  C31719272   2.756   2.598   8.082  0.6548  0.4533 -0.0873
  170SOPE  H17X19273   2.746   2.492   8.112 -1.2472  0.2229 -1.2866
  170SOPE  H17Y19274   2.647   2.602   8.059  0.7868 -3.2980 -2.1960
  170SOPE  C31819275   2.786   2.698   8.201  0.0823  0.1165  0.4983
  170SOPE  H18X19276   2.877   2.653   8.247 -0.1062 -0.5691  0.2059
  170SOPE  H18Y19277   2.701   2.690   8.273 -0.8201 -1.9354 -0.7219
  170SOPE  H18Z19278   2.799   2.803   8.167  1.8820 -0.6252 -1.3120
  171SOPE     N19279   0.614   5.489   6.453  0.6391 -0.6884  0.0771
  171SOPE   HN119280   0.640   5.545   6.369 -2.6135 -0.1047 -0.6600
  171SOPE   HN219281   0.705   5.477   6.502  0.8875 -0.7798 -0.3957
  171SOPE   HN319282   0.578   5.396   6.424 -1.5081  0.1741 -0.1967
  171SOPE   C1219283   0.500   5.573   6.519 -0.4128  0.0240 -0.3830
  171SOPE  H12A19284   0.487   5.533   6.622  1.2885 -1.1499 -0.5802
  171SOPE  H12B19285   0.408   5.555   6.460  0.1853 -0.8784 -1.0619
  171SOPE   C1119286   0.529   5.728   6.535  0.0432  0.2656  0.2534
  171SOPE  H11A19287   0.595   5.752   6.621 -1.7031 -0.6198  1.9080
  171SOPE  H11B19288   0.436   5.788   6.543  1.1602  2.0139  0.6569
  171SOPE     P19289   0.560   5.897   6.329 -0.1184  0.3159  0.0820
  171SOPE   O1319290   0.411   5.914   6.323 -0.2738  1.2422 -0.0615
  171SOPE   O1419291   0.616   5.865   6.196  0.0258 -0.2430 -0.3009
  171SOPE   O1219292   0.605   5.769   6.419 -0.2511 -0.3913  0.1936
  171SOPE   O1119293   0.649   6.021   6.397 -0.7111  0.4750 -0.6322
  171SOPE    C119294   0.786   5.991   6.434  0.6933 -0.0177 -0.4008
  171SOPE    HA19295   0.851   6.058   6.374  0.0800 -0.0768 -1.1533
  171SOPE    HB19296   0.817   5.884   6.431 -0.4123 -0.3577 -0.1196
  171SOPE    C219297   0.800   6.013   6.589 -0.4967  0.0598  0.1504
  171SOPE    HS19298   0.724   5.956   6.646  0.2789 -0.0329  1.1266
  171SOPE   O2119299   0.791   6.156   6.613  0.8589  0.5229  0.4373
  171SOPE   C2119300   0.761   6.189   6.741 -0.0524 -0.2329  0.4416
  171SOPE   O2219301   0.719   6.113   6.823  0.6137 -0.0655 -0.2355
  171SOPE   C2219302   0.790   6.328   6.769  0.2146 -0.3117  0.0485
  171SOPE   H2R19303   0.704   6.380   6.723  1.1388  0.8307 -0.4122
  171SOPE   H2S19304   0.883   6.346   6.711 -0.1081  0.1663 -0.3185
  171SOPE    C319305   0.937   5.958   6.634 -0.2516  0.3434 -0.5360
  171SOPE    HX19306   1.014   6.033   6.607 -0.3393 -0.1880 -2.4123
  171SOPE    HY19307   0.970   5.865   6.582  2.3167 -0.1276  1.7097
  171SOPE   O3119308   0.945   5.935   6.779  0.1738 -0.1540  0.0191
  171SOPE   C3119309   0.891   5.816   6.820  0.1679  0.7109  0.4042
  171SOPE   O3219310   0.838   5.737   6.744  0.3979 -0.3540 -0.2315
  171SOPE   C3219311   0.931   5.790   6.968 -0.0345 -0.2052 -0.3626
  171SOPE   H2X19312   1.028   5.736   6.966  0.3478  0.2805  1.9563
  171SOPE   H2Y19313   0.857   5.718   7.009  0.6955 -1.0862 -0.5598
  171SOPE   C2319314   0.809   6.363   6.915 -0.0520 -0.6672  0.1386
  171SOPE   H3R19315   0.714   6.351   6.971 -0.9185 -0.2215 -1.1841
  171SOPE   H3S19316   0.818   6.473   6.915 -0.2415 -0.6149 -1.5843
  171SOPE   C2419317   0.916   6.284   6.979 -0.5186  0.1812 -0.3630
  171SOPE   H4R19318   0.902   6.174   6.988 -3.4051  0.5476  0.7438
  171SOPE   H4S19319   1.003   6.305   6.914  1.1332 -0.0467  1.6668
  171SOPE   C2519320   0.952   6.342   7.114 -0.5543 -0.3656  0.2943
  171SOPE   H5R19321   1.059   6.324   7.137 -0.3476  1.8864  1.4252
  171SOPE   H5S19322   0.955   6.453   7.116 -0.3720 -0.3186 -1.4974
  171SOPE   C2619323   0.858   6.294   7.229 -0.2546 -0.2592 -0.0742
  171SOPE   H6R19324   0.754   6.326   7.209  0.4832  1.8470 -0.8746
  171SOPE   H6S19325   0.849   6.184   7.224 -1.2454 -0.2314  0.6826
  171SOPE   C2719326   0.904   6.333   7.368 -0.6086  0.8098 -0.0732
  171SOPE   H7R19327   1.003   6.291   7.397 -0.2797  1.5842 -0.0446
  171SOPE   H7S19328   0.910   6.444   7.364  1.3080  0.7197 -1.1380
  171SOPE   C2819329   0.798   6.289   7.475 -0.1323 -0.6411 -0.5828
  171SOPE   H8R19330   0.800   6.349   7.569 -0.5853 -0.5086 -0.6551
  171SOPE   H8S19331   0.694   6.314   7.446 -0.1211  2.0851  1.3896
  171SOPE   C2919332   0.809   6.140   7.505  1.0892 -0.7868 -0.4287
  171SOPE   H9119333   0.772   6.066   7.433  1.3644 -2.8501  1.4172
  171SOPE  C21019334   0.891   6.098   7.598  0.1558 -0.3371 -0.3901
  171SOPE  H10119335   0.898   5.989   7.615  1.0428 -0.3181 -0.5887
  171SOPE  C21119336   0.978   6.185   7.686 -0.1268 -1.0339 -0.0611
  171SOPE  H11R19337   0.998   6.283   7.638 -1.0244 -0.2016  1.2097
  171SOPE  H11S19338   1.078   6.140   7.707  1.2647  1.7125 -0.3749
  171SOPE  C21219339   0.913   6.225   7.815 -0.9055 -0.2085  0.5175
  171SOPE  H12R19340   0.808   6.260   7.806 -1.9450 -3.3470 -0.8437
  171SOPE  H12S19341   0.971   6.295   7.879 -0.1617 -1.9013  1.7672
  171SOPE  C21319342   0.881   6.095   7.898  0.5136  0.8721 -0.6740
  171SOPE  H13R19343   0.807   6.035   7.841 -0.0026  0.5937  0.2676
  171SOPE  H13S19344   0.847   6.120   8.000 -2.3604  0.5838 -1.4759
  171SOPE  C21419345   0.996   5.996   7.923 -0.0055 -0.0460  0.6334
  171SOPE  H14R19346   1.028   5.974   7.819 -1.0488  0.1253  0.2676
  171SOPE  H14S19347   0.963   5.906   7.978 -2.4999 -0.4069 -1.2921
  171SOPE  C21519348   1.113   6.051   8.012 -0.5730 -0.2561 -0.4930
  171SOPE  H15R19349   1.083   6.152   8.048  0.7307 -0.0912  0.1859
  171SOPE  H15S19350   1.195   6.080   7.943  1.7154 -2.5483  1.0679
  171SOPE  C21619351   1.178   5.966   8.120 -0.4975  0.4744 -0.8975
  171SOPE  H16R19352   1.191   5.858   8.097  1.5719  0.3908  0.3808
  171SOPE  H16S19353   1.107   5.967   8.205  2.2786  0.3957  1.5763
  171SOPE  C21719354   1.317   6.015   8.172  0.2760 -0.4970 -0.6811
  171SOPE  H17R19355   1.315   6.123   8.195 -1.5255 -0.8563  1.1604
  171SOPE  H17S19356   1.390   5.993   8.092 -1.7651 -1.1148 -2.4715
  171SOPE  C21819357   1.349   5.948   8.303 -0.0707  0.1656  0.1741
  171SOPE  H18R19358   1.336   5.838   8.294 -3.4129  0.3779  0.9520
  171SOPE  H18S19359   1.288   5.989   8.386 -0.0286  1.3053 -0.3425
  171SOPE  H18T19360   1.458   5.964   8.320 -0.3219  0.9639  1.1164
  171SOPE   C3319361   0.929   5.918   7.067 -0.0892  0.1063  0.3836
  171SOPE   H3X19362   0.822   5.949   7.077  0.0813  0.4035  1.4315
  171SOPE   H3Y19363   0.986   6.001   7.020 -0.1353 -1.1138 -1.9961
  171SOPE   C3419364   0.976   5.881   7.206 -0.1477  0.1465 -1.0233
  171SOPE   H4X19365   0.912   5.793   7.230  1.7052 -0.7354  1.0134
  171SOPE   H4Y19366   0.959   5.969   7.271  0.7576 -0.5240  0.1507
  171SOPE   C3519367   1.122   5.842   7.205 -0.4278  0.8333 -0.7059
  171SOPE   H5X19368   1.178   5.932   7.171  2.0108 -1.1703 -2.4418
  171SOPE   H5Y19369   1.165   5.774   7.128  0.8250  0.4512  0.2776
  171SOPE   C3619370   1.176   5.807   7.347  0.3276  0.0278 -0.7730
  171SOPE   H6X19371   1.115   5.861   7.423  1.0250 -0.9774  0.5556
  171SOPE   H6Y19372   1.284   5.825   7.360  0.6702  1.0560 -4.0935
  171SOPE   C3719373   1.140   5.662   7.385 -0.3667  0.6812 -0.0821
  171SOPE   H7X19374   1.193   5.597   7.313  1.0585 -0.2421  1.7089
  171SOPE   H7Y19375   1.030   5.655   7.378 -0.3729  1.3464 -0.7783
  171SOPE   C3819376   1.177   5.626   7.528  0.0977 -0.0211 -0.9495
  171SOPE   H8X19377   1.283   5.657   7.532 -0.3242  1.3962  0.0970
  171SOPE   H8Y19378   1.167   5.516   7.541 -2.7542  0.0966 -1.4169
  171SOPE   C3919379   1.094   5.701   7.635  0.2232 -0.0425  0.5907
  171SOPE   H9X19380   0.999   5.732   7.587  0.1142  1.7405  1.8087
  171SOPE   H9Y19381   1.155   5.793   7.650  3.1171 -1.3183 -2.2105
  171SOPE  C31019382   1.075   5.634   7.769  0.4230  0.0968  0.1564
  171SOPE  H10X19383   1.002   5.552   7.752  2.2501 -1.6487  0.2899
  171SOPE  H10Y19384   1.044   5.711   7.842  0.9308  1.7037 -1.2504
  171SOPE  C31119385   1.204   5.568   7.831  0.0236  0.2348 -0.7834
  171SOPE  H11X19386   1.246   5.475   7.788  1.1157  1.0848 -1.6243
  171SOPE  H11Y19387   1.168   5.531   7.929 -0.0053 -0.6078 -1.1103
  171SOPE  C31219388   1.315   5.667   7.858 -0.1164  0.5079 -0.4842
  171SOPE  H12X19389   1.258   5.743   7.916 -0.9427 -1.3017  1.2013
  171SOPE  H12Y19390   1.352   5.705   7.760 -1.1380  0.1587 -1.0117
  171SOPE  C31319391   1.431   5.612   7.944  0.7413  0.2781 -0.2606
  171SOPE  H13X19392   1.494   5.535   7.894  2.1461  0.9318  0.4694
  171SOPE  H13Y19393   1.393   5.560   8.034 -1.2671  1.2472 -0.4919
  171SOPE  C31419394   1.524   5.715   8.001  0.9796 -1.3036  0.0280
  171SOPE  H14X19395   1.617   5.663   8.032  1.7520 -0.6794 -1.1799
  171SOPE  H14Y19396   1.481   5.768   8.089  3.2636  0.5215  0.1610
  171SOPE  C31519397   1.571   5.829   7.901  0.0618  0.4200 -0.5637
  171SOPE  H15X19398   1.479   5.877   7.861  0.1187  0.0466 -1.1462
  171SOPE  H15Y19399   1.633   5.789   7.819  0.7923 -0.3104  0.3246
  171SOPE  C31619400   1.648   5.936   7.980 -0.3751 -0.1592  0.8800
  171SOPE  H16X19401   1.595   5.959   8.075 -1.2371  0.6014  0.2384
  171SOPE  H16Y19402   1.655   6.022   7.909  2.7311 -1.8148 -1.0465
  171SOPE  C31719403   1.794   5.894   8.008  0.5942  0.5918  0.0792
  171SOPE  H17X19404   1.797   5.808   8.078  1.0487 -0.0926 -0.7673
  171SOPE  H17Y19405   1.840   5.971   8.074 -2.3938  0.5236  2.4858
  171SOPE  C31819406   1.881   5.864   7.884 -0.2988 -0.1352  0.3165
  171SOPE  H18X19407   1.984   5.834   7.913  0.7155  2.4308 -0.3800
  171SOPE  H18Y19408   1.886   5.957   7.825  1.1167  0.8711  1.9312
  171SOPE  H18Z19409   1.833   5.780   7.830  0.4427  0.3722 -1.1722
  172SOPE     N19410   4.877   6.370   6.338  0.3771  0.6043  0.0700
  172SOPE   HN119411   4.826   6.279   6.331  2.8563 -0.9946  1.1972
  172SOPE   HN219412   4.969   6.347   6.296  0.5068 -0.3779  0.8351
  172SOPE   HN319413   4.875   6.390   6.440 -0.7551 -0.6729  0.3382
  172SOPE   C1219414   4.806   6.473   6.263 -0.0049  0.0148 -0.0396
  172SOPE  H12A19415   4.716   6.500   6.324  0.3724 -0.2635  0.6593
  172SOPE  H12B19416   4.783   6.444   6.159 -0.8044  0.3876  0.0251
  172SOPE   C1119417   4.901   6.596   6.250  0.2258 -0.5431 -0.4564
  172SOPE  H11A19418   4.874   6.648   6.155  1.3462  1.1386  0.0961
  172SOPE  H11B19419   5.008   6.578   6.228 -0.0509 -2.1611 -0.6007
  172SOPE     P19420   4.799   6.805   6.368 -0.2283  0.0866 -0.2967
  172SOPE   O1319421   4.696   6.795   6.266 -0.0343  0.3612  0.0402
  172SOPE   O1419422   4.907   6.908   6.360  0.1353 -0.0045  0.4018
  172SOPE   O1219423   4.878   6.673   6.366  0.6071 -0.0966 -0.1274
  172SOPE   O1119424   4.722   6.810   6.501  0.1329  0.6629 -0.1196
  172SOPE    C119425   4.745   6.723   6.617  0.3556  0.3715 -0.3073
  172SOPE    HA19426   4.848   6.684   6.627  0.2860  0.7031  2.6601
  172SOPE    HB19427   4.688   6.630   6.597 -0.4477  0.5268  1.0722
  172SOPE    C219428   4.697   6.785   6.752 -0.2882  0.7315 -0.0570
  172SOPE    HS19429   4.730   6.716   6.832  0.1678 -1.3611 -1.9671
  172SOPE   O2119430   4.551   6.799   6.762 -0.4126  0.0652  0.5698
  172SOPE   C2119431   4.475   6.698   6.763 -1.5343 -0.8803  0.1386
  172SOPE   O2219432   4.517   6.582   6.774 -0.4601 -0.4740 -0.3343
  172SOPE   C2219433   4.326   6.743   6.779 -1.0768  0.2875 -0.7295
  172SOPE   H2R19434   4.257   6.658   6.766 -0.7679  0.1952 -1.9459
  172SOPE   H2S19435   4.307   6.823   6.704  0.3021 -1.3711 -2.9656
  172SOPE    C319436   4.763   6.922   6.792 -0.3423 -0.2285  0.2542
  172SOPE    HX19437   4.725   6.955   6.891 -0.2066 -0.6828  0.4568
  172SOPE    HY19438   4.722   6.989   6.713  1.7106 -0.6359 -1.2507
  172SOPE   O3119439   4.910   6.912   6.792 -0.1092  0.4935  0.5842
  172SOPE   C3119440   4.959   7.030   6.796 -0.4627  0.1216 -0.2575
  172SOPE   O3219441   4.888   7.128   6.782 -0.3132  0.2142  0.2185
  172SOPE   C3219442   5.111   7.031   6.816  0.0039 -0.1528  0.7218
  172SOPE   H2X19443   5.153   7.127   6.778 -0.3029  0.2485  1.3809
  172SOPE   H2Y19444   5.150   6.955   6.745 -1.2675 -1.1036  1.0170
  172SOPE   C2319445   4.291   6.824   6.915 -0.3007  0.3271  0.4725
  172SOPE   H3R19446   4.192   6.873   6.901  0.7418  1.7973 -2.7259
  172SOPE   H3S19447   4.372   6.899   6.928  0.0023  0.3017 -1.0764
  172SOPE   C2419448   4.292   6.730   7.032  0.2453  0.2440  0.8324
  172SOPE   H4R19449   4.207   6.658   7.029  0.0781  0.3802  1.8678
  172SOPE   H4S19450   4.383   6.668   7.021  0.3180  0.1898  1.6971
  172SOPE   C2519451   4.294   6.801   7.170 -0.0885 -0.6612 -0.3391
  172SOPE   H5R19452   4.383   6.867   7.176 -0.4723  0.0235 -1.8497
  172SOPE   H5S19453   4.206   6.869   7.179  1.2670  1.2596 -1.1750
  172SOPE   C2619454   4.292   6.697   7.290  0.1897 -0.0634 -0.3417
  172SOPE   H6R19455   4.197   6.640   7.280 -1.0790  1.9809 -0.6437
  172SOPE   H6S19456   4.383   6.635   7.295  1.2830  1.5429  2.7800
  172SOPE   C2719457   4.288   6.757   7.426 -0.2072  0.3565  0.1426
  172SOPE   H7R19458   4.380   6.819   7.436 -0.0232 -0.0910  1.4597
  172SOPE   H7S19459   4.190   6.810   7.425 -0.2657  0.2507 -1.3678
  172SOPE   C2819460   4.292   6.654   7.536 -0.3474 -0.1545 -0.4094
  172SOPE   H8R19461   4.188   6.646   7.575 -0.6685 -0.0260 -1.2383
  172SOPE   H8S19462   4.330   6.555   7.504  2.0748  0.1398  1.2922
  172SOPE   C2919463   4.378   6.700   7.652  0.3615 -0.0572 -0.4795
  172SOPE   H9119464   4.474   6.737   7.615  0.0639  0.3309 -0.8636
  172SOPE  C21019465   4.348   6.689   7.788 -0.2395 -0.5055  0.4163
  172SOPE  H10119466   4.416   6.735   7.861 -1.0010  0.9952  0.2157
  172SOPE  C21119467   4.220   6.634   7.853  0.7059  0.4459  0.7326
  172SOPE  H11R19468   4.167   6.560   7.790  0.3894  2.0425 -0.9518
  172SOPE  H11S19469   4.154   6.723   7.857 -0.0080 -0.0432  0.0144
  172SOPE  C21219470   4.250   6.568   7.991 -0.4288 -0.4618  0.8210
  172SOPE  H12R19471   4.153   6.532   8.032 -1.1636  0.4707 -0.0435
  172SOPE  H12S19472   4.295   6.643   8.059  1.8206  1.7615 -2.7882
  172SOPE  C21319473   4.341   6.443   7.982 -0.5959 -0.1417 -0.0514
  172SOPE  H13R19474   4.440   6.479   7.949 -0.7724  0.3107 -0.0943
  172SOPE  H13S19475   4.295   6.371   7.910  2.5431 -1.4272 -0.9130
  172SOPE  C21419476   4.376   6.378   8.115 -0.3783  0.0210 -0.8032
  172SOPE  H14R19477   4.432   6.285   8.092 -0.4381 -1.2137  3.2350
  172SOPE  H14S19478   4.288   6.333   8.166 -0.3440  0.9266  0.0871
  172SOPE  C21519479   4.463   6.458   8.215  0.0660 -0.6398 -0.4912
  172SOPE  H15R19480   4.444   6.415   8.316 -0.2945  0.1548 -0.2131
  172SOPE  H15S19481   4.441   6.567   8.227 -0.7207 -0.6796 -1.4203
  172SOPE  C21619482   4.608   6.439   8.194  0.5301 -0.4754  0.4078
  172SOPE  H16R19483   4.653   6.508   8.119 -0.8629 -1.9255 -1.8925
  172SOPE  H16S19484   4.618   6.337   8.149  0.0269 -0.6705  0.7324
  172SOPE  C21719485   4.690   6.460   8.327  0.3145 -0.3057  0.1049
  172SOPE  H17R19486   4.655   6.393   8.408 -2.1655 -1.3134 -1.6857
  172SOPE  H17S19487   4.687   6.566   8.359 -0.6550 -0.5820  0.9833
  172SOPE  C21819488   4.842   6.434   8.323  0.7546 -0.0602 -0.4021
  172SOPE  H18R19489   4.890   6.476   8.415 -2.0112 -1.1945  1.7138
  172SOPE  H18S19490   4.878   6.483   8.231 -0.0236  1.1338 -0.0908
  172SOPE  H18T19491   4.855   6.324   8.309 -0.3180 -0.1241 -0.9724
  172SOPE   C3319492   5.163   7.005   6.956 -0.4782 -0.7222 -0.1025
  172SOPE   H3X19493   5.272   6.982   6.948 -0.6145 -1.2781 -0.4851
  172SOPE   H3Y19494   5.109   6.923   7.008  0.5313  0.0850  2.3699
  172SOPE   C3419495   5.140   7.134   7.047  0.0483  0.0173  0.9703
  172SOPE   H4X19496   5.036   7.172   7.034  1.1851  2.4488 -2.9301
  172SOPE   H4Y19497   5.215   7.212   7.023 -0.9248  1.4326  2.3537
  172SOPE   C3519498   5.168   7.102   7.194  0.0018 -0.6492 -0.3251
  172SOPE   H5X19499   5.187   7.204   7.235  1.2967 -0.1896 -1.9319
  172SOPE   H5Y19500   5.262   7.044   7.204  1.6521  1.5789 -1.7697
  172SOPE   C3619501   5.040   7.051   7.273  0.0747 -0.0565  0.2966
  172SOPE   H6X19502   4.995   6.972   7.209 -0.4079  0.6701 -0.2805
  172SOPE   H6Y19503   4.978   7.143   7.268  0.4643  0.2107  0.2634
  172SOPE   C3719504   5.067   7.001   7.420 -0.1846  0.3589  0.6951
  172SOPE   H7X19505   5.122   6.906   7.407  0.0356  0.4972  0.6116
  172SOPE   H7Y19506   4.963   6.984   7.457 -0.3873  0.7070  0.3027
  172SOPE   C3819507   5.134   7.104   7.513  0.5490  0.6865  0.3831
  172SOPE   H8X19508   5.069   7.192   7.495  0.2267 -0.1491 -3.2874
  172SOPE   H8Y19509   5.234   7.127   7.470  0.9898  0.5849  1.3342
  172SOPE   C3919510   5.150   7.040   7.645 -0.3306 -0.2439 -0.0456
  172SOPE   H9X19511   5.232   6.966   7.644 -0.9053 -0.8930  0.2447
  172SOPE   H9Y19512   5.059   6.981   7.672 -0.3549  0.3292  1.1855
  172SOPE  C31019513   5.150   7.150   7.754 -0.5764 -0.3747 -0.1462
  172SOPE  H10X19514   5.047   7.185   7.777  0.3611  2.1691  0.5464
  172SOPE  H10Y19515   5.221   7.233   7.735 -1.6586  0.9965  1.5591
  172SOPE  C31119516   5.207   7.096   7.886 -0.7038 -0.0217  0.2447
  172SOPE  H11X19517   5.171   6.992   7.898  0.4681 -0.9162 -2.9619
  172SOPE  H11Y19518   5.170   7.164   7.966 -0.4794 -0.6996  0.9417
  172SOPE  C31219519   5.364   7.087   7.898  0.0896 -0.1087 -0.7485
  172SOPE  H12X19520   5.396   7.193   7.893  2.0815 -0.4755  1.9492
  172SOPE  H12Y19521   5.394   7.038   7.803  1.2617 -0.1840 -0.3530
  172SOPE  C31319522   5.413   6.997   8.010  0.2628 -0.3144 -0.4188
  172SOPE  H13X19523   5.516   6.975   7.974 -0.1261 -0.5056 -1.4427
  172SOPE  H13Y19524   5.349   6.907   8.014 -0.0690 -0.3428 -3.7496
  172SOPE  C31419525   5.427   7.082   8.141 -0.0014  0.0506  0.1992
  172SOPE  H14X19526   5.331   7.130   8.167  1.4480  2.3146  1.6962
  172SOPE  H14Y19527   5.499   7.160   8.109 -0.3492 -0.2719 -1.4387
  172SOPE  C31519528   5.482   6.996   8.262 -0.2178 -0.1270  0.1598
  172SOPE  H15X19529   5.582   6.956   8.234 -1.3287 -2.1384 -1.1878
  172SOPE  H15Y19530   5.417   6.910   8.288 -0.3803  0.0026  0.1815
  172SOPE  C31619531   5.490   7.069   8.393  0.8688 -0.7720 -0.2375
  172SOPE  H16X19532   5.389   7.109   8.418  0.8907 -0.3709 -0.7717
  172SOPE  H16Y19533   5.553   7.159   8.378 -1.2767  0.8832  0.1572
  172SOPE  C31719534   5.552   7.003   8.517 -0.8778 -0.0573 -0.0758
  172SOPE  H17X19535   5.539   7.069   8.606  1.2582 -0.8547  0.9183
  172SOPE  H17Y19536   5.661   6.987   8.503 -0.4016  2.4590  0.1486
  172SOPE  C31819537   5.488   6.866   8.548  0.0297  0.1100 -0.1379
  172SOPE  H18X19538   5.505   6.827   8.650 -4.2450 -3.7200 -0.5703
  172SOPE  H18Y19539   5.519   6.796   8.467 -2.8849  0.0670 -1.3591
  172SOPE  H18Z19540   5.378   6.878   8.535  0.2097  0.0712 -2.0231
  173SAPI   C1219541   2.790   4.228  10.719 -0.1782  0.3241 -0.5560
  173SAPI    H219542   2.754   4.171  10.630 -0.3759 -0.9293  0.2992
  173SAPI    O219543   2.689   4.311  10.761 -0.0169  0.1707 -0.5166
  173SAPI   HO219544   2.709   4.398  10.726 -0.6265  0.4341 -0.2360
  173SAPI   C1319545   2.812   4.124  10.829 -0.4935 -0.3597  0.2228
  173SAPI    H319546   2.892   4.051  10.802  0.2894 -0.7881  3.2710
  173SAPI    O319547   2.696   4.044  10.853 -0.5288  0.0934 -0.2696
  173SAPI   HO319548   2.619   4.098  10.871 -0.4545 -0.3753  1.7219
  173SAPI   C1419549   2.878   4.193  10.955  0.3089  0.1683  0.3645
  173SAPI    H419550   2.808   4.260  11.009  0.3641 -1.2939  2.3475
  173SAPI    O419551   2.901   4.091  11.055 -0.0549 -0.0832  0.0230
  173SAPI   HO419552   2.891   4.133  11.141 -0.4112  0.6916 -0.3929
  173SAPI   C1519553   3.003   4.270  10.919 -0.6218  0.0830  0.2108
  173SAPI    H519554   3.070   4.186  10.891 -1.1469 -0.0903 -0.5444
  173SAPI    O519555   3.053   4.332  11.037  0.2015  0.2540 -0.3263
  173SAPI   HO519556   3.014   4.420  11.039 -0.9809 -0.2490 -0.5682
  173SAPI   C1619557   2.980   4.373  10.808  0.0968 -0.0241  0.1002
  173SAPI    H619558   2.909   4.452  10.840  2.3211  2.1067 -0.0037
  173SAPI    O619559   3.103   4.434  10.779  0.4205 -0.3696 -0.0963
  173SAPI   HO619560   3.152   4.370  10.727  0.4440 -1.6443  1.3917
  173SAPI   C1119561   2.919   4.305  10.686 -0.3981  0.2755 -0.5566
  173SAPI    H119562   3.003   4.237  10.661  0.4580 -0.8331  4.3126
  173SAPI     P19563   2.990   4.411  10.461 -0.0310 -0.2915  0.0198
  173SAPI   O1319564   3.129   4.377  10.505 -0.1164  0.4470 -0.1038
  173SAPI   O1419565   2.969   4.544  10.401 -0.0547  0.1363 -0.7766
  173SAPI   O1219566   2.884   4.399  10.585 -0.7628 -0.2627 -0.5240
  173SAPI   O1119567   2.938   4.302  10.360 -0.4126  0.1893  0.1454
  173SAPI    C119568   2.810   4.292  10.314  0.9653  0.3351  0.0150
  173SAPI    HA19569   2.761   4.199  10.351  1.2420  0.3027  0.3052
  173SAPI    HB19570   2.752   4.384  10.339  0.7319  0.2000 -0.0303
  173SAPI    C219571   2.808   4.294  10.160  0.1464  0.3139  0.4761
  173SAPI    HS19572   2.703   4.288  10.122 -0.1490  2.0764  0.9048
  173SAPI   O2119573   2.872   4.176  10.114 -0.5555 -1.0697 -0.2180
  173SAPI   C2119574   2.812   4.068  10.128 -0.5535  0.0916  0.2256
  173SAPI   O2219575   2.696   4.047  10.168  0.5541  0.4437  0.2780
  173SAPI   C2219576   2.917   3.964  10.091 -0.5625 -0.0996  0.4261
  173SAPI   H2R19577   3.015   4.002  10.127  1.2348 -1.5713 -2.4807
  173SAPI   H2S19578   2.895   3.871  10.148 -2.2637 -1.1212 -1.7296
  173SAPI    C319579   2.870   4.423  10.102 -0.7040 -0.1934 -0.1396
  173SAPI    HX19580   2.978   4.414  10.128 -1.1156 -1.3070  1.3366
  173SAPI    HY19581   2.818   4.504  10.157 -0.3128 -0.1145  0.1231
  173SAPI   O3119582   2.852   4.433   9.955 -0.5395  0.1091  0.0673
  173SAPI   C3119583   2.918   4.533   9.907 -0.2206 -0.3552  0.4401
  173SAPI   O3219584   2.970   4.626   9.962  0.1302 -0.3506  0.1235
  173SAPI   C3219585   2.928   4.510   9.758 -0.1009 -0.9879 -0.2411
  173SAPI   H2X19586   2.826   4.518   9.714  0.1613  0.9711 -0.5484
  173SAPI   H2Y19587   2.961   4.404   9.744 -1.8178 -1.6866  0.7183
  173SAPI   C2319588   2.926   3.937   9.934 -0.3716 -0.1691  0.1060
  173SAPI   H3R19589   2.944   4.042   9.900  0.3081  0.4220  2.1445
  173SAPI   H3S19590   2.832   3.896   9.893 -0.0436  0.2277 -1.0857
  173SAPI   C2419591   3.048   3.851   9.896 -0.4371 -0.3049  0.2637
  173SAPI   H4R19592   3.135   3.905   9.940 -0.0274 -0.4096 -0.4167
  173SAPI   H4S19593   3.070   3.859   9.788  2.5430  0.1370  0.8105
  173SAPI   C2519594   3.045   3.704   9.936  0.1771  0.0655 -0.1387
  173SAPI   H5R19595   3.017   3.677  10.039 -0.0376  0.4658 -0.0937
  173SAPI   C2619596   3.076   3.599   9.863 -0.4336  0.3168  0.4115
  173SAPI   H6R19597   3.087   3.504   9.917 -1.0739  0.8061  1.4424
  173SAPI   C2719598   3.119   3.593   9.723  0.2784  0.3900 -0.9038
  173SAPI   H7R19599   3.228   3.575   9.709  0.2389 -1.0484  0.3325
  173SAPI   H7S19600   3.098   3.690   9.673  0.5407  1.2406  0.5680
  173SAPI   C2819601   3.038   3.477   9.661 -0.6893  0.5080 -0.0600
  173SAPI   H8R19602   3.060   3.376   9.700  0.8581  0.2424 -1.5514
  173SAPI   C2919603   2.947   3.491   9.559  0.1914 -0.3615 -0.6464
  173SAPI   H9R19604   2.899   3.399   9.523 -1.6919  0.6537 -0.8874
  173SAPI  C21019605   2.904   3.625   9.500  0.0006  1.0238 -0.6932
  173SAPI  H10R19606   2.820   3.592   9.434  0.3496 -2.1655  0.2810
  173SAPI  H10S19607   2.986   3.671   9.440 -0.8552  3.1602 -0.3046
  173SAPI  C21119608   2.850   3.730   9.595 -0.2599 -0.8672 -1.6666
  173SAPI  H11R19609   2.811   3.692   9.690  0.1545  0.5544 -0.9004
  173SAPI  C21219610   2.830   3.862   9.581 -0.2480  0.7983 -0.5446
  173SAPI  H12R19611   2.791   3.919   9.667  1.6172  1.6023 -0.1698
  173SAPI  C21319612   2.862   3.947   9.464 -0.1388 -0.3091  0.2898
  173SAPI  H13R19613   2.932   3.890   9.400  1.0222  0.7074  0.6273
  173SAPI  H13S19614   2.934   4.017   9.511  1.1932 -2.4501  1.5810
  173SAPI  C21419615   2.759   4.014   9.380 -0.3580 -0.0167  0.3592
  173SAPI  H14R19616   2.666   3.955   9.374 -0.6995  0.5126  0.3183
  173SAPI  C21519617   2.750   4.140   9.341 -0.4443 -0.5640  0.1544
  173SAPI  H15R19618   2.654   4.172   9.299  0.4564  1.7174 -0.3262
  173SAPI  C21619619   2.858   4.246   9.367  0.1259  0.4222  0.1521
  173SAPI  H16R19620   2.883   4.287   9.266 -0.2093  1.0036  0.2968
  173SAPI  H16S19621   2.954   4.198   9.394  0.9513  1.8031 -0.1931
  173SAPI  C21719622   2.815   4.355   9.462 -0.9174  0.0823 -0.8928
  173SAPI  H17R19623   2.913   4.403   9.478 -0.2583 -0.4318 -2.9851
  173SAPI  H17S19624   2.773   4.319   9.558  1.8174 -0.0915  0.3244
  173SAPI  C21819625   2.719   4.443   9.382 -0.1461  0.0149 -0.1417
  173SAPI  H18R19626   2.665   4.509   9.454  1.5727  2.0492 -0.5880
  173SAPI  H18S19627   2.636   4.392   9.330 -0.3887 -0.2779  0.5232
  173SAPI  C21919628   2.786   4.548   9.286 -0.5808  0.6786  0.1116
  173SAPI  H19R19629   2.834   4.502   9.197  0.9940 -0.1054  1.3073
  173SAPI  H19S19630   2.866   4.593   9.347 -1.8259  0.8517  1.6774
  173SAPI  C22019631   2.678   4.653   9.241 -0.2528  0.0733  0.0489
  173SAPI  H20R19632   2.585   4.597   9.218 -1.0229  0.7321  1.4713
  173SAPI  H20S19633   2.711   4.708   9.151  1.6466  2.1561  1.9047
  173SAPI  H20T19634   2.664   4.726   9.323  0.4162 -0.1565  0.3781
  173SAPI   C3319635   3.023   4.614   9.687 -0.7320 -0.3226  0.1638
  173SAPI   H3X19636   3.048   4.583   9.583  0.3397  1.2292 -0.0824
  173SAPI   H3Y19637   3.121   4.615   9.741 -1.5579 -1.6726  1.7680
  173SAPI   C3419638   2.970   4.763   9.680  0.7553 -0.3307  0.4742
  173SAPI   H4X19639   2.963   4.806   9.782 -0.7773  1.9168 -0.5306
  173SAPI   H4Y19640   2.873   4.758   9.626 -0.3703 -1.8816  2.4907
  173SAPI   C3519641   3.071   4.847   9.607  0.0346 -0.5384  0.0200
  173SAPI   H5X19642   3.093   4.796   9.510 -0.5587  1.0611 -0.9931
  173SAPI   H5Y19643   3.167   4.858   9.662 -0.6057 -1.5618  1.3833
  173SAPI   C3619644   3.029   4.989   9.555 -0.5209 -0.5302 -0.4998
  173SAPI   H6X19645   3.046   5.055   9.643  2.0907 -2.6836  0.7625
  173SAPI   H6Y19646   2.924   4.990   9.518 -0.8762 -0.3871  0.4857
  173SAPI   C3719647   3.113   5.049   9.436  0.3287 -0.3833 -0.0405
  173SAPI   H7X19648   3.222   5.033   9.453  0.1345 -1.8369 -0.0587
  173SAPI   H7Y19649   3.094   5.158   9.434  1.8952  0.1505  3.9816
  173SAPI   C3819650   3.078   4.994   9.301 -0.1039  0.2866  1.0065
  173SAPI   H8X19651   2.973   5.023   9.276 -0.5655 -2.6878 -0.9653
  173SAPI   H8Y19652   3.078   4.884   9.291  0.5457  0.4421 -1.4893
  173SAPI   C3919653   3.164   5.061   9.195  0.0482  0.1769  0.8297
  173SAPI   H9X19654   3.232   5.132   9.247  4.0612 -2.7673  0.0792
  173SAPI   H9Y19655   3.110   5.135   9.131  0.2078 -0.1882  0.2659
  173SAPI  C31019656   3.252   4.968   9.102  0.6629 -0.4618 -0.3479
  173SAPI  H10X19657   3.183   4.886   9.070  1.3117 -1.5328  0.9286
  173SAPI  H10Y19658   3.344   4.917   9.138  1.0117  0.2977 -0.1513
  173SAPI  C31119659   3.298   5.047   8.976  0.6995  0.3774 -0.1586
  173SAPI  H11X19660   3.368   5.127   9.007  1.6539 -0.4900 -0.0377
  173SAPI  H11Y19661   3.202   5.091   8.941  1.2872  1.5683 -0.2987
  173SAPI  C31219662   3.366   4.973   8.867 -0.8877 -0.0775 -0.0335
  173SAPI  H12X19663   3.327   4.870   8.853 -2.0008  0.4900 -1.4586
  173SAPI  H12Y19664   3.473   4.960   8.891 -1.0737 -2.3766 -0.1774
  173SAPI  C31319665   3.361   5.045   8.730  0.0324  0.1829 -0.0602
  173SAPI  H13X19666   3.253   5.055   8.707 -0.4377 -3.0404  0.2333
  173SAPI  H13Y19667   3.395   4.975   8.651  0.9578  1.6790 -1.0217
  173SAPI  C31419668   3.435   5.177   8.720 -0.8565 -0.5195 -0.8710
  173SAPI  H14X19669   3.536   5.170   8.766 -1.7169 -0.4606  1.1418
  173SAPI  H14Y19670   3.373   5.252   8.774  0.2171 -0.2407  0.0035
  173SAPI  C31519671   3.447   5.224   8.577  0.5305 -0.0097  1.4173
  173SAPI  H15X19672   3.342   5.216   8.540  0.5457  0.6184  1.2420
  173SAPI  H15Y19673   3.527   5.171   8.522  1.9097 -0.0798  3.3950
  173SAPI  C31619674   3.478   5.367   8.571  1.0363 -0.6791 -0.8832
  173SAPI  H16X19675   3.563   5.407   8.630 -0.1046  1.0671 -0.3478
  173SAPI  H16Y19676   3.387   5.419   8.607  0.5950 -0.0229 -2.8313
  173SAPI  C31719677   3.520   5.418   8.430  0.0173 -0.3585 -0.3484
  173SAPI  H17X19678   3.427   5.422   8.370  1.4557  0.4497 -2.6674
  173SAPI  H17Y19679   3.587   5.343   8.383 -1.3095 -1.4425 -0.5455
  173SAPI  C31819680   3.599   5.554   8.427 -0.0592 -0.1976 -0.7791
  173SAPI  H18X19681   3.575   5.630   8.504 -0.7229 -0.5271 -0.6523
  173SAPI  H18Y19682   3.585   5.608   8.331 -0.0086  1.6493  0.2057
  173SAPI  H18Z19683   3.708   5.543   8.447  0.0486 -0.7665 -1.6267
  174SAPI   C1219684   5.575   5.424  10.781 -0.0374 -0.1858  0.3794
  174SAPI    H219685   5.631   5.421  10.685 -1.8006 -0.4691 -0.6908
  174SAPI    O219686   5.522   5.293  10.807  0.5202  0.1867 -0.8437
  174SAPI   HO219687   5.450   5.260  10.753 -0.0883 -1.2622  0.7236
  174SAPI   C1319688   5.680   5.465  10.887  0.3238  0.1229 -0.0215
  174SAPI    H319689   5.733   5.560  10.861 -0.1933  0.2015 -0.8181
  174SAPI    O319690   5.785   5.368  10.904  0.1438  0.3913  0.3163
  174SAPI   HO319691   5.748   5.281  10.919  2.2180 -0.9537 -1.5705
  174SAPI   C1419692   5.596   5.487  11.020  0.3858 -0.1395  0.4806
  174SAPI    H419693   5.529   5.401  11.037 -1.7896  1.6238  1.3635
  174SAPI    O419694   5.684   5.517  11.130 -0.0843 -0.2672  0.3441
  174SAPI   HO419695   5.743   5.585  11.096 -0.1790 -0.6320 -0.5730
  174SAPI   C1519696   5.495   5.601  10.999 -0.1373  0.3683  0.0284
  174SAPI    H519697   5.554   5.691  10.974 -0.5741  0.7236  0.2484
  174SAPI    O519698   5.419   5.621  11.126 -0.0669  0.4068  0.4009
  174SAPI   HO519699   5.495   5.609  11.184  2.6730  1.0289 -2.7197
  174SAPI   C1619700   5.391   5.565  10.893 -0.0728  0.8666  0.2360
  174SAPI    H619701   5.328   5.477  10.920  0.2633  0.3722 -0.5645
  174SAPI    O619702   5.310   5.674  10.880 -0.1642 -0.4748  0.4167
  174SAPI   HO619703   5.240   5.657  10.817 -1.5441 -0.4424  1.8837
  174SAPI   C1119704   5.463   5.533  10.768 -0.3315  0.2996  0.4709
  174SAPI    H119705   5.509   5.626  10.727 -1.8891  0.9392  0.0491
  174SAPI     P19706   5.375   5.512  10.508 -0.4501 -0.0424  0.1519
  174SAPI   O1319707   5.263   5.440  10.435 -0.1353 -0.0974  0.6086
  174SAPI   O1419708   5.516   5.480  10.479 -0.6648  0.1062  0.1408
  174SAPI   O1219709   5.350   5.503  10.675 -0.1325  0.5705 -0.1595
  174SAPI   O1119710   5.348   5.665  10.503 -0.2730  0.1893  0.6942
  174SAPI    C119711   5.220   5.724  10.495  0.4452 -0.1356 -0.4367
  174SAPI    HA19712   5.142   5.659  10.539 -0.3454  0.6787 -0.6059
  174SAPI    HB19713   5.223   5.822  10.547  0.2751 -0.4171  0.1073
  174SAPI    C219714   5.177   5.758  10.351 -0.2851  0.4930  0.1948
  174SAPI    HS19715   5.159   5.656  10.311 -1.0593  0.6869  0.0274
  174SAPI   O2119716   5.282   5.838  10.298  0.0503  0.1756  0.4432
  174SAPI   C2119717   5.336   5.789  10.191 -0.0149 -0.1700  0.3240
  174SAPI   O2219718   5.294   5.688  10.139 -1.0434 -0.1690  0.3090
  174SAPI   C2219719   5.472   5.866  10.153 -0.3784 -0.1879  0.6339
  174SAPI   H2R19720   5.435   5.962  10.112 -0.9899 -1.0816 -1.0335
  174SAPI   H2S19721   5.540   5.863  10.241  2.0347 -0.3842 -1.1180
  174SAPI    C319722   5.047   5.842  10.338  0.5811 -0.1865 -0.8762
  174SAPI    HX19723   5.071   5.943  10.377  1.0947  0.2698 -2.2779
  174SAPI    HY19724   4.967   5.807  10.406  0.8119 -0.9765 -1.0079
  174SAPI   O3119725   5.009   5.847  10.201 -1.1702 -0.3351 -0.0015
  174SAPI   C3119726   4.936   5.742  10.167 -0.1082 -0.3212  0.4684
  174SAPI   O3219727   4.922   5.642  10.240  0.0666 -0.0342  0.3454
  174SAPI   C3219728   4.882   5.764  10.026 -0.0230 -0.0658 -0.5033
  174SAPI   H2X19729   4.926   5.852   9.974  1.8511 -1.0613 -0.6934
  174SAPI   H2Y19730   4.774   5.784  10.039 -0.7974 -3.3863 -1.0206
  174SAPI   C2319731   5.541   5.801  10.027 -0.4896 -0.5104  0.4115
  174SAPI   H3R19732   5.461   5.787   9.951  0.1760  3.3749 -1.2584
  174SAPI   H3S19733   5.571   5.696  10.046  2.6775  0.2127  0.0277
  174SAPI   C2419734   5.666   5.878   9.967 -0.4964  0.3885  0.2897
  174SAPI   H4R19735   5.645   5.978   9.922  0.5362  1.1683  1.4919
  174SAPI   H4S19736   5.706   5.816   9.883  2.7167  1.0444  1.2037
  174SAPI   C2519737   5.774   5.877  10.077 -0.2871  0.4260  0.1487
  174SAPI   H5R19738   5.776   5.790  10.144 -0.4816  0.3333  0.0337
  174SAPI   C2619739   5.869   5.973  10.087  0.7534 -0.6272  0.8764
  174SAPI   H6R19740   5.927   5.976  10.181 -0.0249 -3.5415  1.5603
  174SAPI   C2719741   5.870   6.099  10.003 -0.2369 -0.5694  0.1601
  174SAPI   H7R19742   5.848   6.068   9.899  0.8132 -1.1836  0.1003
  174SAPI   H7S19743   5.973   6.139   9.987 -0.4700  0.4764  1.1438
  174SAPI   C2819744   5.792   6.216  10.048 -0.2580 -0.0151  1.0537
  174SAPI   H8R19745   5.782   6.225  10.157 -0.5685 -2.0252  1.2284
  174SAPI   C2919746   5.757   6.314   9.960  0.4786 -0.0790  0.0401
  174SAPI   H9R19747   5.712   6.407   9.995 -0.9097 -0.1256 -1.5094
  174SAPI  C21019748   5.777   6.316   9.815 -1.3407 -0.0291 -0.3210
  174SAPI  H10R19749   5.716   6.390   9.758  0.8760  0.4881 -2.1610
  174SAPI  H10S19750   5.740   6.214   9.791  0.0806 -0.8839  0.9949
  174SAPI  C21119751   5.923   6.347   9.784 -0.4657  0.7155  0.1401
  174SAPI  H11R19752   6.003   6.328   9.857 -0.0229 -0.6268 -0.6442
  174SAPI  C21219753   5.969   6.372   9.662  0.6371 -0.7289  0.1042
  174SAPI  H12R19754   6.078   6.387   9.659  0.4517  0.9496 -3.0888
  174SAPI  C21319755   5.874   6.385   9.537 -0.5627  0.4447  0.5870
  174SAPI  H13R19756   5.793   6.309   9.534  1.2938 -1.6852  1.5718
  174SAPI  H13S19757   5.941   6.370   9.449 -1.8711 -0.2409 -0.3210
  174SAPI  C21419758   5.812   6.523   9.527 -0.3426  0.6066 -0.3360
  174SAPI  H14R19759   5.748   6.543   9.614  1.0126  3.7542  0.0484
  174SAPI  C21519760   5.811   6.608   9.427  0.2381 -0.1875 -0.3705
  174SAPI  H15R19761   5.762   6.704   9.449  1.7283  0.1698  1.5975
  174SAPI  C21619762   5.880   6.583   9.293 -0.0608  0.1599  0.0193
  174SAPI  H16R19763   5.812   6.536   9.219 -1.3086  0.1512  1.1446
  174SAPI  H16S19764   5.972   6.526   9.318 -0.9097 -1.1722  0.1917
  174SAPI  C21719765   5.943   6.716   9.233  0.1387 -0.5673 -0.3731
  174SAPI  H17R19766   6.017   6.758   9.305  0.9838 -1.6396 -0.5939
  174SAPI  H17S19767   5.866   6.795   9.227 -1.3727 -2.0628 -1.5051
  174SAPI  C21819768   6.020   6.702   9.098  0.3177  0.7712  0.7863
  174SAPI  H18R19769   5.937   6.669   9.032  0.8535  0.0178  0.4878
  174SAPI  H18S19770   6.101   6.627   9.107 -2.4908 -2.7107 -0.3681
  174SAPI  C21919771   6.071   6.839   9.052  0.5678 -0.1280  0.3257
  174SAPI  H19R19772   6.158   6.831   8.983  1.7183 -3.2092  1.9341
  174SAPI  H19S19773   6.100   6.887   9.148 -0.1741 -0.1906  0.5866
  174SAPI  C22019774   5.961   6.909   8.984  0.2681 -0.3392  0.8595
  174SAPI  H20R19775   5.947   6.869   8.882  0.3593  0.7531  0.4059
  174SAPI  H20S19776   5.977   7.019   8.984  3.4969 -0.7340  1.1909
  174SAPI  H20T19777   5.866   6.897   9.041 -0.3202  2.7024  0.6933
  174SAPI   C3319778   4.910   5.646   9.924  0.1364  0.6430 -0.2010
  174SAPI   H3X19779   4.861   5.652   9.825 -0.0628 -1.2819 -0.2470
  174SAPI   H3Y19780   4.893   5.548   9.975 -0.1906 -0.6255 -2.6210
  174SAPI   C3419781   5.050   5.654   9.876 -0.0563  0.3320  0.5186
  174SAPI   H4X19782   5.118   5.683   9.959  0.2314  0.1859  0.3330
  174SAPI   H4Y19783   5.051   5.743   9.809 -3.1634  0.7584  0.8781
  174SAPI   C3519784   5.093   5.533   9.797 -0.5105 -0.4510  0.5300
  174SAPI   H5X19785   5.015   5.484   9.735 -0.5722 -0.1866  0.3961
  174SAPI   H5Y19786   5.121   5.456   9.872  1.1770 -0.5916 -0.2015
  174SAPI   C3619787   5.215   5.565   9.707  0.1643  0.1086 -0.7267
  174SAPI   H6X19788   5.257   5.467   9.676 -0.9476 -0.8660  0.7261
  174SAPI   H6Y19789   5.296   5.615   9.764 -0.4618  1.1844 -0.7482
  174SAPI   C3719790   5.181   5.641   9.579  0.2622  0.6529  0.0595
  174SAPI   H7X19791   5.149   5.745   9.605 -0.3038  0.6807 -0.7214
  174SAPI   H7Y19792   5.101   5.584   9.529 -0.9108  1.9617  0.3928
  174SAPI   C3819793   5.295   5.660   9.486  0.3855 -0.0947 -0.3839
  174SAPI   H8X19794   5.334   5.562   9.452 -1.1847 -0.4697 -1.1858
  174SAPI   H8Y19795   5.379   5.711   9.538 -1.7796  2.4572  0.9055
  174SAPI   C3919796   5.258   5.724   9.351  0.2934 -0.0527  0.1789
  174SAPI   H9X19797   5.200   5.815   9.378  1.0835 -0.1770  2.4920
  174SAPI   H9Y19798   5.193   5.647   9.303  1.5143 -0.5872 -0.6665
  174SAPI  C31019799   5.371   5.741   9.253 -0.2219 -0.1116 -0.2349
  174SAPI  H10X19800   5.420   5.642   9.244 -0.2524 -0.3407  1.7063
  174SAPI  H10Y19801   5.445   5.818   9.283  0.4386  0.1930 -2.4668
  174SAPI  C31119802   5.308   5.802   9.125  0.3720  0.0264  0.1247
  174SAPI  H11X19803   5.253   5.897   9.145  0.3645  0.4883 -1.8965
  174SAPI  H11Y19804   5.244   5.722   9.082 -0.5934  1.9716 -2.3408
  174SAPI  C31219805   5.422   5.839   9.025  0.2929  1.1785  0.0317
  174SAPI  H12X19806   5.499   5.759   9.029 -1.3209 -0.4411  3.2181
  174SAPI  H12Y19807   5.466   5.932   9.066 -2.8995  2.8083  0.0558
  174SAPI  C31319808   5.374   5.868   8.879 -0.0393 -0.3260 -0.3003
  174SAPI  H13X19809   5.301   5.951   8.889 -1.3348 -1.3616 -0.8602
  174SAPI  H13Y19810   5.324   5.780   8.833 -0.2656 -0.8559  0.9279
  174SAPI  C31419811   5.479   5.896   8.772  0.4671 -0.3791  0.6463
  174SAPI  H14X19812   5.557   5.963   8.812  1.9555  0.0213 -2.6140
  174SAPI  H14Y19813   5.436   5.951   8.686  1.0215  0.2879  0.7878
  174SAPI  C31519814   5.551   5.768   8.721  0.2733  0.3384 -0.3467
  174SAPI  H15X19815   5.478   5.687   8.698 -0.2972  0.1279  1.9969
  174SAPI  H15Y19816   5.622   5.723   8.794 -1.2546  0.2953  1.1760
  174SAPI  C31619817   5.638   5.783   8.604 -0.5416  0.2858  0.1545
  174SAPI  H16X19818   5.708   5.867   8.629 -1.8168  1.9127 -1.4155
  174SAPI  H16Y19819   5.588   5.810   8.508 -0.5558 -0.6555 -0.1121
  174SAPI  C31719820   5.722   5.662   8.567 -0.8410 -0.2371  0.3460
  174SAPI  H17X19821   5.659   5.573   8.546 -1.6728  0.8591 -2.1516
  174SAPI  H17Y19822   5.787   5.634   8.653  0.9513  1.5561 -0.3500
  174SAPI  C31819823   5.821   5.687   8.451 -0.1239 -0.8072 -0.2551
  174SAPI  H18X19824   5.900   5.610   8.438  0.1918 -0.6568  0.7012
  174SAPI  H18Y19825   5.862   5.788   8.431 -0.9527  0.2159  2.6682
  174SAPI  H18Z19826   5.766   5.663   8.357 -0.8812 -1.7136  0.3910
  175SAPI   C1219827   0.972   5.527   6.131  0.2197 -0.4024  0.3525
  175SAPI    H219828   0.981   5.508   6.240 -2.5213  0.2097  0.7796
  175SAPI    O219829   0.920   5.402   6.078 -0.4718 -0.0662  0.5031
  175SAPI   HO219830   0.996   5.367   6.030 -1.8307 -2.0531 -0.3621
  175SAPI   C1319831   0.866   5.638   6.099 -0.0024  0.4899  0.3498
  175SAPI    H319832   0.911   5.735   6.132 -1.1374  1.3094 -0.4379
  175SAPI    O319833   0.743   5.617   6.170  0.1769  0.3868  0.1672
  175SAPI   HO319834   0.716   5.708   6.185  1.0235  0.7911 -0.6678
  175SAPI   C1419835   0.846   5.666   5.946 -0.3181  0.1657 -0.5394
  175SAPI    H419836   0.805   5.571   5.907 -0.6551  0.6280 -1.3304
  175SAPI    O419837   0.750   5.767   5.923 -0.4350 -0.6804 -0.3776
  175SAPI   HO419838   0.666   5.732   5.954 -0.6786  0.0082 -0.2560
  175SAPI   C1519839   0.983   5.688   5.878  0.5854  0.6283 -0.7558
  175SAPI    H519840   1.027   5.784   5.911 -0.4844  0.0599  2.7383
  175SAPI    O519841   0.964   5.698   5.735  0.3168 -0.3924 -0.2500
  175SAPI   HO519842   1.049   5.730   5.703 -0.0337 -0.0893 -0.8820
  175SAPI   C1619843   1.088   5.584   5.911 -0.8000  0.3521 -0.2107
  175SAPI    H619844   1.062   5.483   5.873 -0.7988  0.2629  0.0198
  175SAPI    O619845   1.212   5.620   5.855 -0.0076  0.1164  0.0475
  175SAPI   HO619846   1.258   5.536   5.856 -0.0587  0.0639 -0.8726
  175SAPI   C1119847   1.106   5.559   6.060 -0.9201 -0.1077  0.1267
  175SAPI    H119848   1.145   5.651   6.109 -0.1845  0.7368 -1.9387
  175SAPI     P19849   1.338   5.444   6.157  0.2516 -0.0795  0.0504
  175SAPI   O1319850   1.408   5.568   6.126 -0.0848 -0.8589  0.4250
  175SAPI   O1419851   1.411   5.320   6.129 -0.9491  0.1939 -0.4940
  175SAPI   O1219852   1.192   5.449   6.086  0.3814  0.2152  0.2113
  175SAPI   O1119853   1.291   5.438   6.312 -0.1567  0.2264  0.2013
  175SAPI    C119854   1.219   5.331   6.362 -0.7655 -0.1806 -0.3883
  175SAPI    HA19855   1.135   5.296   6.298 -0.7648 -2.7695  0.9093
  175SAPI    HB19856   1.292   5.253   6.390 -1.5904 -0.5285  0.8728
  175SAPI    C219857   1.145   5.366   6.503 -0.7290  0.1585  0.3725
  175SAPI    HS19858   1.083   5.456   6.481 -0.6132  0.0373 -0.4979
  175SAPI   O2119859   1.241   5.392   6.605  0.0318  0.5224  0.4593
  175SAPI   C2119860   1.196   5.491   6.684 -0.0153 -0.3361 -0.7147
  175SAPI   O2219861   1.093   5.551   6.681  0.5236 -0.5381  0.1434
  175SAPI   C2219862   1.316   5.533   6.770 -0.6798 -0.1451  0.0318
  175SAPI   H2R19863   1.367   5.444   6.813 -0.6195 -0.2686 -0.2955
  175SAPI   H2S19864   1.390   5.574   6.698  0.4647  0.5488  1.5429
  175SAPI    C319865   1.058   5.249   6.542 -0.2725 -0.2548 -0.3136
  175SAPI    HX19866   1.109   5.150   6.539  1.1899  0.4740 -0.1993
  175SAPI    HY19867   0.980   5.250   6.463  1.5719  0.0901 -2.2127
  175SAPI   O3119868   1.001   5.269   6.671  0.0822 -0.0484 -0.7552
  175SAPI   C3119869   0.870   5.317   6.672 -0.4747  0.5858 -0.1801
  175SAPI   O3219870   0.811   5.377   6.583  0.1510  0.0236 -0.0756
  175SAPI   C3219871   0.801   5.282   6.804  0.4759  0.3983 -0.3052
  175SAPI   H2X19872   0.738   5.191   6.794  2.5594 -1.0308 -1.3788
  175SAPI   H2Y19873   0.739   5.370   6.831 -1.5578 -0.8962 -0.5547
  175SAPI   C2319874   1.273   5.634   6.881 -0.0251 -0.0214  0.7229
  175SAPI   H3R19875   1.189   5.588   6.935  0.1596 -0.6420  0.4951
  175SAPI   H3S19876   1.220   5.719   6.832 -2.5850 -1.5282  0.7472
  175SAPI   C2419877   1.392   5.684   6.971  0.3727  0.2041 -0.3645
  175SAPI   H4R19878   1.350   5.760   7.040 -0.9726  1.5538 -2.5444
  175SAPI   H4S19879   1.470   5.736   6.912 -1.9171  2.6818 -1.4607
  175SAPI   C2519880   1.435   5.566   7.052  0.4542  0.3487  0.5644
  175SAPI   H5R19881   1.347   5.511   7.089  0.8366  0.7065  2.0915
  175SAPI   C2619882   1.558   5.520   7.083  0.1934 -0.5959 -0.0460
  175SAPI   H6R19883   1.574   5.443   7.161 -1.1312  1.3918  2.3636
  175SAPI   C2719884   1.680   5.598   7.043  1.1425  0.6329 -0.9451
  175SAPI   H7R19885   1.758   5.592   7.122  1.7387  0.4477 -1.5397
  175SAPI   H7S19886   1.650   5.705   7.043 -0.3889  0.2470  0.1847
  175SAPI   C2819887   1.725   5.572   6.905 -0.4460 -0.5629  0.5151
  175SAPI   H8R19888   1.655   5.581   6.821  1.0376  0.6643 -0.6453
  175SAPI   C2919889   1.857   5.569   6.873 -0.4928 -0.0069 -0.4262
  175SAPI   H9R19890   1.882   5.547   6.768  2.3580  0.0340  0.1535
  175SAPI  C21019891   1.973   5.576   6.967  0.1465 -0.2619  0.3072
  175SAPI  H10R19892   1.960   5.512   7.057 -0.1566  0.7459  0.9928
  175SAPI  H10S19893   1.972   5.680   7.005 -0.4936  0.1565 -0.8061
  175SAPI  C21119894   2.107   5.548   6.909 -0.4780  0.9109  0.0888
  175SAPI  H11R19895   2.117   5.594   6.809  0.0653  0.8136  0.0994
  175SAPI  C21219896   2.216   5.484   6.959  0.0031  0.1772 -0.0892
  175SAPI  H12R19897   2.309   5.471   6.903 -0.8125  0.0859 -1.4450
  175SAPI  C21319898   2.225   5.435   7.101 -0.9450  0.0993 -0.1228
  175SAPI  H13R19899   2.288   5.344   7.102  0.9532  1.3125 -1.7549
  175SAPI  H13S19900   2.125   5.400   7.134  0.2637 -2.1680  1.3855
  175SAPI  C21419901   2.288   5.535   7.203 -0.2561  0.0650 -0.6458
  175SAPI  H14R19902   2.303   5.636   7.161  0.1998  0.0793 -0.4535
  175SAPI  C21519903   2.319   5.506   7.330 -0.7242  0.2403  0.3290
  175SAPI  H15R19904   2.354   5.583   7.401 -0.2398 -0.7312  1.1685
  175SAPI  C21619905   2.277   5.375   7.393 -0.1077  0.3717  0.8902
  175SAPI  H16R19906   2.345   5.294   7.358 -0.0475  0.5360  0.6215
  175SAPI  H16S19907   2.174   5.345   7.362  0.2677 -0.7646  0.6837
  175SAPI  C21719908   2.273   5.393   7.548  0.2273 -0.2638 -0.4611
  175SAPI  H17R19909   2.377   5.400   7.586  1.0378  0.0563 -2.6091
  175SAPI  H17S19910   2.219   5.304   7.586 -1.2946  0.6941 -0.2885
  175SAPI  C21819911   2.192   5.515   7.598 -0.4902 -0.6272  0.0162
  175SAPI  H18R19912   2.094   5.514   7.546  0.1963 -1.5071 -1.2973
  175SAPI  H18S19913   2.238   5.616   7.594  0.4432 -1.0638 -0.4607
  175SAPI  C21919914   2.162   5.497   7.749  0.0452 -0.0073 -0.3955
  175SAPI  H19R19915   2.125   5.392   7.758  0.3627 -0.0441  0.6394
  175SAPI  H19S19916   2.080   5.569   7.771 -0.9223 -1.1282 -0.2218
  175SAPI  C22019917   2.276   5.516   7.844 -0.0809  0.3463  0.5223
  175SAPI  H20R19918   2.376   5.485   7.807  0.1535  1.2617  0.3675
  175SAPI  H20S19919   2.271   5.466   7.943  0.4340 -0.6929  0.0329
  175SAPI  H20T19920   2.290   5.620   7.880 -0.1727  0.8959 -0.9563
  175SAPI   C3319921   0.891   5.240   6.918 -0.6132 -0.6891 -0.0054
  175SAPI   H3X19922   0.956   5.151   6.900  0.0137 -0.3348  0.4651
  175SAPI   H3Y19923   0.829   5.203   7.003  1.1078 -2.2416  0.6662
  175SAPI   C3419924   0.990   5.354   6.964 -0.5543  0.2210 -0.6270
  175SAPI   H4X19925   0.943   5.451   6.989  1.0116  1.3567 -1.8591
  175SAPI   H4Y19926   1.060   5.374   6.880  0.4940  0.5869  0.3055
  175SAPI   C3519927   1.074   5.307   7.095 -0.6326 -0.4279  0.7642
  175SAPI   H5X19928   1.154   5.381   7.119 -0.5737 -0.8130  1.7972
  175SAPI   H5Y19929   1.122   5.210   7.069  3.2814  1.6635 -0.7938
  175SAPI   C3619930   0.994   5.290   7.229 -0.6336  0.1873  0.6964
  175SAPI   H6X19931   0.918   5.210   7.215  0.6972 -1.1841  1.0382
  175SAPI   H6Y19932   0.938   5.383   7.250  1.5326  2.2483 -1.9033
  175SAPI   C3719933   1.088   5.256   7.343  0.5034  0.3489  0.0168
  175SAPI   H7X19934   1.157   5.342   7.355 -0.1490  1.1132 -1.3861
  175SAPI   H7Y19935   1.142   5.159   7.341  1.5550  0.8891  1.0666
  175SAPI   C3819936   0.999   5.237   7.468  0.0133 -0.1876 -0.3649
  175SAPI   H8X19937   0.947   5.139   7.461 -1.2726  0.3547  1.0953
  175SAPI   H8Y19938   0.930   5.324   7.467  0.4396  0.3963  3.9649
  175SAPI   C3919939   1.078   5.240   7.598 -0.5959  0.9712 -0.8403
  175SAPI   H9X19940   1.006   5.249   7.681 -0.4556 -1.5395 -0.3817
  175SAPI   H9Y19941   1.147   5.326   7.613 -0.4548  0.6851  0.2443
  175SAPI  C31019942   1.163   5.114   7.626  0.1463 -0.4076  0.1328
  175SAPI  H10X19943   1.249   5.097   7.558  0.0468 -1.1292  0.1827
  175SAPI  H10Y19944   1.093   5.028   7.626 -4.7454  3.1171 -2.1629
  175SAPI  C31119945   1.231   5.126   7.772  0.1734 -0.1962  0.8846
  175SAPI  H11X19946   1.285   5.223   7.773  0.4087 -0.1946 -2.1526
  175SAPI  H11Y19947   1.315   5.054   7.784 -0.1322 -1.1013 -1.7112
  175SAPI  C31219948   1.134   5.104   7.893 -0.3204 -0.3630  0.2507
  175SAPI  H12X19949   1.085   5.004   7.889  1.4671 -1.2626 -0.6123
  175SAPI  H12Y19950   1.049   5.174   7.885 -0.3193 -0.5472 -2.6950
  175SAPI  C31319951   1.208   5.115   8.031 -0.8545 -0.1192  0.4173
  175SAPI  H13X19952   1.302   5.056   8.022 -0.1903  1.0543 -0.8400
  175SAPI  H13Y19953   1.144   5.059   8.103 -0.3217 -0.8913  0.3006
  175SAPI  C31419954   1.222   5.258   8.078  0.2748  0.4759  0.7098
  175SAPI  H14X19955   1.121   5.306   8.076  0.2745  0.4777  0.7721
  175SAPI  H14Y19956   1.292   5.317   8.015  1.4157  0.5248  1.9726
  175SAPI  C31519957   1.275   5.266   8.211 -0.0702  0.6164 -0.4606
  175SAPI  H15X19958   1.269   5.373   8.240  0.7582  0.7203 -0.6439
  175SAPI  H15Y19959   1.383   5.241   8.202 -0.2642 -2.4908  3.3222
  175SAPI  C31619960   1.212   5.174   8.321 -1.1676  0.0497 -0.7776
  175SAPI  H16X19961   1.229   5.066   8.302 -2.2620 -0.1215 -0.8595
  175SAPI  H16Y19962   1.102   5.184   8.328 -1.0810  0.0541  1.0685
  175SAPI  C31719963   1.281   5.201   8.456  0.6117  0.1780  0.7678
  175SAPI  H17X19964   1.219   5.168   8.542  3.9463 -1.7881  2.6212
  175SAPI  H17Y19965   1.291   5.310   8.474 -0.0643  0.7252 -1.7805
  175SAPI  C31819966   1.406   5.121   8.469  0.2653 -0.1174 -0.2651
  175SAPI  H18X19967   1.446   5.133   8.572 -1.5481 -0.7295  0.5579
  175SAPI  H18Y19968   1.479   5.158   8.394  0.4123 -0.0046 -0.0692
  175SAPI  H18Z19969   1.388   5.014   8.447 -0.7121 -0.4558  1.9565
  176SAPI   C1219970   5.579   2.114   5.983 -0.0191 -0.4423  0.0031
  176SAPI    H219971   5.686   2.106   6.009 -0.1757 -0.0488  0.7962
  176SAPI    O219972   5.543   2.253   5.960 -0.0960  0.4318 -0.6546
  176SAPI   HO219973   5.619   2.309   5.943  0.2596  0.5570  1.2204
  176SAPI   C1319974   5.558   2.040   5.853 -0.0831 -0.5494 -0.1567
  176SAPI    H319975   5.587   1.933   5.863  1.9836 -0.2491 -2.1169
  176SAPI    O319976   5.655   2.084   5.759  0.2875 -0.3408  0.1541
  176SAPI   HO319977   5.623   2.068   5.669  0.6105  0.8917 -0.2012
  176SAPI   C1419978   5.421   2.042   5.811  0.1311 -0.4015 -0.1297
  176SAPI    H419979   5.394   2.146   5.785 -2.8042 -0.8629  0.6080
  176SAPI    O419980   5.415   1.972   5.685  0.2098  0.1739  0.5964
  176SAPI   HO419981   5.434   1.878   5.692 -0.7946 -0.0167  0.9790
  176SAPI   C1519982   5.317   1.994   5.911  0.1469  0.4587  0.2889
  176SAPI    H519983   5.326   1.883   5.918  0.0115  0.5540  2.5151
  176SAPI    O519984   5.185   2.011   5.873  0.1365 -0.3888  0.3678
  176SAPI   HO519985   5.128   1.980   5.944 -0.0195 -0.5642  0.1684
  176SAPI   C1619986   5.346   2.074   6.047 -0.3331 -0.1194 -0.0512
  176SAPI    H619987   5.315   2.181   6.044  0.7548  0.2427  0.9962
  176SAPI    O619988   5.256   2.022   6.143  0.4134  0.5770 -0.1169
  176SAPI   HO619989   5.276   2.054   6.231  0.9568 -1.8309  0.7066
  176SAPI   C1119990   5.495   2.054   6.084 -0.1775 -0.1592 -0.2810
  176SAPI    H119991   5.515   1.945   6.088 -3.3815 -0.8034  0.6094
  176SAPI     P19992   5.514   2.047   6.356 -0.1689 -0.2293  0.4190
  176SAPI   O1319993   5.608   2.097   6.460 -0.0333  0.0104 -0.0166
  176SAPI   O1419994   5.516   1.900   6.334 -0.3179 -0.4565 -0.1437
  176SAPI   O1219995   5.536   2.112   6.206  0.2552  0.3829 -0.3491
  176SAPI   O1119996   5.368   2.094   6.381 -0.3172 -0.4544 -0.7211
  176SAPI    C119997   5.328   2.144   6.512  0.2566 -0.0966  0.0575
  176SAPI    HA19998   5.408   2.205   6.558  0.5092  1.2893 -2.0523
  176SAPI    HB19999   5.245   2.217   6.502 -0.8177 -1.0115  1.8448
  176SAPI    C220000   5.261   2.040   6.605  0.4512 -0.0997 -0.0066
  176SAPI    HS20001   5.207   2.081   6.693  2.0425 -0.3105  1.1073
  176SAPI   O2120002   5.359   1.941   6.634 -0.1175  0.8870 -0.2078
  176SAPI   C2120003   5.446   1.979   6.725 -0.6814  0.0546 -0.6927
  176SAPI   O2220004   5.430   2.069   6.807 -0.3874  0.2488 -0.1541
  176SAPI   C2220005   5.559   1.872   6.723 -0.0717 -0.8417 -0.3871
  176SAPI   H2R20006   5.513   1.771   6.738  0.0903 -0.6567  1.5984
  176SAPI   H2S20007   5.610   1.879   6.625 -0.3058  1.5926 -0.3745
  176SAPI    C320008   5.142   1.967   6.530  0.3607 -0.4639  0.1505
  176SAPI    HX20009   5.204   1.925   6.448  2.3675 -0.7200  1.7318
  176SAPI    HY20010   5.071   2.043   6.492  2.3494  1.4267  0.0221
  176SAPI   O3120011   5.083   1.877   6.624  0.1919 -0.0677 -0.0212
  176SAPI   C3120012   5.074   1.752   6.590  0.4005 -0.3928  0.0783
  176SAPI   O3220013   5.080   1.712   6.476  0.5565  0.7709  0.3011
  176SAPI   C3220014   5.041   1.664   6.714 -0.4139 -0.6490  0.0624
  176SAPI   H2X20015   5.048   1.559   6.678 -1.1035 -0.9833  0.8584
  176SAPI   H2Y20016   4.933   1.677   6.739  0.2464  1.0951  2.3569
  176SAPI   C2320017   5.653   1.898   6.847  0.4111  0.2701  0.2101
  176SAPI   H3R20018   5.684   2.005   6.845 -0.2502  0.6065  3.1826
  176SAPI   H3S20019   5.744   1.839   6.826 -0.9416 -1.4817 -1.0438
  176SAPI   C2420020   5.585   1.859   6.978  0.4387 -0.0135 -0.1415
  176SAPI   H4R20021   5.477   1.886   6.976  0.7809  2.0168  2.6434
  176SAPI   H4S20022   5.621   1.921   7.063  0.5488 -0.2287 -0.0308
  176SAPI   C2520023   5.586   1.711   6.991  0.4058  0.3445  0.5993
  176SAPI   H5R20024   5.614   1.653   6.902 -2.2398 -0.0259 -0.0714
  176SAPI   C2620025   5.554   1.637   7.103  0.0623  0.4219 -0.3538
  176SAPI   H6R20026   5.542   1.528   7.089  0.9148  0.1399  0.9824
  176SAPI   C2720027   5.497   1.694   7.236  0.1184 -0.3916 -0.4066
  176SAPI   H7R20028   5.447   1.611   7.291  1.3082  0.2081  1.6735
  176SAPI   H7S20029   5.424   1.774   7.209  0.6735  1.1705  2.3854
  176SAPI   C2820030   5.601   1.761   7.320 -0.4303 -0.5622  0.2788
  176SAPI   H8R20031   5.704   1.761   7.281 -0.5369 -1.1214 -0.0224
  176SAPI   C2920032   5.576   1.812   7.443  0.6655  0.2197  0.4747
  176SAPI   H9R20033   5.662   1.848   7.502 -0.8119 -0.5248  3.2475
  176SAPI  C21020034   5.442   1.811   7.517  0.0081 -0.5971 -0.2063
  176SAPI  H10R20035   5.422   1.714   7.567  1.1803  0.0530  1.6519
  176SAPI  H10S20036   5.353   1.812   7.450  0.3508 -1.7329 -0.6845
  176SAPI  C21120037   5.431   1.921   7.620  0.4207  0.4131 -0.0538
  176SAPI  H11R20038   5.367   2.005   7.589 -2.4715 -2.4265 -2.5347
  176SAPI  C21220039   5.499   1.926   7.731 -0.1964  0.0035  0.1080
  176SAPI  H12R20040   5.481   2.016   7.792 -0.4006  1.6827 -2.2656
  176SAPI  C21320041   5.601   1.826   7.786  0.4725 -0.1996 -0.0585
  176SAPI  H13R20042   5.691   1.887   7.808  0.3516  0.5043 -1.4349
  176SAPI  H13S20043   5.634   1.742   7.721  1.0179  1.1227 -1.5343
  176SAPI  C21420044   5.541   1.759   7.914  0.2590  0.1097 -0.3608
  176SAPI  H14R20045   5.432   1.743   7.909  0.4409 -1.5289  0.3718
  176SAPI  C21520046   5.610   1.734   8.029  0.2419 -0.4118 -0.4698
  176SAPI  H15R20047   5.566   1.681   8.114  2.1279 -0.4328  0.5621
  176SAPI  C21620048   5.751   1.769   8.059 -0.0767  0.1993  0.8204
  176SAPI  H16R20049   5.807   1.802   7.969 -2.0323  2.6503  0.4146
  176SAPI  H16S20050   5.811   1.683   8.097  2.9244  1.4838 -0.7257
  176SAPI  C21720051   5.751   1.871   8.169 -0.1526  0.0989  0.2792
  176SAPI  H17R20052   5.700   1.832   8.259  2.1546 -0.7830  1.3006
  176SAPI  H17S20053   5.707   1.971   8.152 -0.5027  0.0450  0.8681
  176SAPI  C21820054   5.904   1.897   8.214  0.3616  0.0016  0.4259
  176SAPI  H18R20055   5.904   1.985   8.282  2.0613  1.3363 -1.1944
  176SAPI  H18S20056   5.961   1.937   8.127  0.2726 -0.2987  0.2265
  176SAPI  C21920057   5.965   1.776   8.282 -0.0858  0.2965  1.1016
  176SAPI  H19R20058   5.980   1.695   8.208  1.1928  0.9292  0.6376
  176SAPI  H19S20059   5.904   1.743   8.368 -1.3298 -1.4779 -0.3800
  176SAPI  C22020060   6.104   1.808   8.334 -0.3296  0.6445 -0.2392
  176SAPI  H20R20061   6.152   1.874   8.259 -2.3275  2.8475  0.3169
  176SAPI  H20S20062   6.160   1.714   8.353  1.3364  1.8175  0.9548
  176SAPI  H20T20063   6.109   1.871   8.425  2.6323  1.0796 -0.5927
  176SAPI   C3320064   5.132   1.680   6.835  0.2356 -0.1829 -0.4122
  176SAPI   H3X20065   5.240   1.684   6.809  1.2812 -0.0694  3.2780
  176SAPI   H3Y20066   5.115   1.585   6.891  0.7858  0.4766  0.9062
  176SAPI   C3420067   5.090   1.792   6.929  0.2525 -0.0958 -0.1926
  176SAPI   H4X20068   4.984   1.777   6.958  0.1538 -0.3900 -0.6916
  176SAPI   H4Y20069   5.101   1.886   6.870 -2.6117  1.0586  0.9397
  176SAPI   C3520070   5.162   1.807   7.056 -0.5208  0.0536  0.3581
  176SAPI   H5X20071   5.268   1.776   7.044  0.3029  2.4443  0.9014
  176SAPI   H5Y20072   5.126   1.752   7.146  0.0202  2.0391  1.8752
  176SAPI   C3620073   5.161   1.949   7.106  0.9226  0.3244  0.2111
  176SAPI   H6X20074   5.168   2.029   7.029 -3.9570 -0.0363 -0.9499
  176SAPI   H6Y20075   5.248   1.960   7.175 -0.6610 -0.4650  2.4490
  176SAPI   C3720076   5.043   1.989   7.194  0.2154  0.0016  1.1499
  176SAPI   H7X20077   4.949   1.948   7.149  1.4407 -1.2138 -0.4545
  176SAPI   H7Y20078   5.041   2.099   7.180  1.7108 -0.2526 -2.0014
  176SAPI   C3820079   5.048   1.941   7.335 -0.2009  0.2636  0.7752
  176SAPI   H8X20080   5.061   2.032   7.397  1.4917  0.6638 -0.1295
  176SAPI   H8Y20081   5.133   1.872   7.352  0.7519  0.5440 -2.2530
  176SAPI   C3920082   4.919   1.868   7.376  0.6158  0.8405  0.5191
  176SAPI   H9X20083   4.924   1.759   7.354  1.7084  0.6635  1.5865
  176SAPI   H9Y20084   4.832   1.910   7.321  0.6329  0.1685 -0.0319
  176SAPI  C31020085   4.886   1.874   7.527  0.3058 -0.0457 -0.0421
  176SAPI  H10X20086   4.791   1.817   7.538 -0.7582  1.8091  0.7693
  176SAPI  H10Y20087   4.868   1.981   7.550  0.5442  0.5050 -2.1969
  176SAPI  C31120088   4.998   1.832   7.625 -0.6097  0.0304 -0.7641
  176SAPI  H11X20089   5.090   1.887   7.597 -0.2940 -0.2262 -0.2601
  176SAPI  H11Y20090   5.019   1.724   7.616  2.7056  0.5373 -0.2606
  176SAPI  C31220091   4.960   1.868   7.775  0.1202 -0.5203  0.5801
  176SAPI  H12X20092   4.867   1.813   7.798  0.1721  0.0379  2.2003
  176SAPI  H12Y20093   4.938   1.976   7.774 -1.4878 -0.7992 -1.4117
  176SAPI  C31320094   5.073   1.835   7.872  0.0353 -0.3863  0.0853
  176SAPI  H13X20095   5.167   1.886   7.840 -0.2039  2.6313  3.4773
  176SAPI  H13Y20096   5.067   1.725   7.864 -0.5028 -0.2062 -4.1496
  176SAPI  C31420097   5.046   1.886   8.016 -0.0040 -0.4989 -0.0853
  176SAPI  H14X20098   4.950   1.857   8.062  0.8098 -1.8412  0.8416
  176SAPI  H14Y20099   5.039   1.996   8.000  2.6655 -0.3165 -0.4555
  176SAPI  C31520100   5.165   1.854   8.110 -0.1820 -0.2224 -0.2876
  176SAPI  H15X20101   5.185   1.935   8.184 -0.2548 -0.2446 -0.2441
  176SAPI  H15Y20102   5.259   1.858   8.051  0.2241 -0.6181  0.3183
  176SAPI  C31620103   5.145   1.718   8.176 -0.2490  0.0466 -0.3405
  176SAPI  H16X20104   5.162   1.639   8.099 -0.0846  0.9184 -1.2111
  176SAPI  H16Y20105   5.049   1.707   8.229 -0.0952 -3.4844 -0.5577
  176SAPI  C31720106   5.248   1.689   8.285 -0.3107  1.1558 -0.8427
  176SAPI  H17X20107   5.217   1.755   8.369 -0.9122 -0.5709  0.3423
  176SAPI  H17Y20108   5.348   1.731   8.261  1.1558 -1.3094  0.4809
  176SAPI  C31820109   5.255   1.540   8.324  0.3656  0.4043  0.4644
  176SAPI  H18X20110   5.152   1.507   8.349  0.3628  0.3986  0.4459
  176SAPI  H18Y20111   5.320   1.527   8.412  0.0276  3.2575  1.2638
  176SAPI  H18Z20112   5.298   1.473   8.247 -1.1839 -0.7662  0.5731
  177SLPC     N20113   5.903   0.095  11.103  0.6965 -0.3174 -0.5998
  177SLPC   C1320114   5.900   0.233  11.179  0.0427  0.5841  0.4539
  177SLPC  H13A20115   6.002   0.246  11.214  0.4216 -1.6351  0.3344
  177SLPC  H13B20116   5.864   0.300  11.103 -0.2479  2.6006  2.2555
  177SLPC  H13C20117   5.825   0.223  11.256 -1.8685 -0.4136 -1.4577
  177SLPC   C1420118   5.757   0.061  11.075  0.0804 -0.0928 -1.2928
  177SLPC  H14A20119   5.715   0.144  11.020 -5.2159 -0.8706  0.9881
  177SLPC  H14B20120   5.747  -0.028  11.016 -1.3840 -0.1719 -0.9586
  177SLPC  H14C20121   5.703   0.042  11.167  0.4095 -1.1692 -1.3108
  177SLPC   C1520122   5.954  -0.013  11.188 -0.0661 -0.5677  0.1715
  177SLPC  H15A20123   6.061   0.000  11.194  0.2124 -1.9018 -1.2306
  177SLPC  H15B20124   5.917  -0.015  11.290  0.0711 -0.8128  0.2184
  177SLPC  H15C20125   5.951  -0.112  11.146 -0.6007 -0.3966 -0.2044
  177SLPC   C1220126   5.978   0.109  10.973  0.1195  0.2287  0.2053
  177SLPC  H12A20127   5.980   0.010  10.929 -1.3984  0.7430 -1.0898
  177SLPC  H12B20128   6.077   0.146  10.991  0.2324  1.3909 -2.5019
  177SLPC   C1120129   5.923   0.190  10.858 -0.1719  0.1540 -0.0071
  177SLPC  H11A20130   5.819   0.153  10.843 -1.3270  3.2248 -0.2039
  177SLPC  H11B20131   5.985   0.165  10.769  1.1863 -1.8654  1.4052
  177SLPC     P20132   6.053   0.420  10.853 -0.2682 -0.1456  0.0561
  177SLPC   O1320133   6.031   0.556  10.911 -0.1580 -0.0796  0.4830
  177SLPC   O1420134   6.172   0.339  10.891  0.0613 -0.0788 -0.2094
  177SLPC   O1220135   5.924   0.332  10.885 -0.4261  0.0592  0.0937
  177SLPC   O1120136   6.040   0.427  10.698 -0.3434  0.0825  0.1527
  177SLPC    C120137   5.908   0.473  10.648  0.0561  0.1158 -0.3155
  177SLPC    HA20138   5.833   0.394  10.670 -1.8875  1.3830 -2.0129
  177SLPC    HB20139   5.869   0.562  10.702 -0.7608 -1.4340  1.7967
  177SLPC    C220140   5.908   0.492  10.496 -0.2634  0.8330  0.7761
  177SLPC    HS20141   5.960   0.409  10.443 -2.6330 -1.7320  2.2006
  177SLPC   O2120142   5.980   0.613  10.481 -0.6108  0.2893  0.2544
  177SLPC   C2120143   6.112   0.605  10.457 -0.1519  0.2477 -0.2636
  177SLPC   O2220144   6.181   0.508  10.445 -0.2722  0.1329  0.5310
  177SLPC   C2220145   6.163   0.753  10.464 -0.0942  1.0012 -0.0097
  177SLPC   H2R20146   6.078   0.824  10.458  1.0209  2.3112 -0.8989
  177SLPC   H2S20147   6.211   0.773  10.562 -1.4600  5.0838  0.0314
  177SLPC    C320148   5.769   0.493  10.431 -0.2713 -0.2024  0.3915
  177SLPC    HX20149   5.726   0.593  10.452  1.6107  0.2493  2.5149
  177SLPC    HY20150   5.706   0.420  10.485  1.1569 -0.8450  1.2341
  177SLPC   O3120151   5.777   0.479  10.286  0.4310 -0.5550  0.2037
  177SLPC   C3120152   5.660   0.501  10.223  0.0524 -1.2421  0.1011
  177SLPC   O3220153   5.551   0.525  10.277  0.4736  0.6511 -0.2102
  177SLPC   C3220154   5.685   0.499  10.072 -0.0420  0.2079 -0.7583
  177SLPC   H2X20155   5.732   0.401  10.051 -1.9440 -1.2731  1.3388
  177SLPC   H2Y20156   5.753   0.584  10.051  0.4702  0.0536  0.2224
  177SLPC   C2320157   6.256   0.775  10.340 -0.3199 -0.0490  0.0984
  177SLPC   H3R20158   6.320   0.686  10.321 -0.8088 -0.5258  0.6392
  177SLPC   H3S20159   6.330   0.857  10.354  0.7018 -0.5742 -1.9332
  177SLPC   C2420160   6.176   0.790  10.209  0.2412 -0.7298 -0.5725
  177SLPC   H4R20161   6.106   0.876  10.217  3.0764  1.5579  1.7806
  177SLPC   H4S20162   6.098   0.711  10.208 -0.3074 -0.2130 -1.8401
  177SLPC   C2520163   6.241   0.778  10.071 -0.0874  0.3760  0.1839
  177SLPC   H5R20164   6.248   0.671  10.043 -0.3410  0.2617  0.5402
  177SLPC   H5S20165   6.342   0.825  10.075 -0.5364  1.5158 -1.3314
  177SLPC   C2620166   6.152   0.835   9.958  0.4683 -0.1267 -0.0490
  177SLPC   H6R20167   6.197   0.899   9.880 -0.5647  2.6352  1.4513
  177SLPC   H6S20168   6.070   0.902   9.991  0.5634  0.5473 -1.1690
  177SLPC   C2720169   6.071   0.722   9.884  0.4730  0.1639 -0.5806
  177SLPC   H7R20170   6.041   0.658   9.969  2.4397 -1.3648 -0.9672
  177SLPC   H7S20171   6.132   0.650   9.826 -0.7595 -1.3929  0.0046
  177SLPC   C2820172   5.953   0.768   9.803  0.2117 -0.0037  0.4957
  177SLPC   H8R20173   5.896   0.847   9.855 -0.0143  0.4781 -0.4649
  177SLPC   H8S20174   5.888   0.679   9.789 -0.4738  0.5217  0.3019
  177SLPC   C2920175   6.006   0.820   9.662  0.1249 -0.2950 -0.1246
  177SLPC   H9R20176   6.073   0.908   9.662  0.4270 -0.5072  1.1699
  177SLPC  C21020177   5.978   0.768   9.545 -0.2541  0.6604 -0.2638
  177SLPC  H10R20178   6.021   0.805   9.451 -0.0346  1.6208  0.2039
  177SLPC  C21120179   5.897   0.644   9.528  0.0006  0.6493  0.2844
  177SLPC  H11R20180   5.836   0.622   9.619  1.6665  1.1096  1.5657
  177SLPC  H11S20181   5.821   0.668   9.451  0.0782  0.1598  0.0484
  177SLPC  C21220182   5.992   0.531   9.494  0.0767 -0.5599  0.1242
  177SLPC  H12R20183   6.036   0.486   9.585 -0.8732  0.1017  0.9233
  177SLPC  C21320184   6.028   0.490   9.369 -0.1539 -0.1289 -0.1770
  177SLPC  H13R20185   6.096   0.403   9.366 -1.4667 -1.1568 -0.6273
  177SLPC  C21420186   5.990   0.559   9.239  0.2617 -0.2242 -0.9811
  177SLPC  H14R20187   6.077   0.570   9.171  0.3640  1.7159 -0.6003
  177SLPC  H14S20188   5.954   0.663   9.257 -0.0083 -0.6775  1.3732
  177SLPC  C21520189   5.874   0.487   9.162 -0.5808  0.2848  0.3708
  177SLPC  H15R20190   5.786   0.475   9.228 -1.6057 -2.0430 -1.2878
  177SLPC  H15S20191   5.906   0.388   9.123 -3.1390 -0.5546  0.2453
  177SLPC  C21620192   5.833   0.560   9.027  0.2111  0.4244  0.1715
  177SLPC  H16R20193   5.751   0.496   8.989 -0.6170  1.4158  0.2435
  177SLPC  H16S20194   5.917   0.572   8.955 -1.8796  1.0559 -2.3233
  177SLPC  C21720195   5.766   0.690   9.050  0.3869 -0.5842  1.0493
  177SLPC  H17R20196   5.825   0.761   9.112  0.8760 -1.0002  1.0727
  177SLPC  H17S20197   5.677   0.672   9.113  1.5640 -0.0847  2.9350
  177SLPC  C21820198   5.712   0.758   8.923 -0.3589  0.3907 -0.1315
  177SLPC  H18R20199   5.628   0.700   8.880  0.7354 -1.5715  0.2474
  177SLPC  H18S20200   5.787   0.753   8.841 -2.0529 -0.0565 -1.7090
  177SLPC  H18T20201   5.677   0.863   8.936 -0.9312  0.2605 -0.5841
  177SLPC   C3320202   5.561   0.514   9.988 -0.0455  0.2341 -0.0090
  177SLPC   H3X20203   5.485   0.582  10.031  0.0257  0.4704 -0.2525
  177SLPC   H3Y20204   5.493   0.427   9.990 -1.4403  1.2249  3.9988
  177SLPC   C3420205   5.594   0.530   9.837  0.3565  0.3381  0.0856
  177SLPC   H4X20206   5.649   0.443   9.795 -0.2033 -0.8265  1.6502
  177SLPC   H4Y20207   5.656   0.621   9.820 -0.0896  0.9065  1.4001
  177SLPC   C3520208   5.477   0.540   9.738 -0.5654 -0.0761 -0.4684
  177SLPC   H5X20209   5.405   0.619   9.767 -1.5885 -0.8977 -0.7179
  177SLPC   H5Y20210   5.426   0.442   9.750 -0.9254  0.1674  0.0079
  177SLPC   C3620211   5.532   0.582   9.595  1.0408  0.5412 -0.3984
  177SLPC   H6X20212   5.606   0.506   9.562 -0.2111 -0.2608 -1.4537
  177SLPC   H6Y20213   5.582   0.681   9.594 -1.8549  2.1762  1.6182
  177SLPC   C3720214   5.417   0.584   9.495  0.4572 -0.6202  0.1312
  177SLPC   H7X20215   5.333   0.644   9.536  0.6459  0.1657 -0.5908
  177SLPC   H7Y20216   5.369   0.484   9.486 -0.1555 -0.4905  1.6462
  177SLPC   C3820217   5.473   0.631   9.355  0.1957  0.2112 -0.3960
  177SLPC   H8X20218   5.564   0.573   9.332 -0.0143 -0.7734  1.1294
  177SLPC   H8Y20219   5.509   0.733   9.378  1.0043  0.7375 -3.4496
  177SLPC   C3920220   5.381   0.635   9.240  0.7442  0.2079  0.1016
  177SLPC   H9X20221   5.416   0.716   9.173  1.9263  0.6344  1.2131
  177SLPC   H9Y20222   5.276   0.657   9.270  0.4117  0.4314 -1.1443
  177SLPC  C31020223   5.382   0.510   9.150  0.8201  0.2179  0.5615
  177SLPC  H10X20224   5.310   0.437   9.193  1.4029 -1.0896 -0.6034
  177SLPC  H10Y20225   5.484   0.465   9.148  0.5256 -0.5467  1.8345
  177SLPC  C31120226   5.343   0.535   9.002  0.2123 -0.2620 -0.0653
  177SLPC  H11X20227   5.413   0.612   8.963 -1.2493  0.1837 -1.9613
  177SLPC  H11Y20228   5.239   0.572   8.991 -0.4399 -1.1565  2.3443
  177SLPC  C31220229   5.373   0.406   8.921  0.0735 -0.2294  0.4183
  177SLPC  H12X20230   5.309   0.319   8.946  0.3824 -0.8168 -0.7548
  177SLPC  H12Y20231   5.478   0.377   8.943  0.2757  1.0100  1.2520
  177SLPC  C31320232   5.362   0.431   8.773 -0.0575 -0.0720  0.0228
  177SLPC  H13X20233   5.403   0.342   8.719  0.5488 -0.3056  0.8370
  177SLPC  H13Y20234   5.407   0.526   8.738  0.1231 -0.2689 -0.2900
  177SLPC  C31420235   5.216   0.453   8.731 -0.2338 -1.0566  0.1510
  177SLPC  H14X20236   5.176   0.537   8.791  0.3191 -0.8967  0.3006
  177SLPC  H14Y20237   5.142   0.372   8.749  0.2363 -1.1499  1.8142
  177SLPC  C31520238   5.193   0.499   8.587 -0.1731  0.2324  0.5272
  177SLPC  H15X20239   5.083   0.496   8.572 -0.2277 -1.7802  1.0934
  177SLPC  H15Y20240   5.235   0.435   8.506 -0.1935 -0.8506  1.3439
  177SLPC  C31620241   5.231   0.643   8.561 -0.4351 -0.2142 -0.4824
  177SLPC  H16X20242   5.341   0.651   8.578 -0.5153  0.1433 -0.1084
  177SLPC  H16Y20243   5.192   0.702   8.646 -0.7600  0.0149 -0.7876
  177SLPC  C31720244   5.177   0.715   8.439  0.3113  0.0087 -0.1810
  177SLPC  H17X20245   5.215   0.819   8.450 -0.3465  0.2385 -0.0597
  177SLPC  H17Y20246   5.068   0.718   8.455  0.4222 -1.7241  1.2528
  177SLPC  C31820247   5.210   0.631   8.310 -0.5138 -0.4025  0.6187
  177SLPC  H18X20248   5.318   0.649   8.291 -0.8153  0.7107 -0.1403
  177SLPC  H18Y20249   5.156   0.655   8.216  2.1038  0.5650 -0.7224
  177SLPC  H18Z20250   5.198   0.521   8.320  1.2660 -0.5799  1.1366
  178SLPC     N20251   2.125   1.914  10.796 -0.3642 -0.0775  0.2816
  178SLPC   C1320252   2.023   1.992  10.857  0.2182  0.0626  0.4382
  178SLPC  H13A20253   2.065   2.081  10.900 -1.9165  0.9698  0.7671
  178SLPC  H13B20254   1.956   2.033  10.782  0.6263 -0.1344 -0.0408
  178SLPC  H13C20255   1.963   1.947  10.935  1.9924 -3.9051 -0.2274
  178SLPC   C1420256   2.240   1.888  10.895  0.0623 -1.0590 -0.2741
  178SLPC  H14A20257   2.302   1.807  10.860 -0.4292 -1.3166 -0.5584
  178SLPC  H14B20258   2.290   1.982  10.910 -0.9256 -0.2156 -1.9178
  178SLPC  H14C20259   2.196   1.866  10.991 -0.4450 -1.0583 -0.5016
  178SLPC   C1520260   2.193   1.989  10.683 -0.2314  0.2612  0.4515
  178SLPC  H15A20261   2.270   1.924  10.643 -1.4547 -0.8109 -0.2409
  178SLPC  H15B20262   2.124   2.010  10.603 -1.3524 -1.6638  0.8557
  178SLPC  H15C20263   2.237   2.085  10.704 -0.7707  0.5137  0.4182
  178SLPC   C1220264   2.069   1.783  10.741 -0.2440 -0.0283  0.0289
  178SLPC  H12A20265   1.971   1.794  10.697 -2.0603  4.6645  4.2436
  178SLPC  H12B20266   2.057   1.716  10.825  0.0125  2.0801  1.8427
  178SLPC   C1120267   2.158   1.697  10.644  0.2243  1.3291 -0.3362
  178SLPC  H11A20268   2.180   1.768  10.562 -1.2767  2.9430  0.5952
  178SLPC  H11B20269   2.096   1.623  10.588  3.0034 -0.2170 -1.5663
  178SLPC     P20270   2.281   1.510  10.788 -0.2954  0.0314 -0.4623
  178SLPC   O1320271   2.424   1.507  10.841  0.0443  0.6890  0.1956
  178SLPC   O1420272   2.178   1.509  10.898 -0.7898  0.1442 -0.0685
  178SLPC   O1220273   2.271   1.645  10.704 -0.3707 -0.1314  0.2292
  178SLPC   O1120274   2.265   1.392  10.685 -0.0851  0.5307 -0.2693
  178SLPC    C120275   2.362   1.383  10.574  0.3421  0.5947  0.4658
  178SLPC    HA20276   2.465   1.402  10.611 -0.2665  2.9726  1.0966
  178SLPC    HB20277   2.368   1.279  10.535 -1.1736  1.0855 -1.2400
  178SLPC    C220278   2.331   1.454  10.432  1.1941  1.1053 -0.2021
  178SLPC    HS20279   2.316   1.560  10.462 -0.9693  0.3142  1.7627
  178SLPC   O2120280   2.205   1.393  10.392  0.1625  0.1474 -0.3287
  178SLPC   C2120281   2.120   1.473  10.333  0.1004  0.3684 -0.2124
  178SLPC   O2220282   2.140   1.592  10.311  0.2407  0.0355  0.6287
  178SLPC   C2220283   1.996   1.394  10.314  0.5429  0.2179  0.5691
  178SLPC   H2R20284   2.020   1.313  10.242 -1.0745  1.0202 -0.9371
  178SLPC   H2S20285   1.971   1.361  10.417 -3.6661  2.1285  0.3729
  178SLPC    C320286   2.434   1.427  10.318  0.4226  0.2281 -0.1366
  178SLPC    HX20287   2.425   1.317  10.310 -0.6324  0.1254  1.8936
  178SLPC    HY20288   2.534   1.448  10.362 -0.5109 -2.0694  3.5454
  178SLPC   O3120289   2.403   1.486  10.188  0.1841  0.3096 -0.1695
  178SLPC   C3120290   2.449   1.619  10.174 -0.0565  0.1888  0.5458
  178SLPC   O3220291   2.511   1.671  10.268  0.1846  0.1558  0.3120
  178SLPC   C3220292   2.382   1.679  10.051 -0.1692  0.3116  0.4267
  178SLPC   H2X20293   2.274   1.705  10.061  0.2560  1.4727  2.7040
  178SLPC   H2Y20294   2.389   1.596   9.978  0.7118 -1.0500  1.9885
  178SLPC   C2320295   1.870   1.474  10.255  0.3613 -0.8139  0.2832
  178SLPC   H3R20296   1.880   1.576  10.299 -0.5180 -0.8336  0.5493
  178SLPC   H3S20297   1.776   1.425  10.288 -0.0260  0.0917  0.5673
  178SLPC   C2420298   1.864   1.476  10.099 -0.7212 -0.0962 -0.6355
  178SLPC   H4R20299   1.759   1.502  10.073 -1.7928 -3.1218  0.3120
  178SLPC   H4S20300   1.888   1.375  10.060 -1.4174 -0.7878  0.6584
  178SLPC   C2520301   1.968   1.573  10.024  0.0151 -0.4301 -0.8799
  178SLPC   H5R20302   2.075   1.546  10.034  0.4052  1.1054 -0.6722
  178SLPC   H5S20303   1.960   1.675  10.066 -0.7264 -0.9573  0.3102
  178SLPC   C2620304   1.941   1.580   9.869  0.2208 -0.3613 -0.3139
  178SLPC   H6R20305   1.835   1.593   9.837  0.5638  1.2772 -0.9135
  178SLPC   H6S20306   1.973   1.486   9.820  3.1974 -0.5544  1.7164
  178SLPC   C2720307   2.022   1.684   9.800 -0.0992  0.0264  0.0849
  178SLPC   H7R20308   2.121   1.672   9.849 -0.1589 -2.6901 -0.2602
  178SLPC   H7S20309   1.992   1.787   9.827  0.1263  0.0488  0.2525
  178SLPC   C2820310   2.040   1.668   9.647  0.1937  0.2421  0.5209
  178SLPC   H8R20311   2.076   1.563   9.639  2.4944  0.8558  1.9610
  178SLPC   H8S20312   2.129   1.726   9.616  0.8071  0.2307  2.1512
  178SLPC   C2920313   1.921   1.688   9.561  0.5631  0.2629  0.1978
  178SLPC   H9R20314   1.834   1.629   9.596 -0.0046  1.4302  0.8192
  178SLPC  C21020315   1.908   1.788   9.470 -0.3226  0.4166  0.7431
  178SLPC  H10R20316   1.820   1.787   9.404 -0.2591  0.4689  0.6559
  178SLPC  C21120317   2.021   1.880   9.430  0.1424  0.2683 -0.7225
  178SLPC  H11R20318   2.073   1.913   9.523  0.3024 -0.9054 -0.3830
  178SLPC  H11S20319   1.982   1.980   9.402 -0.6123 -0.1477 -1.1983
  178SLPC  C21220320   2.118   1.822   9.337 -0.5572 -0.2983  0.4832
  178SLPC  H12R20321   2.196   1.762   9.387  0.0309  0.3461  0.3619
  178SLPC  C21320322   2.126   1.828   9.202 -0.2424  0.2253 -0.6310
  178SLPC  H13R20323   2.202   1.774   9.143 -1.7245 -2.5078 -0.1929
  178SLPC  C21420324   2.042   1.917   9.109 -0.5199 -0.4055 -0.0493
  178SLPC  H14R20325   2.096   1.937   9.014 -2.7953 -1.4460 -1.6389
  178SLPC  H14S20326   2.021   2.015   9.157 -0.4723  0.5652 -1.9165
  178SLPC  C21520327   1.915   1.850   9.064 -0.1590  0.2760  0.8789
  178SLPC  H15R20328   1.868   1.800   9.152 -0.0623 -2.2741 -0.4361
  178SLPC  H15S20329   1.924   1.772   8.985 -0.9375  1.3553 -0.3167
  178SLPC  C21620330   1.801   1.942   9.002 -0.9254 -0.9834 -0.7523
  178SLPC  H16R20331   1.819   2.045   9.041  0.0147 -1.4686  0.1194
  178SLPC  H16S20332   1.702   1.894   9.021 -1.4796  0.3701 -0.0430
  178SLPC  C21720333   1.802   1.953   8.849 -0.3802  0.4402  0.1091
  178SLPC  H17R20334   1.787   1.850   8.809  0.1425  0.4976 -0.2418
  178SLPC  H17S20335   1.907   1.980   8.827  0.4415 -1.7165  1.1151
  178SLPC  C21820336   1.696   2.057   8.794 -0.1054 -0.3256 -0.9989
  178SLPC  H18R20337   1.713   2.047   8.685  0.2468 -3.3870 -0.7541
  178SLPC  H18S20338   1.720   2.155   8.842  0.3517  0.2874 -2.4170
  178SLPC  H18T20339   1.591   2.024   8.806 -0.4616  0.6745 -1.2794
  178SLPC   C3320340   2.465   1.789   9.985  0.3717 -0.7838 -0.1305
  178SLPC   H3X20341   2.573   1.765   9.995  0.5229  0.6884  2.6613
  178SLPC   H3Y20342   2.447   1.887  10.035 -1.8899  0.5452 -3.2037
  178SLPC   C3420343   2.424   1.817   9.838 -0.9687  0.8601 -0.4703
  178SLPC   H4X20344   2.456   1.922   9.819 -1.8583  1.0213 -1.1173
  178SLPC   H4Y20345   2.315   1.813   9.818 -1.1183  1.8999  0.0681
  178SLPC   C3520346   2.508   1.727   9.747 -0.5661  0.5101 -1.1893
  178SLPC   H5X20347   2.504   1.617   9.765  2.4632  0.4557 -0.3492
  178SLPC   H5Y20348   2.616   1.748   9.760 -0.4014 -0.7359 -0.3485
  178SLPC   C3620349   2.481   1.752   9.600  0.1037 -0.0880 -0.1468
  178SLPC   H6X20350   2.374   1.750   9.571  0.3364  2.2740 -1.3952
  178SLPC   H6Y20351   2.532   1.673   9.542 -0.1699  0.8252 -1.6812
  178SLPC   C3720352   2.529   1.888   9.551 -0.4761  0.3552 -0.4311
  178SLPC   H7X20353   2.635   1.900   9.583 -0.2538 -0.9391 -0.6361
  178SLPC   H7Y20354   2.473   1.968   9.604 -0.1104  0.6531 -0.4874
  178SLPC   C3820355   2.511   1.925   9.405 -0.1410 -0.6448  0.1251
  178SLPC   H8X20356   2.557   2.025   9.386  0.6423 -0.4627  2.6181
  178SLPC   H8Y20357   2.401   1.933   9.391 -0.2424  0.8219  1.4908
  178SLPC   C3920358   2.569   1.818   9.307 -0.1111  0.0046  0.4711
  178SLPC   H9X20359   2.512   1.726   9.331 -0.0100 -0.2493 -0.2421
  178SLPC   H9Y20360   2.677   1.813   9.334  0.3787  0.8572 -1.1396
  178SLPC  C31020361   2.549   1.849   9.157  0.6522  0.7253 -0.4424
  178SLPC  H10X20362   2.588   1.950   9.132 -0.0963  1.1882  0.2245
  178SLPC  H10Y20363   2.441   1.872   9.143 -0.1723 -2.7172 -0.5927
  178SLPC  C31120364   2.603   1.743   9.063  0.3989 -0.1598 -0.3952
  178SLPC  H11X20365   2.610   1.644   9.112  2.9343  1.1592  2.2404
  178SLPC  H11Y20366   2.707   1.769   9.030  0.4018 -0.7538 -0.8715
  178SLPC  C31220367   2.529   1.731   8.929  0.0546 -0.4535 -0.4440
  178SLPC  H12X20368   2.433   1.684   8.960  1.2112 -1.2893  2.1452
  178SLPC  H12Y20369   2.593   1.662   8.870  0.6209  0.6789 -1.1925
  178SLPC  C31320370   2.521   1.865   8.850 -0.3231  0.1068 -0.3281
  178SLPC  H13X20371   2.576   1.857   8.753 -0.3779  1.7257 -0.5307
  178SLPC  H13Y20372   2.582   1.943   8.901  0.0416 -0.0074 -0.5812
  178SLPC  C31420373   2.375   1.902   8.820 -0.6083  0.0298  0.1181
  178SLPC  H14X20374   2.363   2.006   8.785  1.5114  0.9510  1.8479
  178SLPC  H14Y20375   2.323   1.903   8.918 -1.3714  2.2166 -0.2647
  178SLPC  C31520376   2.310   1.799   8.723  0.3204 -0.2640  0.8872
  178SLPC  H15X20377   2.398   1.756   8.670  1.5346 -0.1992  2.7560
  178SLPC  H15Y20378   2.276   1.720   8.793  1.9503 -0.6024  1.3391
  178SLPC  C31620379   2.201   1.845   8.628 -0.0879  0.3127  0.8348
  178SLPC  H16X20380   2.250   1.914   8.557  2.8389 -1.0668  1.3583
  178SLPC  H16Y20381   2.119   1.897   8.682 -1.2846 -1.5587  0.9306
  178SLPC  C31720382   2.147   1.725   8.542  0.2665  0.2377  0.4479
  178SLPC  H17X20383   2.114   1.642   8.608  3.9401  0.3843  2.7319
  178SLPC  H17Y20384   2.238   1.679   8.498 -0.4774 -3.1460  2.1062
  178SLPC  C31820385   2.055   1.759   8.436  0.2548 -0.5945  0.1145
  178SLPC  H18X20386   2.074   1.856   8.385  0.8414  0.3582  2.0755
  178SLPC  H18Y20387   1.950   1.783   8.466 -1.2066 -1.1521 -3.8652
  178SLPC  H18Z20388   2.049   1.676   8.362  1.8412 -0.9086  0.3207
  179SLPC     N20389   2.247   5.886  10.700 -0.1235 -0.1216 -0.5102
  179SLPC   C1320390   2.268   5.858  10.851 -0.0793 -0.1637  0.3655
  179SLPC  H13A20391   2.218   5.764  10.866  0.8781 -0.7029  0.2567
  179SLPC  H13B20392   2.371   5.839  10.876 -0.2150  1.0632  2.0930
  179SLPC  H13C20393   2.226   5.939  10.910 -0.8722 -0.6056  0.4179
  179SLPC   C1420394   2.335   6.004  10.676 -0.1172 -0.2334  0.4820
  179SLPC  H14A20395   2.436   5.999  10.712  0.5698 -0.4284 -1.3902
  179SLPC  H14B20396   2.349   6.032  10.573 -0.4554  0.5106  0.6308
  179SLPC  H14C20397   2.298   6.099  10.712  0.4565  0.5441 -0.9251
  179SLPC   C1520398   2.104   5.924  10.670 -0.1960 -0.0403 -0.2478
  179SLPC  H15A20399   2.055   5.833  10.638  0.0232 -0.6311  1.0358
  179SLPC  H15B20400   2.060   5.964  10.760  1.3038 -1.0879  1.0112
  179SLPC  H15C20401   2.108   5.989  10.583  0.0199  1.3173  0.7420
  179SLPC   C1220402   2.294   5.768  10.615  0.1325 -1.0530  0.8885
  179SLPC  H12A20403   2.400   5.752  10.624 -0.2812 -3.5358  2.1203
  179SLPC  H12B20404   2.282   5.773  10.508 -0.7220 -1.9164  0.9320
  179SLPC   C1120405   2.231   5.626  10.644  0.0371 -0.5248 -0.1877
  179SLPC  H11A20406   2.241   5.600  10.751  0.0778 -0.4189 -0.1653
  179SLPC  H11B20407   2.300   5.557  10.589  0.9360 -0.6401  1.0544
  179SLPC     P20408   2.066   5.584  10.452 -0.0671 -0.1599 -0.2436
  179SLPC   O1320409   2.046   5.440  10.430 -0.5324  0.1904  0.2410
  179SLPC   O1420410   1.953   5.674  10.413  0.4764  0.1763 -0.0419
  179SLPC   O1220411   2.101   5.618  10.599  0.2596 -0.2222  0.0433
  179SLPC   O1120412   2.187   5.627  10.373 -0.0796  0.5435  0.4503
  179SLPC    C120413   2.300   5.548  10.330 -0.1704  0.3478  0.2558
  179SLPC    HA20414   2.391   5.575  10.388  1.3847 -3.6607 -0.0134
  179SLPC    HB20415   2.287   5.441  10.356  2.3391 -0.5449 -1.7155
  179SLPC    C220416   2.329   5.544  10.175  0.2094 -0.0033 -0.0343
  179SLPC    HS20417   2.390   5.637  10.167 -0.6303  0.5900  0.4016
  179SLPC   O2120418   2.208   5.533  10.105  0.3351 -0.5102  0.2806
  179SLPC   C2120419   2.144   5.649  10.076 -0.6765  0.1553 -0.4458
  179SLPC   O2220420   2.202   5.755  10.097  0.3886 -0.1518  0.2785
  179SLPC   C2220421   1.999   5.630  10.043 -0.8434 -0.0697  0.1740
  179SLPC   H2R20422   1.950   5.561  10.115 -1.6072 -1.3884 -1.5417
  179SLPC   H2S20423   1.947   5.728  10.048 -1.5184 -0.3898 -0.4126
  179SLPC    C320424   2.419   5.424  10.125 -0.2242  0.2181  0.0666
  179SLPC    HX20425   2.362   5.333  10.149 -0.8113  1.0941  2.2120
  179SLPC    HY20426   2.513   5.425  10.184 -1.1033  1.5436  1.5400
  179SLPC   O3120427   2.445   5.431   9.980 -0.1813 -1.1571 -0.1323
  179SLPC   C3120428   2.362   5.366   9.902 -1.0675  0.2311 -0.7027
  179SLPC   O3220429   2.278   5.285   9.932  0.2285 -0.6630  0.6308
  179SLPC   C3220430   2.409   5.398   9.757  0.0763  0.0078 -0.4746
  179SLPC   H2X20431   2.325   5.458   9.716  0.8410  1.6774  0.3124
  179SLPC   H2Y20432   2.435   5.305   9.704 -0.8354 -0.5332  0.0022
  179SLPC   C2320433   1.981   5.552   9.907  0.0903 -0.5354  0.1065
  179SLPC   H3R20434   1.872   5.530   9.900  0.4317 -1.9387 -1.7359
  179SLPC   H3S20435   2.032   5.453   9.917  0.0487 -0.3485  2.5806
  179SLPC   C2420436   2.023   5.629   9.777 -0.5305 -0.0239  0.3211
  179SLPC   H4R20437   2.131   5.607   9.762 -0.3925  1.6084 -1.5421
  179SLPC   H4S20438   2.006   5.737   9.799 -0.1801  0.1113 -0.0588
  179SLPC   C2520439   1.953   5.579   9.652 -0.5843 -0.5305  0.0811
  179SLPC   H5R20440   1.844   5.600   9.649 -0.4065  0.8169  1.5145
  179SLPC   H5S20441   1.961   5.468   9.655  1.0085 -0.4511 -0.0622
  179SLPC   C2620442   2.026   5.618   9.524  0.0914 -0.0640 -0.5103
  179SLPC   H6R20443   2.132   5.592   9.543 -0.0327  0.3480  0.9345
  179SLPC   H6S20444   2.000   5.725   9.506  1.5251  0.4487  0.2701
  179SLPC   C2720445   1.972   5.543   9.405 -0.1945  0.1793  0.2626
  179SLPC   H7R20446   1.861   5.541   9.408 -0.1659 -0.6725  0.9611
  179SLPC   H7S20447   1.991   5.434   9.413  2.5204  0.3898 -2.0041
  179SLPC   C2820448   2.032   5.601   9.275  0.0342 -0.0091 -0.5755
  179SLPC   H8R20449   2.057   5.519   9.203 -2.2112 -3.7534  2.5296
  179SLPC   H8S20450   2.135   5.637   9.297 -0.0309  0.6918 -1.3870
  179SLPC   C2920451   1.951   5.707   9.221 -0.0104 -0.3965 -0.6973
  179SLPC   H9R20452   1.920   5.788   9.289  0.1742  0.0736 -1.1647
  179SLPC  C21020453   1.924   5.730   9.091 -0.3737 -0.2800  0.2413
  179SLPC  H10R20454   1.858   5.813   9.059  0.1362 -0.3605 -1.1156
  179SLPC  C21120455   1.974   5.650   8.971  0.2615 -0.0382 -0.4820
  179SLPC  H11R20456   1.903   5.567   8.950  2.0971 -1.7947 -0.0937
  179SLPC  H11S20457   2.067   5.593   8.989 -1.3566 -2.0455  2.4801
  179SLPC  C21220458   1.991   5.742   8.857 -0.1680  0.0179  0.3070
  179SLPC  H12R20459   2.026   5.845   8.875  0.6072 -0.0401 -0.8028
  179SLPC  C21320460   1.971   5.710   8.728 -0.2250 -0.3902 -0.1970
  179SLPC  H13R20461   1.984   5.793   8.657  0.0913 -0.0091  0.3027
  179SLPC  C21420462   1.915   5.576   8.677  0.2365 -0.2084 -0.4517
  179SLPC  H14R20463   1.854   5.585   8.585 -0.0690 -2.2608 -0.5002
  179SLPC  H14S20464   1.856   5.519   8.752  0.6758  0.4887  0.4485
  179SLPC  C21520465   2.042   5.495   8.639  0.2798  0.2445  0.4569
  179SLPC  H15R20466   2.005   5.397   8.600 -1.7365  1.6504 -1.3813
  179SLPC  H15S20467   2.107   5.476   8.727 -0.4269  0.2561  0.9909
  179SLPC  C21620468   2.128   5.550   8.523 -0.0060 -0.6876 -0.1086
  179SLPC  H16R20469   2.218   5.485   8.524 -1.2490 -2.4924 -0.4430
  179SLPC  H16S20470   2.164   5.652   8.549  0.5099 -0.6757 -0.8576
  179SLPC  C21720471   2.069   5.537   8.385 -0.0607 -0.5101 -0.6111
  179SLPC  H17R20472   1.984   5.608   8.379 -0.2144 -0.0070  3.7290
  179SLPC  H17S20473   2.041   5.434   8.355  2.2102 -1.0653 -0.9959
  179SLPC  C21820474   2.166   5.576   8.271 -0.0974 -0.0867 -0.4620
  179SLPC  H18R20475   2.139   5.555   8.165  0.7600  0.8954 -0.8886
  179SLPC  H18S20476   2.259   5.518   8.282  0.9471  1.6512  0.3352
  179SLPC  H18T20477   2.204   5.680   8.281  0.2978 -0.3746  1.3205
  179SLPC   C3320478   2.531   5.497   9.739  0.6419 -0.1327 -0.4462
  179SLPC   H3X20479   2.621   5.448   9.783 -0.4089 -0.7077  1.1069
  179SLPC   H3Y20480   2.509   5.595   9.787 -2.4714 -0.0786 -1.7572
  179SLPC   C3420481   2.551   5.523   9.584 -0.2727  0.4111 -0.2000
  179SLPC   H4X20482   2.608   5.617   9.574  0.1202  0.4179  1.6633
  179SLPC   H4Y20483   2.459   5.526   9.521 -1.9973  1.3543  2.2042
  179SLPC   C3520484   2.632   5.416   9.511  0.0582  0.2761 -0.0714
  179SLPC   H5X20485   2.565   5.327   9.515 -0.7487  0.7590 -2.0266
  179SLPC   H5Y20486   2.725   5.383   9.562  0.4252 -1.8492 -1.9699
  179SLPC   C3620487   2.668   5.447   9.362 -0.3429  0.4595  0.6429
  179SLPC   H6X20488   2.739   5.532   9.350  0.2253  0.3417  2.8897
  179SLPC   H6Y20489   2.566   5.479   9.330 -0.0592  1.2211  0.4726
  179SLPC   C3720490   2.734   5.334   9.284 -0.1776  0.6075  0.5372
  179SLPC   H7X20491   2.661   5.251   9.267 -2.1327  2.7284 -2.4749
  179SLPC   H7Y20492   2.826   5.299   9.335  0.0857  1.3320  0.5576
  179SLPC   C3820493   2.773   5.375   9.141  0.1178 -0.0909 -0.0568
  179SLPC   H8X20494   2.866   5.433   9.158 -0.3333  0.3673  1.0072
  179SLPC   H8Y20495   2.696   5.438   9.092  1.1718  1.9886  0.8171
  179SLPC   C3920496   2.820   5.252   9.060 -0.6804  0.7578 -0.8492
  179SLPC   H9X20497   2.861   5.178   9.132 -3.2432 -0.3945 -0.4935
  179SLPC   H9Y20498   2.900   5.280   8.988  0.8508 -1.7429 -0.2334
  179SLPC  C31020499   2.700   5.185   8.986 -0.4617 -0.7752 -0.7100
  179SLPC  H10X20500   2.686   5.248   8.895  0.4959 -0.6971 -0.8152
  179SLPC  H10Y20501   2.607   5.188   9.046 -0.7347  0.1644 -1.1499
  179SLPC  C31120502   2.741   5.042   8.943 -1.1253  0.5992  0.7309
  179SLPC  H11X20503   2.749   4.982   9.036 -1.7192 -1.3990 -0.4600
  179SLPC  H11Y20504   2.842   5.040   8.896 -0.7306 -0.3284  1.5821
  179SLPC  C31220505   2.634   4.992   8.843 -0.1620  0.0334 -0.3756
  179SLPC  H12X20506   2.648   5.053   8.751  1.5159  1.1998  0.5990
  179SLPC  H12Y20507   2.534   5.022   8.881 -0.4960 -2.8595  1.2806
  179SLPC  C31320508   2.633   4.837   8.820 -0.1501  0.7488  0.2542
  179SLPC  H13X20509   2.602   4.782   8.912  0.9840 -0.1472  0.1224
  179SLPC  H13Y20510   2.734   4.792   8.807 -0.6166 -0.7863  1.4983
  179SLPC  C31420511   2.551   4.801   8.696 -0.6041  0.2652  0.3646
  179SLPC  H14X20512   2.610   4.835   8.609 -1.9049  0.8635 -0.3139
  179SLPC  H14Y20513   2.464   4.869   8.690 -0.2025  0.6879 -0.9133
  179SLPC  C31520514   2.503   4.654   8.681  0.2844 -0.2893 -0.6799
  179SLPC  H15X20515   2.429   4.643   8.598 -1.4044  1.0915  0.5598
  179SLPC  H15Y20516   2.436   4.616   8.761 -1.6889  0.6359 -1.7994
  179SLPC  C31620517   2.623   4.563   8.670  0.1124 -0.1419 -0.5279
  179SLPC  H16X20518   2.654   4.534   8.773 -0.6943 -0.6325 -0.4122
  179SLPC  H16Y20519   2.709   4.606   8.614 -1.3005 -0.1047 -2.7891
  179SLPC  C31720520   2.598   4.428   8.600  0.0980 -0.1184 -0.0724
  179SLPC  H17X20521   2.695   4.416   8.547  0.6639  1.1626  0.6112
  179SLPC  H17Y20522   2.531   4.442   8.514 -1.1575  1.6110  1.1286
  179SLPC  C31820523   2.564   4.312   8.691 -0.3420  0.1707 -0.9303
  179SLPC  H18X20524   2.476   4.328   8.757 -0.8456 -2.5414 -0.8237
  179SLPC  H18Y20525   2.655   4.301   8.753 -0.4126  1.0529 -0.6548
  179SLPC  H18Z20526   2.547   4.217   8.636 -0.4991  0.4209 -1.3191
  180SLPC     N20527   4.210   3.699  10.965  0.4923  0.3497  0.0681
  180SLPC   C1320528   4.166   3.585  11.046  0.1222  1.0892 -0.0595
  180SLPC  H13A20529   4.061   3.581  11.072 -1.1149  0.6003 -4.3000
  180SLPC  H13B20530   4.180   3.496  10.986 -0.6767  0.7505  0.2511
  180SLPC  H13C20531   4.220   3.572  11.138 -0.5306 -0.9452  0.0874
  180SLPC   C1420532   4.361   3.687  10.955  0.9209 -0.2885 -0.0586
  180SLPC  H14A20533   4.404   3.775  10.910  1.2783 -0.7302 -0.5961
  180SLPC  H14B20534   4.392   3.686  11.059  0.4086 -0.8912  0.0961
  180SLPC  H14C20535   4.382   3.600  10.896 -0.7566  0.9608 -2.6631
  180SLPC   C1520536   4.179   3.828  11.038  0.8666 -0.1050  0.2114
  180SLPC  H15A20537   4.252   3.903  11.013  1.4137 -0.5010  0.5901
  180SLPC  H15B20538   4.077   3.854  11.015  0.6558 -0.6024  0.5774
  180SLPC  H15C20539   4.180   3.807  11.144  0.9318  0.6433  0.3663
  180SLPC   C1220540   4.152   3.708  10.828 -0.5602 -0.1296  0.1306
  180SLPC  H12A20541   4.171   3.801  10.776 -0.4532  0.4775  1.2017
  180SLPC  H12B20542   4.044   3.710  10.840 -0.4672  0.7151  1.0310
  180SLPC   C1120543   4.183   3.595  10.725 -0.3538 -0.4508 -0.6886
  180SLPC  H11A20544   4.293   3.581  10.723 -0.1397  0.1070  2.5398
  180SLPC  H11B20545   4.142   3.640  10.632 -2.1780  1.1756  0.8049
  180SLPC     P20546   3.962   3.442  10.752 -0.2527 -0.1506 -0.1796
  180SLPC   O1320547   3.932   3.303  10.798 -0.2038 -0.4098  0.5818
  180SLPC   O1420548   3.893   3.555  10.821 -0.4650 -0.2441 -0.1364
  180SLPC   O1220549   4.124   3.462  10.760  0.9770 -0.0255  0.3493
  180SLPC   O1120550   3.943   3.463  10.602 -0.0957  0.4653  0.1378
  180SLPC    C120551   3.984   3.366  10.501  0.4879  0.5416 -0.2713
  180SLPC    HA20552   4.020   3.276  10.555 -2.8859 -0.3898  0.6873
  180SLPC    HB20553   3.893   3.335  10.445  0.4075  1.8930 -0.9281
  180SLPC    C220554   4.082   3.431  10.406 -1.0569  0.0178  0.1999
  180SLPC    HS20555   4.172   3.438  10.471 -1.4480 -2.0298  1.0395
  180SLPC   O2120556   4.048   3.565  10.360  0.1980  0.0214 -0.5261
  180SLPC   C2120557   4.142   3.645  10.302 -0.5722  0.2517  0.7121
  180SLPC   O2220558   4.259   3.612  10.283 -0.3588 -0.1313  0.1293
  180SLPC   C2220559   4.088   3.780  10.284  0.0721 -0.6271 -0.3911
  180SLPC   H2R20560   3.989   3.788  10.333 -0.9746 -0.2317 -2.4504
  180SLPC   H2S20561   4.163   3.853  10.322 -1.4259  1.4260 -1.1439
  180SLPC    C320562   4.112   3.334  10.282 -0.1633 -0.2435 -0.4123
  180SLPC    HX20563   4.127   3.233  10.327 -1.4610 -0.9487 -1.5106
  180SLPC    HY20564   4.202   3.369  10.227  0.2557 -1.9238 -0.8566
  180SLPC   O3120565   3.996   3.323  10.196 -0.4431 -0.2668 -0.0535
  180SLPC   C3120566   3.996   3.225  10.117  0.6049 -0.1012  0.7345
  180SLPC   O3220567   4.091   3.155  10.096 -0.1444 -0.1325 -0.3280
  180SLPC   C3220568   3.858   3.209  10.051  0.2129  0.1243  0.7505
  180SLPC   H2X20569   3.786   3.188  10.132 -0.1617  0.4986  0.5200
  180SLPC   H2Y20570   3.868   3.129   9.974  0.1684  1.8284 -1.1012
  180SLPC   C2320571   4.085   3.821  10.130 -0.2575 -0.7793 -0.3287
  180SLPC   H3R20572   4.182   3.782  10.091  0.8160  0.2136  1.2293
  180SLPC   H3S20573   4.092   3.931  10.137  0.0136 -0.8823  1.6012
  180SLPC   C2420574   3.954   3.779  10.062 -0.7234  0.2507  0.2604
  180SLPC   H4R20575   3.876   3.829  10.122  0.4694  1.1827  1.0785
  180SLPC   H4S20576   3.945   3.669  10.071  1.3547  0.0550  0.2920
  180SLPC   C2520577   3.941   3.817   9.912 -0.0713 -0.5840  0.3544
  180SLPC   H5R20578   3.958   3.924   9.888  2.4261 -0.7462  1.1295
  180SLPC   H5S20579   3.838   3.796   9.876  0.0765  0.6834 -0.8839
  180SLPC   C2620580   4.046   3.743   9.820 -0.6216 -0.3515  0.1178
  180SLPC   H6R20581   4.012   3.641   9.794  2.1926 -0.9846 -1.5043
  180SLPC   H6S20582   4.139   3.716   9.874  1.1836  0.2479 -2.4498
  180SLPC   C2720583   4.080   3.830   9.694 -0.2147 -0.5253  0.3101
  180SLPC   H7R20584   4.160   3.777   9.637  0.5285  0.3759  0.4863
  180SLPC   H7S20585   4.126   3.928   9.721 -1.0769  1.4414 -4.3032
  180SLPC   C2820586   3.956   3.834   9.595 -0.3421  0.3755  0.4205
  180SLPC   H8R20587   3.874   3.885   9.649  0.6764 -0.0420  2.4798
  180SLPC   H8S20588   3.928   3.731   9.566 -1.7035  0.5538  1.0487
  180SLPC   C2920589   3.984   3.925   9.472 -0.1595  0.5181 -0.4840
  180SLPC   H9R20590   3.994   4.030   9.500 -0.6685 -0.1261  2.3516
  180SLPC  C21020591   4.008   3.880   9.348  0.3504  0.5343 -0.0239
  180SLPC  H10R20592   4.021   3.955   9.269  1.6464 -0.0687 -0.4044
  180SLPC  C21120593   4.016   3.745   9.289  0.3042  0.3684  0.4100
  180SLPC  H11R20594   4.011   3.675   9.375  0.9430  1.4401  1.3487
  180SLPC  H11S20595   4.117   3.728   9.244  0.1302  0.4549 -0.0159
  180SLPC  C21220596   3.910   3.725   9.182 -0.0861  0.4152  0.3893
  180SLPC  H12R20597   3.813   3.728   9.234  0.1712  2.2646  0.8147
  180SLPC  C21320598   3.922   3.700   9.049 -0.1664  0.2699 -0.3987
  180SLPC  H13R20599   3.834   3.711   8.984 -0.0367 -3.3506 -1.4594
  180SLPC  C21420600   4.059   3.685   8.978 -0.2422 -0.6293  0.0252
  180SLPC  H14R20601   4.076   3.584   8.936 -3.1594 -0.2192 -2.4771
  180SLPC  H14S20602   4.144   3.709   9.045 -0.3729  1.2024 -0.3855
  180SLPC  C21520603   4.060   3.775   8.857 -0.5177 -0.3476 -0.0012
  180SLPC  H15R20604   4.052   3.882   8.884 -1.4715 -0.8144  1.7191
  180SLPC  H15S20605   3.980   3.759   8.781  0.6341 -0.2734 -1.2732
  180SLPC  C21620606   4.202   3.763   8.784 -0.1334 -0.1028 -0.3506
  180SLPC  H16R20607   4.188   3.797   8.680 -1.2327 -1.4143 -0.6580
  180SLPC  H16S20608   4.231   3.656   8.780 -0.6665 -0.3141  0.9031
  180SLPC  C21720609   4.319   3.843   8.857 -0.4201  0.7363 -0.6183
  180SLPC  H17R20610   4.337   3.810   8.961 -2.6606  0.9331 -0.1091
  180SLPC  H17S20611   4.305   3.953   8.854  0.0038  0.7802 -1.2068
  180SLPC  C21820612   4.447   3.819   8.783  0.1358  0.2662 -0.5066
  180SLPC  H18R20613   4.477   3.713   8.796  1.9529  0.7876 -0.1660
  180SLPC  H18S20614   4.527   3.887   8.821  1.2525 -1.7191  0.8773
  180SLPC  H18T20615   4.438   3.840   8.674 -0.2639  1.1068 -0.3169
  180SLPC   C3320616   3.797   3.329   9.968 -0.7319  0.3464  0.2210
  180SLPC   H3X20617   3.820   3.422  10.024 -0.1830  0.1145  0.3870
  180SLPC   H3Y20618   3.687   3.315   9.959 -0.6552 -0.3321  0.2835
  180SLPC   C3420619   3.850   3.338   9.823 -0.3508 -0.3973  0.4068
  180SLPC   H4X20620   3.815   3.248   9.767 -1.7652  0.8106 -0.7329
  180SLPC   H4Y20621   3.960   3.347   9.825 -0.3920  0.0443  0.7485
  180SLPC   C3520622   3.795   3.454   9.742  0.7757  0.6801  0.0837
  180SLPC   H5X20623   3.838   3.551   9.775  0.4684  1.1918 -0.9503
  180SLPC   H5Y20624   3.684   3.442   9.743  0.9443 -1.4801  2.1720
  180SLPC   C3620625   3.828   3.447   9.588  0.2589  0.3501  0.1681
  180SLPC   H6X20626   3.929   3.494   9.589  0.5853 -0.3376  1.2458
  180SLPC   H6Y20627   3.767   3.519   9.529  0.7361  0.5822 -0.0488
  180SLPC   C3720628   3.844   3.325   9.513  0.3779  0.3446  0.4057
  180SLPC   H7X20629   3.759   3.254   9.528 -1.0878  2.2536  1.6058
  180SLPC   H7Y20630   3.931   3.269   9.555  0.9354  0.8098 -0.1129
  180SLPC   C3820631   3.862   3.351   9.369 -0.1592 -0.4529 -0.2461
  180SLPC   H8X20632   3.957   3.406   9.352 -1.0896  0.9474 -1.1677
  180SLPC   H8Y20633   3.778   3.412   9.328 -0.4403 -0.4643  0.3040
  180SLPC   C3920634   3.872   3.219   9.290  0.8000 -0.8118  0.3519
  180SLPC   H9X20635   3.789   3.149   9.312 -3.0697  2.6276 -1.7241
  180SLPC   H9Y20636   3.968   3.172   9.321  2.5893  1.5454 -1.1782
  180SLPC  C31020637   3.882   3.234   9.139  0.5900  0.1562 -0.0331
  180SLPC  H10X20638   3.933   3.140   9.107  1.2051 -0.0771  1.5575
  180SLPC  H10Y20639   3.943   3.324   9.117 -1.4439  1.5297 -0.2599
  180SLPC  C31120640   3.747   3.247   9.070 -0.9024  0.3826 -0.3300
  180SLPC  H11X20641   3.692   3.333   9.113 -0.7368  0.3777 -0.1101
  180SLPC  H11Y20642   3.684   3.159   9.094  0.1761  0.5442  3.6839
  180SLPC  C31220643   3.759   3.251   8.914  0.2795 -0.5264  0.3128
  180SLPC  H12X20644   3.667   3.219   8.860  0.3309 -0.9898  0.4989
  180SLPC  H12Y20645   3.843   3.184   8.883  1.0249 -0.3632  1.8800
  180SLPC  C31320646   3.801   3.387   8.867 -0.0612 -0.2395 -0.8583
  180SLPC  H13X20647   3.902   3.419   8.899 -1.3913  2.4948  1.0567
  180SLPC  H13Y20648   3.731   3.464   8.907 -2.3829 -1.0005 -3.1508
  180SLPC  C31420649   3.778   3.398   8.718 -0.3339 -0.1108  0.1505
  180SLPC  H14X20650   3.674   3.370   8.691  1.0208 -3.0769 -2.7053
  180SLPC  H14Y20651   3.835   3.326   8.655 -0.4072  0.3219 -0.4197
  180SLPC  C31520652   3.816   3.543   8.672  0.1321 -0.0917 -0.0334
  180SLPC  H15X20653   3.925   3.565   8.677  0.0037  0.3291  1.6060
  180SLPC  H15Y20654   3.773   3.608   8.752 -0.3148 -1.7875  1.1510
  180SLPC  C31620655   3.767   3.574   8.527 -0.2899 -0.2501 -0.6873
  180SLPC  H16X20656   3.769   3.682   8.502 -0.7413 -0.0806 -0.0449
  180SLPC  H16Y20657   3.659   3.548   8.538 -0.4403  0.1252 -1.2523
  180SLPC  C31720658   3.832   3.492   8.424  0.3699 -0.7923  0.1965
  180SLPC  H17X20659   3.793   3.528   8.327  1.3341 -0.5781 -0.1214
  180SLPC  H17Y20660   3.805   3.384   8.427 -2.6621 -0.2921 -2.8249
  180SLPC  C31820661   3.981   3.507   8.406 -0.1850 -0.3460  0.8627
  180SLPC  H18X20662   4.017   3.608   8.376  2.0629 -1.9056 -2.2472
  180SLPC  H18Y20663   4.007   3.445   8.318 -0.9761 -2.6153  2.1715
  180SLPC  H18Z20664   4.035   3.467   8.494 -0.6183 -0.6519  0.9898
  181SLPC     N20665   0.945   0.369  10.738 -0.0371 -0.0817 -0.6104
  181SLPC   C1320666   0.843   0.268  10.763 -0.2047 -0.3442  0.3147
  181SLPC  H13A20667   0.883   0.202  10.839  1.6302 -0.6230 -0.8358
  181SLPC  H13B20668   0.756   0.320  10.800 -0.2856 -0.9913  1.0744
  181SLPC  H13C20669   0.827   0.216  10.670  1.6643  1.1840 -0.9619
  181SLPC   C1420670   1.075   0.295  10.702  0.0112  0.0176  0.6939
  181SLPC  H14A20671   1.131   0.249  10.782  0.4306 -1.1463 -0.2507
  181SLPC  H14B20672   1.049   0.219  10.630 -1.6613  1.7882 -0.6668
  181SLPC  H14C20673   1.140   0.365  10.651 -0.3661 -0.1426 -0.0130
  181SLPC   C1520674   0.963   0.445  10.866 -0.4466  0.1428 -0.0962
  181SLPC  H15A20675   0.973   0.371  10.944  0.1682 -0.8037 -1.0298
  181SLPC  H15B20676   1.052   0.507  10.861 -0.8001  0.6810  0.2479
  181SLPC  H15C20677   0.876   0.506  10.884 -1.0949 -0.8607  0.2514
  181SLPC   C1220678   0.900   0.459  10.626  0.4919  0.2115  0.6006
  181SLPC  H12A20679   0.906   0.395  10.540  1.1665 -0.8543  1.4214
  181SLPC  H12B20680   0.973   0.538  10.613 -0.4101  0.6926 -2.0425
  181SLPC   C1120681   0.763   0.523  10.653 -0.7775  0.1708 -0.5301
  181SLPC  H11A20682   0.688   0.441  10.663 -1.1656  0.6748  1.0163
  181SLPC  H11B20683   0.735   0.575  10.559  1.7008 -0.2664 -1.5928
  181SLPC     P20684   0.811   0.753  10.771 -0.2461 -0.1725 -0.1452
  181SLPC   O1320685   0.730   0.830  10.870  0.6074  0.5931 -0.1081
  181SLPC   O1420686   0.952   0.733  10.784 -0.0963  0.1285  0.1800
  181SLPC   O1220687   0.752   0.605  10.770 -0.0950 -0.2532 -0.4758
  181SLPC   O1120688   0.790   0.801  10.622 -0.1904  0.2607  0.4183
  181SLPC    C120689   0.658   0.825  10.572  0.0001 -0.4508  1.3008
  181SLPC    HA20690   0.626   0.738  10.510 -1.8189  1.9984 -1.4968
  181SLPC    HB20691   0.580   0.848  10.648 -0.4554 -0.5533  0.8748
  181SLPC    C220692   0.670   0.940  10.470  1.0142  0.1700  0.0943
  181SLPC    HS20693   0.571   0.963  10.426  1.6451 -1.3179 -2.2665
  181SLPC   O2120694   0.761   0.896  10.371 -0.0226  0.4007  0.0363
  181SLPC   C2120695   0.713   0.812  10.277 -0.0067  0.6354 -0.1937
  181SLPC   O2220696   0.594   0.806  10.252  0.0951 -0.1613 -0.0094
  181SLPC   C2220697   0.822   0.756  10.197 -0.3453 -0.2537  0.3932
  181SLPC   H2R20698   0.904   0.829  10.182  0.1743 -0.8245  0.3882
  181SLPC   H2S20699   0.868   0.668  10.248  1.2336  0.2482 -0.0782
  181SLPC    C320700   0.715   1.077  10.530 -0.7212 -0.3402  0.0270
  181SLPC    HX20701   0.812   1.080  10.584 -0.3628 -0.4357 -0.6048
  181SLPC    HY20702   0.639   1.089  10.610 -1.3099 -2.1162 -0.2197
  181SLPC   O3120703   0.710   1.180  10.433  0.2444  0.4211 -0.0386
  181SLPC   C3120704   0.828   1.195  10.364  0.8867 -0.1381  0.1332
  181SLPC   O3220705   0.936   1.142  10.393  0.2420  0.3759  0.5967
  181SLPC   C3220706   0.807   1.288  10.248 -0.3144 -0.5001  0.6218
  181SLPC   H2X20707   0.900   1.348  10.240 -0.0442 -0.8384  1.1648
  181SLPC   H2Y20708   0.724   1.361  10.263 -2.0825 -2.3353  0.1511
  181SLPC   C2320709   0.769   0.703  10.059  0.1247  0.4757  1.0246
  181SLPC   H3R20710   0.678   0.640  10.066 -1.0776  1.6535 -2.2912
  181SLPC   H3S20711   0.846   0.631  10.026 -1.7593 -1.6700  1.0639
  181SLPC   C2420712   0.762   0.822   9.965 -0.0912  0.1304  0.1641
  181SLPC   H4R20713   0.839   0.898   9.992  0.0065  0.2618 -0.4887
  181SLPC   H4S20714   0.667   0.877   9.978 -0.3281  0.2777 -1.9189
  181SLPC   C2520715   0.760   0.779   9.812 -0.0697  0.7929  0.0691
  181SLPC   H5R20716   0.677   0.705   9.810 -1.5238  2.2097  2.3651
  181SLPC   H5S20717   0.858   0.738   9.780  1.6253  3.4543  1.4254
  181SLPC   C2620718   0.705   0.885   9.714  0.0914  0.1636 -0.2146
  181SLPC   H6R20719   0.780   0.966   9.700  1.4718 -1.2115 -1.1432
  181SLPC   H6S20720   0.617   0.932   9.762 -1.5338 -1.8517 -1.0893
  181SLPC   C2720721   0.664   0.812   9.581 -0.3778 -0.1648 -0.4114
  181SLPC   H7R20722   0.577   0.744   9.592 -0.5010  0.0544 -0.0293
  181SLPC   H7S20723   0.749   0.761   9.531 -1.8485 -0.7565 -2.3975
  181SLPC   C2820724   0.621   0.920   9.483 -0.2419  0.1325 -0.3121
  181SLPC   H8R20725   0.631   0.877   9.381 -1.2592 -1.6516  0.3065
  181SLPC   H8S20726   0.703   0.995   9.481  1.1717 -1.3719 -1.4102
  181SLPC   C2920727   0.493   0.996   9.508  0.5787 -0.0381  0.1791
  181SLPC   H9R20728   0.470   1.016   9.613  0.2489  0.5164  0.0099
  181SLPC  C21020729   0.405   1.036   9.415  0.6989  0.0423  0.1951
  181SLPC  H10R20730   0.320   1.087   9.462  0.9074 -2.1777  3.3060
  181SLPC  C21120731   0.403   1.025   9.262  0.2380 -0.3179 -0.2981
  181SLPC  H11R20732   0.461   0.933   9.240  0.1220 -0.4598 -0.0235
  181SLPC  H11S20733   0.451   1.112   9.212  1.2614 -1.2836 -1.0325
  181SLPC  C21220734   0.263   1.024   9.198  0.5375 -0.2496  0.1318
  181SLPC  H12R20735   0.198   0.946   9.239 -1.3045  1.1440 -0.0240
  181SLPC  C21320736   0.210   1.111   9.113 -0.3674 -0.4591  0.1203
  181SLPC  H13R20737   0.101   1.113   9.093  0.0464  1.3681 -2.5452
  181SLPC  C21420738   0.275   1.230   9.058  0.7689 -1.1350  0.1114
  181SLPC  H14R20739   0.379   1.212   9.022  1.0241 -0.7718  0.6411
  181SLPC  H14S20740   0.287   1.310   9.135  0.0312  0.7155 -1.6120
  181SLPC  C21520741   0.204   1.299   8.941 -0.1185  0.5150  0.0094
  181SLPC  H15R20742   0.241   1.403   8.930  1.6509 -0.2284 -1.5129
  181SLPC  H15S20743   0.095   1.308   8.961 -0.4106  1.4336 -1.7844
  181SLPC  C21620744   0.217   1.224   8.803  0.2037  0.3300 -0.0871
  181SLPC  H16R20745   0.320   1.207   8.766 -0.0051  0.6427 -0.8231
  181SLPC  H16S20746   0.163   1.282   8.725  1.2676  0.3802 -0.8066
  181SLPC  C21720747   0.134   1.099   8.791  0.1052 -0.1048  0.2279
  181SLPC  H17R20748   0.028   1.120   8.819  0.0526 -0.6489  0.4521
  181SLPC  H17S20749   0.175   1.014   8.850 -1.0599 -0.7198  0.1789
  181SLPC  C21820750   0.146   1.043   8.643  0.1527  0.2907 -0.2425
  181SLPC  H18R20751   0.248   1.001   8.629  1.2723  3.0760 -1.0616
  181SLPC  H18S20752   0.109   1.121   8.573  0.4822 -0.2322 -1.0208
  181SLPC  H18T20753   0.072   0.960   8.632  0.8284 -0.5314  1.1399
  181SLPC   C3320754   0.776   1.210  10.123 -0.7156  0.4157 -0.9777
  181SLPC   H3X20755   0.675   1.166  10.133  0.0407 -1.1676  0.3838
  181SLPC   H3Y20756   0.847   1.127  10.099  0.7414  1.9302 -2.1155
  181SLPC   C3420757   0.777   1.306  10.006  0.3334 -0.2418 -0.0782
  181SLPC   H4X20758   0.876   1.354   9.993 -0.3970  1.2786 -0.4026
  181SLPC   H4Y20759   0.714   1.394  10.034  0.3184  0.0903 -1.0759
  181SLPC   C3520760   0.748   1.239   9.873  0.7319  0.7918  0.8891
  181SLPC   H5X20761   0.644   1.198   9.869  0.8132  0.5735  1.0153
  181SLPC   H5Y20762   0.817   1.154   9.859 -0.0085  0.4622 -1.0840
  181SLPC   C3620763   0.759   1.327   9.753 -0.5416  0.5809  0.2999
  181SLPC   H6X20764   0.863   1.363   9.735 -0.1904 -1.0358 -1.1506
  181SLPC   H6Y20765   0.701   1.415   9.788  1.0047  0.6749  2.8757
  181SLPC   C3720766   0.699   1.257   9.629  0.2036 -0.3103 -0.5179
  181SLPC   H7X20767   0.600   1.207   9.639 -0.1334  0.8003  2.7745
  181SLPC   H7Y20768   0.760   1.169   9.600  1.0143 -0.0927  0.4699
  181SLPC   C3820769   0.700   1.357   9.516 -0.6066 -0.7547  0.6100
  181SLPC   H8X20770   0.810   1.373   9.511 -0.9048  1.4282  0.1851
  181SLPC   H8Y20771   0.668   1.457   9.552  0.0163 -0.5541  0.6237
  181SLPC   C3920772   0.644   1.321   9.377  0.4188 -0.0645  0.1926
  181SLPC   H9X20773   0.568   1.240   9.380  0.4382 -0.1204 -0.6016
  181SLPC   H9Y20774   0.723   1.270   9.317 -1.4703 -1.2837 -1.3840
  181SLPC  C31020775   0.587   1.443   9.292 -0.0211  0.6458  0.3712
  181SLPC  H10X20776   0.571   1.405   9.189  1.0739  0.7637  0.1492
  181SLPC  H10Y20777   0.660   1.524   9.274  0.1000 -0.1417 -3.5654
  181SLPC  C31120778   0.453   1.488   9.349  0.4344 -0.2707  0.5351
  181SLPC  H11X20779   0.472   1.535   9.448 -0.6330 -1.2314  1.2191
  181SLPC  H11Y20780   0.392   1.395   9.359  0.6309 -0.6457 -1.3931
  181SLPC  C31220781   0.380   1.583   9.253  0.1487 -0.2418 -0.5352
  181SLPC  H12X20782   0.278   1.591   9.296  0.2534  2.3924 -0.6366
  181SLPC  H12Y20783   0.381   1.559   9.145 -0.6009  3.6255 -1.5556
  181SLPC  C31320784   0.444   1.727   9.251  1.4016 -0.0210  0.3848
  181SLPC  H13X20785   0.546   1.726   9.207  0.8582  2.5742 -1.1627
  181SLPC  H13Y20786   0.452   1.762   9.356 -1.8439 -1.1255  1.0914
  181SLPC  C31420787   0.364   1.829   9.168 -0.1926 -0.3186 -0.1347
  181SLPC  H14X20788   0.420   1.924   9.152 -2.4408  0.9638 -0.7676
  181SLPC  H14Y20789   0.267   1.851   9.217  1.5173  1.6132  2.6806
  181SLPC  C31520790   0.323   1.773   9.032  0.9466  0.3323 -0.3681
  181SLPC  H15X20791   0.242   1.698   9.047  1.7258 -0.5003 -0.2746
  181SLPC  H15Y20792   0.414   1.717   9.002 -0.2554 -2.3215  0.5967
  181SLPC  C31620793   0.271   1.881   8.932  0.2816 -0.8148  0.0819
  181SLPC  H16X20794   0.268   1.827   8.835 -0.4686 -1.2434  0.3359
  181SLPC  H16Y20795   0.351   1.958   8.932  0.1535 -0.6351  1.8633
  181SLPC  C31720796   0.123   1.923   8.952  0.3543 -0.0062 -0.3521
  181SLPC  H17X20797   0.119   1.948   9.061  2.4179 -1.3316  0.0672
  181SLPC  H17Y20798   0.055   1.837   8.932  0.3661 -0.7624  2.4120
  181SLPC  C31820799   0.074   2.043   8.863 -0.0684 -0.0409  0.4418
  181SLPC  H18X20800   0.088   2.029   8.754  3.3355  0.5955  0.6706
  181SLPC  H18Y20801   0.121   2.136   8.901 -0.7741  0.2944  0.5064
  181SLPC  H18Z20802  -0.031   2.058   8.896  0.1730  2.0037  0.4263
  182SLPC     N20803   5.012   5.308  10.692 -0.3620 -0.1330  0.6154
  182SLPC   C1320804   5.112   5.318  10.802  0.7411  0.4750 -0.7967
  182SLPC  H13A20805   5.195   5.381  10.774  2.1657 -1.3510 -0.8518
  182SLPC  H13B20806   5.066   5.356  10.892  1.0071  1.2947 -0.9960
  182SLPC  H13C20807   5.147   5.219  10.826  0.2539  0.2394 -1.0301
  182SLPC   C1420808   4.905   5.219  10.733  0.4654  1.1120 -0.5413
  182SLPC  H14A20809   4.815   5.230  10.675 -0.1485 -0.8924 -0.0304
  182SLPC  H14B20810   4.929   5.115  10.745 -5.0664 -0.1238  3.2907
  182SLPC  H14C20811   4.869   5.242  10.832 -1.4192 -1.1252 -0.6497
  182SLPC   C1520812   5.063   5.252  10.568 -0.1592 -0.2803  0.1316
  182SLPC  H15A20813   4.996   5.262  10.485  0.3181  1.0995 -0.1170
  182SLPC  H15B20814   5.153   5.305  10.539 -0.5723 -0.4964 -1.5945
  182SLPC  H15C20815   5.083   5.146  10.576  0.1920 -0.1475  1.2390
  182SLPC   C1220816   4.951   5.442  10.656 -0.0434  0.4713 -0.5097
  182SLPC  H12A20817   5.032   5.512  10.648  1.1314 -0.7870 -0.0174
  182SLPC  H12B20818   4.899   5.473  10.746  4.4703  1.2191  2.1209
  182SLPC   C1120819   4.860   5.456  10.534  0.4111  0.3783  0.0088
  182SLPC  H11A20820   4.918   5.460  10.439  0.5537  0.0067  0.0756
  182SLPC  H11B20821   4.823   5.559  10.550  0.1817 -0.0901  3.1152
  182SLPC     P20822   4.619   5.383  10.585  0.1782 -0.7043 -0.1251
  182SLPC   O1320823   4.543   5.254  10.593  0.2468 -0.5776 -0.5315
  182SLPC   O1420824   4.632   5.461  10.714  0.3361  0.1046  0.3852
  182SLPC   O1220825   4.761   5.350  10.530  0.5800 -0.0073 -0.0456
  182SLPC   O1120826   4.562   5.471  10.472 -0.1864 -0.8034 -0.4319
  182SLPC    C120827   4.560   5.427  10.340 -0.0531 -0.4620  0.3182
  182SLPC    HA20828   4.662   5.443  10.297 -0.1343 -0.0141  0.2883
  182SLPC    HB20829   4.538   5.319  10.326 -0.7694 -0.0468 -2.4946
  182SLPC    C220830   4.461   5.504  10.242 -0.3948  0.0586 -0.1633
  182SLPC    HS20831   4.364   5.450  10.232 -0.4589  0.2228 -0.4286
  182SLPC   O2120832   4.517   5.521  10.109 -0.3532 -0.2154 -0.2784
  182SLPC   C2120833   4.517   5.401  10.039  0.5119 -0.0767  1.1167
  182SLPC   O2220834   4.451   5.305  10.071 -0.4866  0.4584 -0.4505
  182SLPC   C2220835   4.601   5.424   9.915  0.0939 -0.3187  0.2861
  182SLPC   H2R20836   4.547   5.493   9.847 -1.0447 -1.5984 -0.1491
  182SLPC   H2S20837   4.696   5.474   9.943  0.7394 -0.7915 -0.9755
  182SLPC    C320838   4.437   5.651  10.283 -0.6505  0.2836  1.0792
  182SLPC    HX20839   4.537   5.700  10.288 -1.1381  1.3308  0.7906
  182SLPC    HY20840   4.392   5.648  10.385 -1.8498  0.7729  0.5688
  182SLPC   O3120841   4.350   5.716  10.191 -0.2547 -0.1183 -0.0556
  182SLPC   C3120842   4.391   5.823  10.123 -0.4327  0.2078  0.2135
  182SLPC   O3220843   4.502   5.877  10.131 -0.2102 -0.3484 -0.7152
  182SLPC   C3220844   4.280   5.869  10.041  0.3394 -0.0994  0.2746
  182SLPC   H2X20845   4.225   5.937  10.109 -0.1627 -1.9633  1.8001
  182SLPC   H2Y20846   4.198   5.797  10.019 -2.7844  3.2177  0.2422
  182SLPC   C2320847   4.649   5.293   9.834 -0.3531 -0.0953 -0.4849
  182SLPC   H3R20848   4.562   5.226   9.821  1.2875 -2.3125 -0.6938
  182SLPC   H3S20849   4.719   5.244   9.906  0.6845  0.6237 -0.9868
  182SLPC   C2420850   4.715   5.342   9.702 -0.4353  0.5450 -0.4133
  182SLPC   H4R20851   4.775   5.254   9.671  0.8147  1.0047  0.6073
  182SLPC   H4S20852   4.768   5.439   9.714 -0.3539  0.4410  0.1171
  182SLPC   C2520853   4.622   5.374   9.588 -1.1159  0.0398 -0.4746
  182SLPC   H5R20854   4.559   5.464   9.608  1.3482  1.9852 -0.9095
  182SLPC   H5S20855   4.556   5.286   9.577 -1.6871  0.1239  1.7862
  182SLPC   C2620856   4.698   5.407   9.456 -0.2451 -0.1351  0.0307
  182SLPC   H6R20857   4.622   5.435   9.379  0.3484  2.2494  0.2467
  182SLPC   H6S20858   4.750   5.319   9.414 -1.1716 -0.4128 -0.5736
  182SLPC   C2720859   4.778   5.535   9.460  0.1009  0.1248  0.6726
  182SLPC   H7R20860   4.878   5.511   9.501  1.3538  1.5526 -1.3627
  182SLPC   H7S20861   4.731   5.618   9.517 -0.2525  0.3756  0.0229
  182SLPC   C2820862   4.793   5.582   9.313  0.0569  0.4844  0.2999
  182SLPC   H8R20863   4.688   5.588   9.277  0.1627 -1.8941 -0.5827
  182SLPC   H8S20864   4.855   5.511   9.254  1.7907  2.0845  0.1123
  182SLPC   C2920865   4.867   5.713   9.314 -0.5962  0.0222  0.1669
  182SLPC   H9R20866   4.950   5.722   9.385 -1.1397  0.1420  0.7955
  182SLPC  C21020867   4.856   5.812   9.223  0.0719  0.5902  0.1038
  182SLPC  H10R20868   4.914   5.905   9.229  1.7774 -0.2202 -2.2229
  182SLPC  C21120869   4.758   5.813   9.106  0.1913 -0.4918 -0.6934
  182SLPC  H11R20870   4.676   5.743   9.130 -0.3629  0.5059  0.3929
  182SLPC  H11S20871   4.811   5.770   9.017  0.9451  0.1377 -0.5592
  182SLPC  C21220872   4.703   5.948   9.088  0.3018  0.3966 -0.3432
  182SLPC  H12R20873   4.669   5.989   9.184  0.3707  1.6097 -0.8153
  182SLPC  C21320874   4.692   6.019   8.976 -0.6286 -0.0531  0.0983
  182SLPC  H13R20875   4.653   6.120   8.995  1.3659  1.0236 -1.2115
  182SLPC  C21420876   4.714   5.979   8.824  0.1953  0.8872 -0.1950
  182SLPC  H14R20877   4.639   6.037   8.767  0.2380  1.5155  0.3735
  182SLPC  H14S20878   4.691   5.870   8.816  2.1822  0.3745  0.2870
  182SLPC  C21520879   4.851   6.005   8.764  0.1211 -0.4401 -0.1050
  182SLPC  H15R20880   4.859   5.949   8.669 -1.2308 -0.7061 -0.0745
  182SLPC  H15S20881   4.924   5.962   8.836  0.9283  0.1845 -0.5325
  182SLPC  C21620882   4.877   6.152   8.729  0.8989  0.3067 -0.0873
  182SLPC  H16R20883   4.863   6.223   8.813 -2.4793 -1.1002  0.7065
  182SLPC  H16S20884   4.805   6.189   8.652 -0.7452 -0.7625  0.8600
  182SLPC  C21720885   5.020   6.167   8.685 -0.0108 -0.1025  0.2044
  182SLPC  H17R20886   5.043   6.091   8.607  0.7864  0.4411 -0.1114
  182SLPC  H17S20887   5.087   6.150   8.771 -1.1865 -1.6428  0.8474
  182SLPC  C21820888   5.045   6.306   8.630  0.4539  0.0103  0.6069
  182SLPC  H18R20889   5.041   6.384   8.708 -1.2232 -0.2903  0.8607
  182SLPC  H18S20890   4.974   6.328   8.547  2.9346 -2.9624 -2.6368
  182SLPC  H18T20891   5.146   6.306   8.583  0.2347  0.5829  0.1266
  182SLPC   C3320892   4.324   5.937   9.910  0.2972 -0.2199 -0.4370
  182SLPC   H3X20893   4.398   6.013   9.940  0.3274 -1.0887  1.9055
  182SLPC   H3Y20894   4.236   5.999   9.881 -0.4278 -1.9825 -2.2401
  182SLPC   C3420895   4.368   5.842   9.801 -0.2414  0.9013 -0.0910
  182SLPC   H4X20896   4.345   5.881   9.699 -0.8100 -1.7397 -1.0556
  182SLPC   H4Y20897   4.303   5.752   9.810  0.9346  0.0741  0.3880
  182SLPC   C3520898   4.519   5.782   9.810  0.7069 -0.0991  0.4850
  182SLPC   H5X20899   4.530   5.691   9.749 -0.8949 -0.5913  0.8730
  182SLPC   H5Y20900   4.538   5.762   9.918  2.1081 -2.5075 -0.1546
  182SLPC   C3620901   4.625   5.872   9.745 -0.2393 -0.7531  0.2241
  182SLPC   H6X20902   4.713   5.805   9.752  0.3256  0.1605  3.1787
  182SLPC   H6Y20903   4.631   5.963   9.808  3.2334 -0.5524 -0.2430
  182SLPC   C3720904   4.606   5.921   9.601 -0.5657  0.3395  0.5824
  182SLPC   H7X20905   4.517   5.988   9.596 -1.8773 -1.2424  1.5901
  182SLPC   H7Y20906   4.574   5.833   9.541  3.5667 -1.6764  1.0232
  182SLPC   C3820907   4.737   5.978   9.545 -0.1978  0.7136 -0.3098
  182SLPC   H8X20908   4.761   5.986   9.437  1.3110 -3.4109 -0.4747
  182SLPC   H8Y20909   4.811   5.899   9.569 -1.3310 -0.7797 -1.5131
  182SLPC   C3920910   4.765   6.114   9.617 -0.6776 -0.0540  0.6303
  182SLPC   H9X20911   4.733   6.120   9.724  0.1191  0.8482  0.8341
  182SLPC   H9Y20912   4.710   6.197   9.566  0.2223 -0.4745 -1.0843
  182SLPC  C31020913   4.917   6.142   9.615 -0.7742  0.4268 -0.2054
  182SLPC  H10X20914   4.969   6.089   9.697  0.2627 -0.0942 -1.1780
  182SLPC  H10Y20915   4.934   6.250   9.634 -0.5011  0.5679 -1.2067
  182SLPC  C31120916   4.983   6.116   9.476  0.5710 -0.0512 -0.2654
  182SLPC  H11X20917   4.915   6.157   9.398  0.0399  0.2488  0.3473
  182SLPC  H11Y20918   4.992   6.007   9.457  2.1693 -0.2738  1.4723
  182SLPC  C31220919   5.118   6.183   9.462  0.3315 -0.0110  0.0368
  182SLPC  H12X20920   5.189   6.172   9.546  1.7292  0.8365 -0.9814
  182SLPC  H12Y20921   5.102   6.293   9.452  0.4606 -0.0128 -0.2083
  182SLPC  C31320922   5.201   6.138   9.342  0.4238 -0.6090  0.9372
  182SLPC  H13X20923   5.253   6.040   9.350  2.3852  0.2297 -0.6885
  182SLPC  H13Y20924   5.288   6.207   9.337  0.7052 -0.9102  1.6639
  182SLPC  C31420925   5.132   6.162   9.207 -0.0333 -0.8952 -0.7289
  182SLPC  H14X20926   5.036   6.108   9.195 -0.1009 -0.1328 -5.6635
  182SLPC  H14Y20927   5.188   6.104   9.130 -0.9022 -3.3040  0.3613
  182SLPC  C31520928   5.106   6.307   9.167 -0.1685  0.0676  0.1522
  182SLPC  H15X20929   5.204   6.355   9.146  0.3878 -1.1470 -0.1086
  182SLPC  H15Y20930   5.060   6.356   9.255 -0.9097 -2.1353  1.0445
  182SLPC  C31620931   5.035   6.321   9.034  0.4589  0.2509  0.2796
  182SLPC  H16X20932   4.943   6.260   9.027  0.7626 -0.2369  0.4452
  182SLPC  H16Y20933   5.096   6.277   8.952  0.1371 -0.0402  0.1949
  182SLPC  C31720934   4.972   6.461   9.007 -0.2914 -0.2579  0.2370
  182SLPC  H17X20935   4.911   6.495   9.093  1.0101 -0.1979  1.1833
  182SLPC  H17Y20936   4.914   6.449   8.913 -0.6266  3.3475 -0.1638
  182SLPC  C31820937   5.079   6.565   8.983  0.6694 -0.3489 -0.8461
  182SLPC  H18X20938   5.163   6.530   8.919  0.8986 -0.5856 -0.4192
  182SLPC  H18Y20939   5.136   6.579   9.077  1.9696  2.4281 -1.9119
  182SLPC  H18Z20940   5.034   6.658   8.942 -2.2100 -0.6793  1.3019
  183SLPC     N20941   3.569   0.981  10.646  0.1237 -0.1154 -0.3858
  183SLPC   C1320942   3.515   0.863  10.578  0.3806  0.0820  0.2243
  183SLPC  H13A20943   3.412   0.842  10.602  0.5437 -1.2014 -0.0952
  183SLPC  H13B20944   3.512   0.872  10.471 -2.6108 -0.4314  0.1784
  183SLPC  H13C20945   3.569   0.774  10.606 -0.0279  0.0656  1.0091
  183SLPC   C1420946   3.575   0.950  10.794  0.1452  0.2860 -0.3077
  183SLPC  H14A20947   3.607   1.037  10.851 -0.8498 -0.0251  0.7641
  183SLPC  H14B20948   3.476   0.922  10.825  0.0938  0.2577 -0.4984
  183SLPC  H14C20949   3.656   0.880  10.810  1.3713  0.7306 -3.6589
  183SLPC   C1520950   3.479   1.100  10.618  0.2278  0.4584  0.5182
  183SLPC  H15A20951   3.515   1.194  10.657 -2.2031  1.6329  0.1267
  183SLPC  H15B20952   3.494   1.126  10.515  2.1607  1.4852  0.9909
  183SLPC  H15C20953   3.378   1.084  10.654  0.7067 -0.2462  1.6212
  183SLPC   C1220954   3.703   1.005  10.593 -0.5133 -0.5683  0.4770
  183SLPC  H12A20955   3.707   1.043  10.492  1.5413 -0.8431  0.4129
  183SLPC  H12B20956   3.761   0.915  10.583 -0.0773 -0.1436 -1.1843
  183SLPC   C1120957   3.794   1.105  10.666 -0.6655  0.1165 -0.6118
  183SLPC  H11A20958   3.740   1.199  10.689 -0.5708 -0.2915  1.4684
  183SLPC  H11B20959   3.876   1.129  10.595 -0.4700  0.3723 -0.2997
  183SLPC     P20960   3.955   0.931  10.774 -0.4238  0.1445  0.0276
  183SLPC   O1320961   4.038   0.923  10.898  0.2957  0.3348 -0.9074
  183SLPC   O1420962   3.875   0.815  10.731 -0.2589 -0.2846 -0.1027
  183SLPC   O1220963   3.849   1.042  10.791  0.0468  0.4373  0.5635
  183SLPC   O1120964   4.040   0.978  10.651 -0.4493  0.1070  0.0099
  183SLPC    C120965   4.150   1.067  10.664 -0.0809  0.1946 -0.6861
  183SLPC    HA20966   4.125   1.175  10.674  1.1426  0.3041  2.6522
  183SLPC    HB20967   4.204   1.050  10.759 -0.0663 -2.8184 -1.1500
  183SLPC    C220968   4.263   1.037  10.554  0.0979 -0.2623  0.2348
  183SLPC    HS20969   4.330   1.126  10.543  3.1914 -2.1582  2.3301
  183SLPC   O2120970   4.205   0.996  10.429  0.2157 -0.6803  0.2659
  183SLPC   C2120971   4.149   1.088  10.359  0.5885  0.0167 -0.4512
  183SLPC   O2220972   4.151   1.207  10.377 -0.9177  0.0507 -0.2145
  183SLPC   C2220973   4.083   1.019  10.245  0.2022 -0.6118 -0.2317
  183SLPC   H2R20974   4.112   0.913  10.226  0.0769 -0.6715 -0.0963
  183SLPC   H2S20975   3.973   1.019  10.261  0.3932 -0.8613  1.2198
  183SLPC    C320976   4.356   0.922  10.603 -0.4050  0.0989 -0.3449
  183SLPC    HX20977   4.311   0.838  10.660  1.4329  0.6810  2.1542
  183SLPC    HY20978   4.411   0.974  10.684  1.5917 -0.0016 -1.5576
  183SLPC   O3120979   4.456   0.882  10.503  0.0136  0.1421  0.3357
  183SLPC   C3120980   4.416   0.784  10.420  0.2923 -0.0723  0.0965
  183SLPC   O3220981   4.314   0.717  10.428  0.7462  0.3561  0.5725
  183SLPC   C3220982   4.523   0.776  10.316  0.0565 -0.1628 -1.0135
  183SLPC   H2X20983   4.604   0.706  10.347  0.0773 -0.2317 -1.2218
  183SLPC   H2Y20984   4.574   0.875  10.314  0.4594 -0.1343  2.8675
  183SLPC   C2320985   4.097   1.095  10.109 -1.2082 -0.2894  0.8313
  183SLPC   H3R20986   4.204   1.112  10.085 -0.8470 -1.9519  1.1288
  183SLPC   H3S20987   4.049   1.193  10.133  1.4210  1.0311  1.0824
  183SLPC   C2420988   4.027   1.028   9.989 -0.2812  0.8210 -0.0131
  183SLPC   H4R20989   3.922   1.062   9.973 -0.6517  0.2742  1.1668
  183SLPC   H4S20990   4.025   0.918  10.000 -0.9341  0.8511  0.2055
  183SLPC   C2520991   4.088   1.056   9.845  0.1068 -0.7193  0.5139
  183SLPC   H5R20992   4.046   0.976   9.780 -1.5456  1.7013 -1.6371
  183SLPC   H5S20993   4.198   1.046   9.835  0.0551  0.7028 -3.8062
  183SLPC   C2620994   4.032   1.187   9.783  0.3701  0.1470 -0.3162
  183SLPC   H6R20995   4.099   1.223   9.702 -1.6467  2.8010 -0.9615
  183SLPC   H6S20996   4.039   1.274   9.853  0.3629 -1.7451  2.1885
  183SLPC   C2720997   3.900   1.161   9.725 -0.7890 -0.4114  1.0680
  183SLPC   H7R20998   3.819   1.161   9.801 -1.3398  0.9141  0.5072
  183SLPC   H7S20999   3.894   1.054   9.696  0.4924  0.0385 -1.1038
  183SLPC   C2821000   3.861   1.248   9.612  0.2066 -0.2931  1.2355
  183SLPC   H8R21001   3.948   1.279   9.550  0.9634 -2.8270  0.9070
  183SLPC   H8S21002   3.814   1.336   9.661 -0.5844 -0.5477  0.9393
  183SLPC   C2921003   3.757   1.179   9.530  0.2760 -0.9942 -0.6679
  183SLPC   H9R21004   3.655   1.184   9.571 -0.1674 -1.1027 -1.7271
  183SLPC  C21021005   3.784   1.105   9.426  0.1915  0.3804 -0.1155
  183SLPC  H10R21006   3.703   1.049   9.376  1.5219 -0.8929 -0.9310
  183SLPC  C21121007   3.925   1.086   9.372  1.0673 -0.3135  0.4334
  183SLPC  H11R21008   3.936   0.984   9.330  0.3709 -0.8198  1.4372
  183SLPC  H11S21009   3.994   1.087   9.459  0.3701 -0.7469  0.9995
  183SLPC  C21221010   3.966   1.189   9.270 -0.0835  0.2110  0.5099
  183SLPC  H12R21011   4.032   1.271   9.300 -0.5851  2.0048 -2.9116
  183SLPC  C21321012   3.926   1.192   9.142 -0.2695  0.0133  0.2062
  183SLPC  H13R21013   3.968   1.271   9.078  0.9007 -0.5278  0.2743
  183SLPC  C21421014   3.828   1.100   9.069 -0.9150  0.2048 -0.0640
  183SLPC  H14R21015   3.764   1.055   9.148 -0.2329 -0.0007  0.3771
  183SLPC  H14S21016   3.884   1.009   9.038  0.5129  0.0592  2.6532
  183SLPC  C21521017   3.746   1.152   8.956  0.1771 -0.3619 -0.6043
  183SLPC  H15R21018   3.819   1.179   8.877 -0.0968 -0.7915 -1.0095
  183SLPC  H15S21019   3.680   1.238   8.981 -0.7484 -1.5825  1.4168
  183SLPC  C21621020   3.654   1.040   8.900  0.0754  0.2120 -0.0018
  183SLPC  H16R21021   3.559   1.091   8.875  1.0287  1.1157 -2.0862
  183SLPC  H16S21022   3.620   0.958   8.966 -2.5323 -0.6867 -2.2873
  183SLPC  C21721023   3.697   0.996   8.758  0.2048 -0.0593 -0.3696
  183SLPC  H17R21024   3.807   0.978   8.755  0.5408  1.6102  0.6493
  183SLPC  H17S21025   3.672   1.081   8.692  0.3452 -0.1049 -0.4822
  183SLPC  C21821026   3.617   0.874   8.718 -0.0425  0.9387 -0.5937
  183SLPC  H18R21027   3.610   0.793   8.794  0.4023  0.2348 -1.2808
  183SLPC  H18S21028   3.661   0.814   8.635  1.0050 -0.4444  0.9113
  183SLPC  H18T21029   3.516   0.905   8.682  0.5463  0.1740 -3.1387
  183SLPC   C3321030   4.478   0.749  10.179  0.3323  0.3233  0.3833
  183SLPC   H3X21031   4.392   0.810  10.145  0.0338 -0.5208 -0.4115
  183SLPC   H3Y21032   4.426   0.651  10.179 -0.4340  0.6970  1.8780
  183SLPC   C3421033   4.585   0.769  10.071 -0.6836 -0.0878  0.4828
  183SLPC   H4X21034   4.661   0.689  10.087 -2.8508 -1.7819  3.3455
  183SLPC   H4Y21035   4.631   0.870  10.079 -1.9733  0.3810  3.1023
  183SLPC   C3521036   4.527   0.748   9.928  0.5695 -0.0827  0.2673
  183SLPC   H5X21037   4.430   0.802   9.923 -0.6870 -2.0257  2.1199
  183SLPC   H5Y21038   4.506   0.641   9.909  0.8863  0.0201 -0.6955
  183SLPC   C3621039   4.626   0.815   9.831  0.1718  0.1553 -0.4943
  183SLPC   H6X21040   4.722   0.761   9.816 -1.0916 -2.4982  0.3858
  183SLPC   H6Y21041   4.654   0.919   9.860 -2.3375  1.0051 -0.9169
  183SLPC   C3721042   4.565   0.831   9.690  0.5688  0.3743 -0.0788
  183SLPC   H7X21043   4.473   0.889   9.715  0.1809 -0.7216  1.1321
  183SLPC   H7Y21044   4.546   0.730   9.648 -1.6084  0.6718  0.0707
  183SLPC   C3821045   4.645   0.912   9.591 -0.3683 -0.1262  0.5422
  183SLPC   H8X21046   4.721   0.835   9.565  1.9744  1.7302  1.6076
  183SLPC   H8Y21047   4.702   1.000   9.626 -2.1413  0.0558  3.3510
  183SLPC   C3921048   4.568   0.949   9.457  0.2248 -0.5909 -0.6952
  183SLPC   H9X21049   4.487   1.017   9.491  0.9129 -0.5999  1.0715
  183SLPC   H9Y21050   4.524   0.862   9.404 -2.8118 -0.0851  0.8242
  183SLPC  C31021051   4.643   1.032   9.353 -0.3955  0.1300 -0.0041
  183SLPC  H10X21052   4.737   0.975   9.334 -0.2093 -0.3932  2.2081
  183SLPC  H10Y21053   4.679   1.128   9.395  0.7517 -1.1526  2.1607
  183SLPC  C31121054   4.563   1.054   9.228 -0.0418 -0.4744  0.3908
  183SLPC  H11X21055   4.472   1.110   9.258 -0.1511 -0.1979 -0.4256
  183SLPC  H11Y21056   4.526   0.957   9.187 -0.0204 -1.3966  2.4097
  183SLPC  C31221057   4.632   1.141   9.132 -0.5749 -0.8412  0.7303
  183SLPC  H12X21058   4.575   1.162   9.039  0.7683  1.6329  0.3720
  183SLPC  H12Y21059   4.729   1.101   9.095 -0.2662 -0.7938  1.4590
  183SLPC  C31321060   4.665   1.287   9.180  0.0841  0.7756 -0.9411
  183SLPC  H13X21061   4.757   1.287   9.243  0.4560 -0.9310 -1.4277
  183SLPC  H13Y21062   4.582   1.306   9.251 -1.2853 -0.9829 -1.9843
  183SLPC  C31421063   4.680   1.381   9.058 -0.2801  0.7105  0.4337
  183SLPC  H14X21064   4.710   1.476   9.107  0.8200  0.5927  0.0156
  183SLPC  H14Y21065   4.591   1.397   8.993 -0.5506  0.6414  0.7796
  183SLPC  C31521066   4.800   1.333   8.968 -0.1375 -0.0524  0.5433
  183SLPC  H15X21067   4.755   1.260   8.898 -1.6160  1.4398 -0.1528
  183SLPC  H15Y21068   4.878   1.278   9.024 -0.5701 -1.3182 -0.0550
  183SLPC  C31621069   4.843   1.449   8.873  0.3205 -0.1161 -0.3306
  183SLPC  H16X21070   4.861   1.544   8.927  0.0910 -0.6263  0.6607
  183SLPC  H16Y21071   4.758   1.466   8.803  1.2801  1.3288 -1.1873
  183SLPC  C31721072   4.955   1.400   8.788  0.3621 -0.7640  0.0924
  183SLPC  H17X21073   4.919   1.303   8.747  0.7886 -0.1793 -1.7691
  183SLPC  H17Y21074   5.040   1.374   8.854 -1.8897 -0.5755  3.2878
  183SLPC  C31821075   4.998   1.493   8.668  0.1850  0.7966  0.1595
  183SLPC  H18X21076   4.909   1.552   8.640  0.5271  0.6935 -1.2037
  183SLPC  H18Y21077   5.026   1.444   8.573 -2.0636  1.2845 -0.8289
  183SLPC  H18Z21078   5.080   1.559   8.705  1.5908  0.2265 -1.7780
  184SLPC     N21079   0.343   4.997  10.806 -1.5864  0.2094  0.3643
  184SLPC   C1321080   0.232   4.960  10.899 -0.5774  0.1634  0.1948
  184SLPC  H13A21081   0.148   5.017  10.863 -0.3370 -0.4975 -1.5136
  184SLPC  H13B21082   0.216   4.856  10.877 -0.1569  0.3955 -1.2991
  184SLPC  H13C21083   0.254   4.969  11.005 -0.2726 -0.0743  0.1550
  184SLPC   C1421084   0.463   4.908  10.839 -0.5866  0.3091 -0.4598
  184SLPC  H14A21085   0.557   4.941  10.796 -0.3611  0.7615  0.3696
  184SLPC  H14B21086   0.481   4.899  10.945  0.2617  1.2958 -0.4996
  184SLPC  H14C21087   0.443   4.809  10.800 -0.1020  0.7509 -1.8956
  184SLPC   C1521088   0.379   5.134  10.840  0.5645  0.0962 -0.0557
  184SLPC  H15A21089   0.446   5.174  10.765  0.0804 -1.4593 -1.3587
  184SLPC  H15B21090   0.286   5.190  10.846 -1.2105 -2.6572 -0.3999
  184SLPC  H15C21091   0.421   5.145  10.939  0.4024  0.9681 -0.0702
  184SLPC   C1221092   0.295   4.972  10.663  0.5654 -0.5788 -0.1992
  184SLPC  H12A21093   0.207   5.034  10.647 -0.0161 -1.4847 -0.5723
  184SLPC  H12B21094   0.262   4.870  10.652  2.7235 -1.3469  0.1027
  184SLPC   C1121095   0.391   5.006  10.549  0.6949 -0.1450 -0.2166
  184SLPC  H11A21096   0.335   4.975  10.458  0.0272 -1.8832  0.7151
  184SLPC  H11B21097   0.483   4.944  10.553  0.3316 -0.6440  0.7471
  184SLPC     P21098   0.359   5.253  10.464  0.6875 -0.2960 -0.0824
  184SLPC   O1321099   0.230   5.279  10.528 -0.5716 -0.1050  0.8443
  184SLPC   O1421100   0.461   5.353  10.426 -0.0234  0.6411  0.5478
  184SLPC   O1221101   0.429   5.148  10.545  0.2163 -0.1451 -0.2470
  184SLPC   O1121102   0.336   5.176  10.329  0.2052  0.1925  0.1264
  184SLPC    C121103   0.432   5.175  10.233 -0.3702 -0.8387 -0.1469
  184SLPC    HA21104   0.535   5.196  10.270 -0.7637  2.4714 -0.7043
  184SLPC    HB21105   0.435   5.072  10.190  0.1514 -0.9794  0.2190
  184SLPC    C221106   0.408   5.279  10.119 -0.4064 -0.2907 -0.2930
  184SLPC    HS21107   0.389   5.378  10.164 -2.7883 -0.6189 -0.4617
  184SLPC   O2121108   0.303   5.224  10.040  0.1765 -0.3828 -0.6115
  184SLPC   C2121109   0.187   5.289  10.032 -0.4150  0.4871 -0.2297
  184SLPC   O2221110   0.159   5.385  10.099  0.4877 -0.0054  0.1693
  184SLPC   C2221111   0.101   5.240   9.917  0.0446 -0.3665 -1.0804
  184SLPC   H2R21112   0.156   5.157   9.868  0.8412  0.5029 -1.7076
  184SLPC   H2S21113   0.004   5.197   9.949 -0.0596 -1.2576 -2.4731
  184SLPC    C321114   0.535   5.296  10.033 -0.1662  0.5166 -0.8082
  184SLPC    HX21115   0.547   5.199   9.980  3.5230  1.0315 -1.2406
  184SLPC    HY21116   0.631   5.307  10.089 -0.5846 -0.1126  0.0492
  184SLPC   O3121117   0.515   5.391   9.928 -0.2975  0.4569 -0.5740
  184SLPC   C3121118   0.540   5.517   9.962 -0.1617  0.4553 -0.2543
  184SLPC   O3221119   0.578   5.552  10.069  0.1700  0.4906  0.1201
  184SLPC   C3221120   0.510   5.602   9.846  0.8969  0.5951  0.8657
  184SLPC   H2X21121   0.574   5.692   9.862 -0.2070  1.2522  1.6684
  184SLPC   H2Y21122   0.401   5.621   9.849  1.0324  1.3062  1.7897
  184SLPC   C2321123   0.092   5.344   9.808  0.1779 -0.4139 -0.3386
  184SLPC   H3R21124   0.183   5.403   9.788 -0.1419 -0.3422 -1.7185
  184SLPC   H3S21125   0.015   5.412   9.851  0.9481  0.7012 -0.6784
  184SLPC   C2421126   0.047   5.288   9.675 -0.7542 -0.4484  0.4760
  184SLPC   H4R21127  -0.062   5.267   9.675 -0.8333 -0.0533  0.0630
  184SLPC   H4S21128   0.103   5.192   9.669  1.1012  0.6264 -0.0508
  184SLPC   C2521129   0.070   5.378   9.548 -0.5367  0.9274  0.3879
  184SLPC   H5R21130   0.011   5.332   9.467 -1.3049  1.3249  0.7096
  184SLPC   H5S21131   0.175   5.379   9.513 -1.0500 -2.2985 -1.5748
  184SLPC   C2621132   0.039   5.526   9.548 -0.2136 -0.3375  0.3571
  184SLPC   H6R21133   0.115   5.579   9.610  1.3721 -0.6772 -1.2268
  184SLPC   H6S21134  -0.060   5.541   9.596 -0.5943 -0.6748 -0.3120
  184SLPC   C2721135   0.038   5.597   9.412 -0.2674 -0.1657  0.1153
  184SLPC   H7R21136  -0.055   5.560   9.364  0.6512 -0.6280 -1.3519
  184SLPC   H7S21137   0.125   5.572   9.348  0.3875 -0.3229  1.0403
  184SLPC   C2821138   0.022   5.754   9.409 -0.2598  0.8626  0.1949
  184SLPC   H8R21139   0.033   5.779   9.301 -0.7833 -0.1066 -0.0964
  184SLPC   H8S21140   0.102   5.807   9.465  1.3346 -0.6087 -0.5848
  184SLPC   C2921141  -0.105   5.788   9.480  1.1613  0.1310 -0.5963
  184SLPC   H9R21142  -0.109   5.753   9.584  0.2885  1.2890 -0.2212
  184SLPC  C21021143  -0.206   5.864   9.427  0.7227 -0.3863  0.0204
  184SLPC  H10R21144  -0.299   5.870   9.487  1.3345 -0.6445  1.0170
  184SLPC  C21121145  -0.222   5.921   9.286 -0.0626  0.8294  0.3152
  184SLPC  H11R21146  -0.132   5.903   9.224 -2.1586 -0.5759 -2.5115
  184SLPC  H11S21147  -0.223   6.031   9.300  1.2104  1.0514 -1.0958
  184SLPC  C21221148  -0.342   5.878   9.209  0.0993  0.2801 -0.0758
  184SLPC  H12R21149  -0.431   5.926   9.252  0.9312  0.4887  1.5062
  184SLPC  C21321150  -0.360   5.793   9.112 -0.3684 -0.8759  0.7818
  184SLPC  H13R21151  -0.456   5.783   9.059  1.7254  0.3579 -3.7261
  184SLPC  C21421152  -0.251   5.724   9.040  0.4939  0.1575  0.2758
  184SLPC  H14R21153  -0.176   5.804   9.025 -0.8560  1.3067 -0.5603
  184SLPC  H14S21154  -0.284   5.683   8.942  3.0867 -0.3800 -0.4602
  184SLPC  C21521155  -0.187   5.604   9.115 -0.4127 -0.3422  0.2209
  184SLPC  H15R21156  -0.266   5.528   9.135 -1.5813  0.5799 -0.7324
  184SLPC  H15S21157  -0.146   5.642   9.211  0.7175 -1.0615  0.0510
  184SLPC  C21621158  -0.067   5.549   9.041 -0.3239 -0.3924  0.6679
  184SLPC  H16R21159   0.015   5.618   9.071  0.2545 -0.7083 -0.1124
  184SLPC  H16S21160  -0.085   5.554   8.931 -0.9203 -0.4768  0.7613
  184SLPC  C21721161  -0.030   5.403   9.068 -0.0831 -0.1394  0.0156
  184SLPC  H17R21162  -0.120   5.342   9.090  0.6079 -0.6126  1.6523
  184SLPC  H17S21163   0.040   5.399   9.154  1.4201  1.7624 -1.0269
  184SLPC  C21821164   0.049   5.328   8.962 -0.6704 -0.3297 -0.1332
  184SLPC  H18R21165   0.147   5.376   8.942  0.0531 -1.0229  1.5062
  184SLPC  H18S21166  -0.007   5.336   8.867  2.4961 -0.9403 -2.2110
  184SLPC  H18T21167   0.069   5.222   8.989 -0.1172 -0.4418 -0.9564
  184SLPC   C3321168   0.560   5.534   9.711 -0.1348 -0.1629  0.4671
  184SLPC   H3X21169   0.497   5.447   9.687 -1.4130  0.5915  1.0046
  184SLPC   H3Y21170   0.661   5.487   9.715 -0.5367 -1.1294 -0.4574
  184SLPC   C3421171   0.564   5.641   9.591  0.2317 -0.0982 -0.1162
  184SLPC   H4X21172   0.593   5.583   9.502 -2.1977  1.3306 -1.9555
  184SLPC   H4Y21173   0.631   5.728   9.612 -1.5706  0.9772  1.6300
  184SLPC   C3521174   0.426   5.706   9.557  0.2581  0.7587  0.7288
  184SLPC   H5X21175   0.375   5.744   9.647 -2.3201  0.6803 -0.6051
  184SLPC   H5Y21176   0.365   5.632   9.502 -0.9035  2.6413 -0.6302
  184SLPC   C3621177   0.441   5.831   9.470  0.1288  0.3110 -0.3827
  184SLPC   H6X21178   0.507   5.910   9.510  1.7656 -1.2695  0.2022
  184SLPC   H6Y21179   0.339   5.874   9.466 -0.4189 -0.7818  1.0071
  184SLPC   C3721180   0.487   5.799   9.329 -0.0225  0.6164  0.2010
  184SLPC   H7X21181   0.406   5.752   9.269 -0.3563  2.5683 -0.9956
  184SLPC   H7Y21182   0.576   5.734   9.340 -0.1095  0.4128 -0.2602
  184SLPC   C3821183   0.536   5.923   9.250  0.4057 -0.1103 -0.1330
  184SLPC   H8X21184   0.615   5.973   9.309  1.9376 -0.9045 -1.4317
  184SLPC   H8Y21185   0.450   5.994   9.252  0.4454 -0.0690  0.0723
  184SLPC   C3921186   0.587   5.889   9.110 -0.1530  0.5409 -0.0478
  184SLPC   H9X21187   0.502   5.837   9.061  0.1419  0.1961 -0.1955
  184SLPC   H9Y21188   0.668   5.813   9.115  0.6418  1.2818 -1.1541
  184SLPC  C31021189   0.640   6.003   9.029  0.3954 -0.8239 -0.2696
  184SLPC  H10X21190   0.734   6.042   9.073 -1.1968  0.6497  2.0543
  184SLPC  H10Y21191   0.576   6.093   9.042  0.5585 -0.8951  1.1371
  184SLPC  C31121192   0.633   5.979   8.873 -0.4919 -0.0787  0.3499
  184SLPC  H11X21193   0.535   5.931   8.850 -0.4014  0.4933 -1.3845
  184SLPC  H11Y21194   0.721   5.924   8.834 -1.1545 -0.9994  0.1181
  184SLPC  C31221195   0.625   6.104   8.784 -0.0443  0.1501 -0.1075
  184SLPC  H12X21196   0.647   6.078   8.679 -0.0483 -1.6232  0.2915
  184SLPC  H12Y21197   0.708   6.169   8.820  0.3414  0.4534 -1.5036
  184SLPC  C31321198   0.489   6.175   8.789 -0.0921 -0.3848  0.0565
  184SLPC  H13X21199   0.482   6.231   8.885 -1.1849 -0.5341  0.0793
  184SLPC  H13Y21200   0.406   6.101   8.788  0.0544 -0.5746  0.8874
  184SLPC  C31421201   0.462   6.276   8.675 -0.8904 -0.0005 -0.6149
  184SLPC  H14X21202   0.353   6.297   8.673 -0.8756  0.3034  1.0060
  184SLPC  H14Y21203   0.481   6.237   8.572  0.9538  1.1679 -0.7688
  184SLPC  C31521204   0.524   6.412   8.706  0.2947 -0.5166  0.4123
  184SLPC  H15X21205   0.633   6.400   8.688  0.5039  0.7391  0.7872
  184SLPC  H15Y21206   0.501   6.441   8.811 -0.0869  0.6190  0.0289
  184SLPC  C31621207   0.476   6.527   8.619 -0.4537  0.8399 -0.1472
  184SLPC  H16X21208   0.505   6.498   8.516  0.7499  1.1388  0.0984
  184SLPC  H16Y21209   0.537   6.617   8.643  0.4056  0.2864 -0.2096
  184SLPC  C31721210   0.319   6.562   8.629 -0.5527  0.9093 -0.7729
  184SLPC  H17X21211   0.293   6.554   8.736  0.7797  0.6091 -0.4569
  184SLPC  H17Y21212   0.265   6.475   8.585  0.4909  0.9801 -2.2860
  184SLPC  C31821213   0.284   6.696   8.568  0.1511 -0.4229  0.1302
  184SLPC  H18X21214   0.194   6.688   8.503 -0.4076  0.0985  0.8271
  184SLPC  H18Y21215   0.369   6.738   8.509  0.6589 -0.3279  0.9208
  184SLPC  H18Z21216   0.258   6.760   8.655 -0.6356  1.1216 -1.1870
  185SLPC     N21217   5.418   2.650   5.856 -0.0587  0.0330  0.1649
  185SLPC   C1321218   5.279   2.615   5.863 -0.2821  0.1692 -0.7218
  185SLPC  H13A21219   5.267   2.525   5.804 -1.0832 -1.0580  1.2004
  185SLPC  H13B21220   5.245   2.612   5.966 -0.1902  1.1471 -0.6569
  185SLPC  H13C21221   5.209   2.684   5.819 -0.4516  0.8670  0.5988
  185SLPC   C1421222   5.440   2.799   5.877  0.0010 -0.3079 -0.3460
  185SLPC  H14A21223   5.401   2.837   5.970 -0.1426  1.2545 -0.9957
  185SLPC  H14B21224   5.541   2.836   5.868 -0.6876  2.4739  1.8627
  185SLPC  H14C21225   5.384   2.861   5.808  1.0353  1.9242  0.6878
  185SLPC   C1521226   5.473   2.623   5.723 -0.2653 -0.3858 -0.1921
  185SLPC  H15A21227   5.484   2.516   5.709 -1.0446 -0.4387 -0.4561
  185SLPC  H15B21228   5.393   2.646   5.654 -0.0979 -3.3536 -1.5280
  185SLPC  H15C21229   5.558   2.681   5.693 -0.4640  0.2184  0.3933
  185SLPC   C1221230   5.493   2.569   5.958 -0.1655  0.4367 -0.4359
  185SLPC  H12A21231   5.599   2.589   5.961  0.1155 -0.8689 -1.1252
  185SLPC  H12B21232   5.485   2.467   5.925 -0.8421 -0.3756  2.0435
  185SLPC   C1121233   5.447   2.562   6.105 -0.1260 -0.3806 -0.1114
  185SLPC  H11A21234   5.513   2.495   6.164 -2.0530 -0.9903  1.4696
  185SLPC  H11B21235   5.347   2.512   6.106 -0.2419 -0.1489  0.8296
  185SLPC     P21236   5.550   2.754   6.237  0.6939  0.0948 -0.1628
  185SLPC   O1321237   5.664   2.744   6.157  0.6081 -0.9746  0.3884
  185SLPC   O1421238   5.521   2.890   6.286 -0.0928  0.3331 -0.0780
  185SLPC   O1221239   5.429   2.691   6.168  0.1823  0.3343 -0.0093
  185SLPC   O1121240   5.571   2.658   6.362  0.0511 -0.0519 -0.1054
  185SLPC    C121241   5.453   2.626   6.437 -0.3214  0.4054  0.2042
  185SLPC    HA21242   5.382   2.712   6.432 -0.1165  0.5556 -0.1806
  185SLPC    HB21243   5.394   2.540   6.399  0.7551  0.2076 -1.1031
  185SLPC    C221244   5.480   2.606   6.593  0.6316 -0.6473  0.5630
  185SLPC    HS21245   5.394   2.651   6.648  1.6745 -0.5697  2.1684
  185SLPC   O2121246   5.601   2.669   6.633 -0.3091 -0.3024  0.3499
  185SLPC   C2121247   5.600   2.795   6.626 -0.1723 -0.5477 -0.0159
  185SLPC   O2221248   5.507   2.875   6.618 -0.2651  0.6067 -0.0757
  185SLPC   C2221249   5.737   2.851   6.657  1.0071 -0.2081  0.1040
  185SLPC   H2R21250   5.800   2.837   6.567 -0.0250 -0.0081 -0.6736
  185SLPC   H2S21251   5.719   2.958   6.682 -1.5918  0.0637 -2.3475
  185SLPC    C321252   5.490   2.457   6.640  0.3015 -0.4136  0.3808
  185SLPC    HX21253   5.580   2.409   6.596 -0.9748 -1.3857 -1.2890
  185SLPC    HY21254   5.395   2.419   6.597  1.0959  0.5419 -2.4976
  185SLPC   O3121255   5.469   2.454   6.778  0.6354  0.2900  0.1741
  185SLPC   C3121256   5.552   2.387   6.848  0.4152 -0.0105 -0.1459
  185SLPC   O3221257   5.660   2.349   6.808 -0.0706  0.3875  0.2400
  185SLPC   C3221258   5.499   2.391   6.992  0.6851 -0.4569  0.0511
  185SLPC   H2X21259   5.394   2.355   6.990 -0.2769  2.1850 -0.8612
  185SLPC   H2Y21260   5.489   2.498   7.021  2.0958 -0.4494  0.5980
  185SLPC   C2321261   5.801   2.797   6.789  0.4551  0.2998 -0.0277
  185SLPC   H3R21262   5.905   2.834   6.794 -0.2256  2.1914  1.4143
  185SLPC   H3S21263   5.798   2.686   6.786 -0.8737  0.3183  0.0293
  185SLPC   C2421264   5.736   2.856   6.921 -0.2847  0.0445 -0.5305
  185SLPC   H4R21265   5.630   2.824   6.928 -0.2005 -0.4333 -1.3314
  185SLPC   H4S21266   5.724   2.966   6.922 -2.3144 -0.1411  0.7751
  185SLPC   C2521267   5.819   2.810   7.046 -0.2404  0.2612 -0.1218
  185SLPC   H5R21268   5.922   2.849   7.064  0.1448 -0.7886  0.0127
  185SLPC   H5S21269   5.831   2.701   7.027  0.8460  0.7276 -2.4806
  185SLPC   C2621270   5.736   2.844   7.167  0.0641 -0.2733 -0.9068
  185SLPC   H6R21271   5.643   2.784   7.165 -0.7433  0.9281 -0.2883
  185SLPC   H6S21272   5.727   2.954   7.183 -1.5821 -0.8401  3.1267
  185SLPC   C2721273   5.817   2.805   7.292 -0.5282 -0.4681  0.2502
  185SLPC   H7R21274   5.898   2.879   7.310  0.4261 -1.6561  1.0170
  185SLPC   H7S21275   5.871   2.710   7.273  0.9115  0.6422 -1.4480
  185SLPC   C2821276   5.742   2.790   7.424 -0.2134 -0.5794  0.1168
  185SLPC   H8R21277   5.823   2.785   7.500  1.9503  0.5470 -1.9986
  185SLPC   H8S21278   5.684   2.697   7.441  0.8652 -0.9759  1.9303
  185SLPC   C2921279   5.680   2.926   7.456  0.0775  0.6015 -0.5318
  185SLPC   H9R21280   5.642   2.974   7.365  0.5805 -0.9683 -1.6164
  185SLPC  C21021281   5.665   2.978   7.576  0.2044  0.2109 -0.6083
  185SLPC  H10R21282   5.615   3.074   7.594  1.5817  1.3337 -2.4116
  185SLPC  C21121283   5.701   2.906   7.700 -0.3793  0.5960  0.2489
  185SLPC  H11R21284   5.715   2.980   7.782  0.9600  0.2841  0.3208
  185SLPC  H11S21285   5.798   2.855   7.680  0.2430  2.3266 -1.5461
  185SLPC  C21221286   5.598   2.813   7.740  0.4590 -0.0225 -0.1273
  185SLPC  H12R21287   5.507   2.816   7.678  0.1908 -0.1061  0.2554
  185SLPC  C21321288   5.617   2.720   7.839  0.2364 -0.1400 -0.7597
  185SLPC  H13R21289   5.524   2.670   7.869  0.1063  1.6981  2.2906
  185SLPC  C21421290   5.728   2.702   7.938  0.4334  0.1133 -0.3131
  185SLPC  H14R21291   5.810   2.774   7.917  1.2304 -0.6817 -0.0196
  185SLPC  H14S21292   5.777   2.604   7.916  1.1722  0.3062  0.4169
  185SLPC  C21521293   5.688   2.712   8.087  0.8350 -0.4290  0.0272
  185SLPC  H15R21294   5.769   2.674   8.152 -0.0963 -0.2611  1.3137
  185SLPC  H15S21295   5.593   2.659   8.110  0.5770 -0.0316 -0.1148
  185SLPC  C21621296   5.672   2.858   8.134 -0.3207 -0.6596  0.0187
  185SLPC  H16R21297   5.636   2.914   8.046  1.4267  1.6578  0.6758
  185SLPC  H16S21298   5.764   2.915   8.161 -0.2171 -0.2105 -1.2357
  185SLPC  C21721299   5.563   2.878   8.252 -0.8064 -0.0384 -0.0312
  185SLPC  H17R21300   5.604   2.830   8.344 -1.1121 -1.0977 -0.4348
  185SLPC  H17S21301   5.470   2.830   8.214 -0.8329  1.2656 -1.7356
  185SLPC  C21821302   5.523   3.026   8.287  0.0309  0.1941  0.4663
  185SLPC  H18R21303   5.613   3.081   8.321 -0.2268 -0.5848  2.6123
  185SLPC  H18S21304   5.450   3.039   8.370 -1.0614  0.3584 -0.4954
  185SLPC  H18T21305   5.492   3.075   8.193 -2.3913  0.4382  1.3169
  185SLPC   C3321306   5.601   2.318   7.087  0.0663 -0.2413  0.1323
  185SLPC   H3X21307   5.701   2.365   7.076  0.3380 -0.3250  2.0277
  185SLPC   H3Y21308   5.600   2.210   7.061  1.6161 -0.4395  0.8392
  185SLPC   C3421309   5.562   2.340   7.236  0.7034 -0.2169  0.3270
  185SLPC   H4X21310   5.451   2.336   7.245  0.5057  0.2273 -1.5375
  185SLPC   H4Y21311   5.602   2.437   7.272  1.2637 -0.3021 -0.0496
  185SLPC   C3521312   5.615   2.224   7.323  0.0350  0.0441  0.1272
  185SLPC   H5X21313   5.725   2.223   7.340 -0.0791  0.3155  0.9396
  185SLPC   H5Y21314   5.584   2.125   7.283 -1.2775  0.0590  1.0361
  185SLPC   C3621315   5.552   2.230   7.463  0.5834 -0.2359  0.2844
  185SLPC   H6X21316   5.601   2.152   7.525 -1.2810 -3.3109 -1.8514
  185SLPC   H6Y21317   5.448   2.199   7.442  0.8802 -1.3687  0.4159
  185SLPC   C3721318   5.552   2.360   7.536 -0.1696  0.8185  0.0155
  185SLPC   H7X21319   5.508   2.447   7.482  0.7710  1.0249 -0.4299
  185SLPC   H7Y21320   5.659   2.380   7.558  0.2182  1.4403 -2.2018
  185SLPC   C3821321   5.485   2.345   7.674 -0.4088  0.5010 -0.3198
  185SLPC   H8X21322   5.413   2.261   7.670 -1.4766  1.4387 -1.9647
  185SLPC   H8Y21323   5.429   2.439   7.690  2.0669  2.0900 -0.3511
  185SLPC   C3921324   5.580   2.293   7.778  0.1959 -0.2919  0.5584
  185SLPC   H9X21325   5.660   2.370   7.778 -1.4878  1.7121 -2.9912
  185SLPC   H9Y21326   5.630   2.199   7.746 -2.6282 -1.4134 -0.9265
  185SLPC  C31021327   5.516   2.282   7.912  0.6094 -0.5039  0.1386
  185SLPC  H10X21328   5.434   2.207   7.909 -0.6231  0.8470 -1.7548
  185SLPC  H10Y21329   5.470   2.382   7.924 -0.2224 -0.8750  0.1067
  185SLPC  C31121330   5.610   2.264   8.031  0.9986 -0.6534 -0.8018
  185SLPC  H11X21331   5.684   2.346   8.039 -0.0246  0.0873  1.8932
  185SLPC  H11Y21332   5.653   2.161   8.028 -0.2516 -1.3154  1.7074
  185SLPC  C31221333   5.527   2.286   8.164 -0.2115 -0.4104  0.0910
  185SLPC  H12X21334   5.448   2.207   8.163  0.6028 -1.2497  0.7159
  185SLPC  H12Y21335   5.492   2.390   8.149 -0.5462 -0.2844  1.6479
  185SLPC  C31321336   5.621   2.263   8.289 -0.4192  0.0975  0.7312
  185SLPC  H13X21337   5.686   2.353   8.292 -3.0403  2.3040 -1.7797
  185SLPC  H13Y21338   5.684   2.176   8.263 -0.2718  0.2888  0.4362
  185SLPC  C31421339   5.528   2.244   8.411 -0.6482  0.3984 -0.0794
  185SLPC  H14X21340   5.445   2.315   8.393  0.4978  1.3939 -1.6010
  185SLPC  H14Y21341   5.578   2.272   8.506  1.4720  0.8155 -1.2678
  185SLPC  C31521342   5.499   2.094   8.423  0.4073  0.3231 -0.1786
  185SLPC  H15X21343   5.591   2.037   8.445  0.0702 -0.2530 -0.2333
  185SLPC  H15Y21344   5.455   2.071   8.323 -5.0016 -1.3551  2.1734
  185SLPC  C31621345   5.389   2.066   8.526  0.1619 -0.2010  0.1264
  185SLPC  H16X21346   5.288   2.101   8.495 -0.3952  0.1517  2.2097
  185SLPC  H16Y21347   5.424   2.123   8.615  0.5186 -0.4181  0.1242
  185SLPC  C31721348   5.380   1.920   8.577  0.6305 -0.3802 -0.2176
  185SLPC  H17X21349   5.369   1.856   8.487 -1.6811  0.3310 -0.5007
  185SLPC  H17Y21350   5.296   1.903   8.648  0.5734  3.7680  0.9417
  185SLPC  C31821351   5.509   1.882   8.654 -0.7170  0.3400 -0.2018
  185SLPC  H18X21352   5.506   1.783   8.706 -0.1289  1.0998  1.3562
  185SLPC  H18Y21353   5.547   1.963   8.719  1.9230 -0.0437 -1.1571
  185SLPC  H18Z21354   5.585   1.864   8.575 -0.8833 -3.2066  0.2462
  186SLPC     N21355   2.984   5.457   5.768 -0.5566 -0.0057 -0.0391
  186SLPC   C1321356   3.016   5.323   5.832  0.6750 -0.3905 -1.0307
  186SLPC  H13A21357   2.946   5.245   5.806 -1.1497  0.8463 -0.0475
  186SLPC  H13B21358   3.104   5.288   5.781  0.4872 -0.9645 -0.9660
  186SLPC  H13C21359   3.039   5.333   5.937 -2.2449 -1.6507 -0.1711
  186SLPC   C1421360   2.838   5.484   5.790 -0.2214  0.4720 -0.5630
  186SLPC  H14A21361   2.791   5.387   5.794  0.7919 -0.0582 -0.9578
  186SLPC  H14B21362   2.821   5.525   5.888  2.7802 -0.3232  0.4035
  186SLPC  H14C21363   2.800   5.561   5.725  0.4265  2.1554  0.9857
  186SLPC   C1521364   3.008   5.459   5.618  0.1383 -0.2772 -0.4723
  186SLPC  H15A21365   2.950   5.384   5.567 -1.6873  1.7326 -1.5344
  186SLPC  H15B21366   2.984   5.560   5.589  0.5782  0.3495  1.2502
  186SLPC  H15C21367   3.113   5.458   5.593  0.2749  1.0101 -0.0296
  186SLPC   C1221368   3.057   5.572   5.837 -0.1900  0.4360 -0.3505
  186SLPC  H12A21369   3.053   5.564   5.944 -0.2395 -0.2539 -0.3994
  186SLPC  H12B21370   2.997   5.659   5.816 -0.7528 -0.4306 -2.7813
  186SLPC   C1121371   3.205   5.592   5.800  0.3875  0.1727 -0.2072
  186SLPC  H11A21372   3.233   5.692   5.840  0.9930  0.0682 -0.3593
  186SLPC  H11B21373   3.219   5.595   5.690  1.1706 -0.9529 -0.1532
  186SLPC     P21374   3.334   5.475   5.991  0.6926 -0.5739 -0.0495
  186SLPC   O1321375   3.372   5.331   6.003 -0.2402  0.2019 -0.8233
  186SLPC   O1421376   3.441   5.576   6.024  0.5887  0.2459  0.3874
  186SLPC   O1221377   3.289   5.489   5.839  0.6846 -0.3186 -0.1182
  186SLPC   O1121378   3.195   5.513   6.072  0.1426  0.3854 -0.4253
  186SLPC    C121379   3.206   5.560   6.205  0.1433 -0.0304 -0.4051
  186SLPC    HA21380   3.262   5.487   6.267 -0.9590 -0.2793  0.3235
  186SLPC    HB21381   3.252   5.661   6.207  1.9246 -0.8039  1.6141
  186SLPC    C221382   3.061   5.558   6.261 -0.4366  0.0830  1.0018
  186SLPC    HS21383   3.015   5.646   6.209 -0.3543  0.9771  2.3959
  186SLPC   O2121384   3.074   5.569   6.404 -0.0215 -0.5528  0.1188
  186SLPC   C2121385   2.976   5.626   6.465  0.5366 -0.0575  0.3767
  186SLPC   O2221386   2.883   5.683   6.410  0.5391  0.2125  0.2828
  186SLPC   C2221387   2.998   5.628   6.615  0.0377  0.6212  0.4759
  186SLPC   H2R21388   3.002   5.524   6.654  1.6791  0.7888  0.8498
  186SLPC   H2S21389   3.093   5.683   6.630  0.6003  0.2729 -1.4454
  186SLPC    C321390   2.989   5.424   6.221 -0.4839  0.2745 -0.0566
  186SLPC    HX21391   3.044   5.342   6.271 -3.5140 -3.2139 -1.9820
  186SLPC    HY21392   3.002   5.407   6.112  1.0136 -1.4027  0.3352
  186SLPC   O3121393   2.855   5.422   6.272  0.0381 -0.4223  0.1848
  186SLPC   C3121394   2.764   5.483   6.201 -0.0417  0.4777 -0.4514
  186SLPC   O3221395   2.790   5.546   6.097 -0.1719  0.4219  0.8945
  186SLPC   C3221396   2.634   5.487   6.281 -0.2185 -0.6832  0.3875
  186SLPC   H2X21397   2.546   5.486   6.213 -0.7700 -0.9930  1.0997
  186SLPC   H2Y21398   2.625   5.587   6.330  0.8750  0.2378 -1.1728
  186SLPC   C2321399   2.890   5.704   6.683  0.7486  0.8452 -0.6202
  186SLPC   H3R21400   2.798   5.643   6.670  0.0291  1.8112 -0.1940
  186SLPC   H3S21401   2.881   5.804   6.635  0.0756  1.7893  1.3609
  186SLPC   C2421402   2.906   5.752   6.828  0.2671 -0.0241 -0.2702
  186SLPC   H4R21403   2.826   5.828   6.842  1.7333  1.6047 -0.4370
  186SLPC   H4S21404   3.005   5.801   6.839  0.3073 -0.3292  0.8278
  186SLPC   C2521405   2.890   5.629   6.926 -0.4670 -0.1794  0.1503
  186SLPC   H5R21406   2.976   5.566   6.896  1.3470  2.3827 -0.3611
  186SLPC   H5S21407   2.792   5.576   6.918 -0.9177  0.1717  2.5851
  186SLPC   C2621408   2.911   5.668   7.071  0.3207  1.2679 -0.5594
  186SLPC   H6R21409   2.826   5.734   7.097 -2.0792 -1.9678  0.5462
  186SLPC   H6S21410   3.004   5.723   7.093  0.3696  0.4257  1.5244
  186SLPC   C2721411   2.915   5.532   7.160 -0.7094 -0.4563 -0.1861
  186SLPC   H7R21412   3.020   5.495   7.149  0.0799  1.4946  0.3008
  186SLPC   H7S21413   2.852   5.458   7.106 -1.0714  1.1270 -2.0360
  186SLPC   C2821414   2.895   5.546   7.307 -0.1897  0.2983  0.4396
  186SLPC   H8R21415   2.896   5.447   7.357 -0.1476 -0.1186 -0.3656
  186SLPC   H8S21416   2.788   5.576   7.308 -0.5034 -0.5789 -1.5864
  186SLPC   C2921417   2.984   5.636   7.385 -0.2206 -0.3281 -0.4370
  186SLPC   H9R21418   3.069   5.667   7.322 -0.5765 -0.8657 -1.1962
  186SLPC  C21021419   2.990   5.652   7.519  1.3558  0.5032  0.0821
  186SLPC  H10R21420   3.064   5.712   7.574 -0.7355  0.3264  3.3970
  186SLPC  C21121421   2.895   5.588   7.617  0.5808  0.5620  0.3424
  186SLPC  H11R21422   2.800   5.559   7.568  1.7057 -1.5655 -0.7497
  186SLPC  H11S21423   2.872   5.653   7.704  1.0965 -0.7485  1.4928
  186SLPC  C21221424   2.944   5.460   7.672  0.1594  0.0004  0.0126
  186SLPC  H12R21425   3.005   5.404   7.599 -1.6552 -1.0185 -0.7889
  186SLPC  C21321426   2.933   5.401   7.794  0.2453  0.2510  0.1379
  186SLPC  H13R21427   2.977   5.300   7.798  1.2558  0.5544 -2.0796
  186SLPC  C21421428   2.855   5.449   7.916 -0.2782 -0.1004  0.0022
  186SLPC  H14R21429   2.757   5.400   7.899  0.3429 -1.3694  0.0206
  186SLPC  H14S21430   2.831   5.557   7.910 -1.5548 -0.3496  0.4156
  186SLPC  C21521431   2.919   5.421   8.055 -0.4440  0.2633  0.3868
  186SLPC  H15R21432   2.952   5.315   8.059  1.0800  0.5874 -1.7244
  186SLPC  H15S21433   2.839   5.428   8.132 -0.4234  0.1320  0.4206
  186SLPC  C21621434   3.031   5.517   8.084  0.1075  0.3295 -0.7556
  186SLPC  H16R21435   2.994   5.610   8.131  1.8849  0.8291 -0.2679
  186SLPC  H16S21436   3.095   5.540   7.996 -0.9906  3.9610 -0.7482
  186SLPC  C21721437   3.128   5.450   8.196 -0.2153 -0.5718  0.2780
  186SLPC  H17R21438   3.210   5.514   8.233  0.4952 -0.1921 -1.8205
  186SLPC  H17S21439   3.196   5.372   8.156 -1.9353 -0.9800 -2.0751
  186SLPC  C21821440   3.054   5.408   8.323 -0.2970 -0.5761 -0.3000
  186SLPC  H18R21441   3.126   5.354   8.388 -0.5816  0.9643  1.3781
  186SLPC  H18S21442   2.969   5.338   8.310 -0.9169  0.1505 -0.2223
  186SLPC  H18T21443   3.008   5.492   8.379 -0.0137 -1.7661  1.8146
  186SLPC   C3321444   2.622   5.368   6.377  0.0661  0.1944  0.2220
  186SLPC   H3X21445   2.669   5.277   6.334 -0.7336  0.1493 -0.5854
  186SLPC   H3Y21446   2.514   5.339   6.374  0.3394 -0.7612 -0.7918
  186SLPC   C3421447   2.667   5.398   6.522  0.3194  0.1200 -0.2375
  186SLPC   H4X21448   2.621   5.493   6.558  1.8557 -0.0311  2.3961
  186SLPC   H4Y21449   2.777   5.408   6.523  0.3013  0.3237  0.4892
  186SLPC   C3521450   2.622   5.295   6.617  0.2718  0.6433 -0.1359
  186SLPC   H5X21451   2.689   5.207   6.611 -2.0770 -1.1827 -1.2731
  186SLPC   H5Y21452   2.515   5.265   6.606  0.5638 -0.5546  0.1949
  186SLPC   C3621453   2.648   5.334   6.762  0.8222  0.0210  0.0807
  186SLPC   H6X21454   2.601   5.429   6.793  0.3923 -0.6799  1.6962
  186SLPC   H6Y21455   2.758   5.348   6.768  1.3994 -2.3803 -2.5249
  186SLPC   C3721456   2.589   5.244   6.870 -0.0252  0.7207 -0.5405
  186SLPC   H7X21457   2.604   5.136   6.848  0.8846  0.3598  1.5382
  186SLPC   H7Y21458   2.478   5.250   6.870 -0.1424 -0.7900 -0.0341
  186SLPC   C3821459   2.651   5.266   7.010 -0.1877  0.6849  0.6732
  186SLPC   H8X21460   2.644   5.373   7.039 -0.6398  1.1427 -1.0026
  186SLPC   H8Y21461   2.759   5.253   6.991  0.3202  2.0653  2.4201
  186SLPC   C3921462   2.589   5.184   7.123 -0.7278 -0.1662  1.0698
  186SLPC   H9X21463   2.635   5.084   7.106  2.4788  1.6341 -2.0141
  186SLPC   H9Y21464   2.478   5.182   7.123 -1.0164  4.1724  2.7493
  186SLPC  C31021465   2.637   5.246   7.252  0.2693 -0.0063 -0.8992
  186SLPC  H10X21466   2.586   5.344   7.269 -0.9818 -0.7992  0.1083
  186SLPC  H10Y21467   2.744   5.271   7.267 -0.2308  0.4975  2.4541
  186SLPC  C31121468   2.602   5.150   7.372  0.4080 -0.0572 -0.1456
  186SLPC  H11X21469   2.655   5.052   7.369 -0.5693 -0.6212  0.5947
  186SLPC  H11Y21470   2.495   5.125   7.383  0.4948  0.4069  2.2251
  186SLPC  C31221471   2.635   5.207   7.510  0.3190  0.4316 -0.1327
  186SLPC  H12X21472   2.610   5.315   7.516 -0.7230  0.1422  1.2171
  186SLPC  H12Y21473   2.746   5.209   7.514  0.4327 -0.1539 -2.0059
  186SLPC  C31321474   2.567   5.132   7.631 -0.4777 -0.4967  0.2055
  186SLPC  H13X21475   2.609   5.029   7.622 -0.5450 -0.6878  1.6938
  186SLPC  H13Y21476   2.456   5.137   7.622 -0.6175 -1.1573  1.2760
  186SLPC  C31421477   2.600   5.204   7.768 -0.0130 -0.3497 -0.0338
  186SLPC  H14X21478   2.545   5.300   7.771 -0.7806 -0.6799  4.9699
  186SLPC  H14Y21479   2.706   5.233   7.785 -0.5160  0.8037  1.2491
  186SLPC  C31521480   2.540   5.114   7.885  0.3314 -0.0309  0.4591
  186SLPC  H15X21481   2.570   5.010   7.861  1.7597  0.2191  1.0319
  186SLPC  H15Y21482   2.429   5.115   7.880  0.3416 -1.7383 -2.8614
  186SLPC  C31621483   2.590   5.136   8.027 -0.1856  0.6218 -0.2074
  186SLPC  H16X21484   2.699   5.146   8.009 -0.1448 -0.2526 -0.4769
  186SLPC  H16Y21485   2.568   5.063   8.108  1.3861  0.3207 -0.0269
  186SLPC  C31721486   2.545   5.269   8.096 -0.9292  0.2641  0.0492
  186SLPC  H17X21487   2.575   5.355   8.033  0.9171 -0.7748 -0.5643
  186SLPC  H17Y21488   2.606   5.280   8.188  3.2248 -1.5831 -2.2063
  186SLPC  C31821489   2.394   5.276   8.115 -0.4533 -0.2406  1.0849
  186SLPC  H18X21490   2.369   5.377   8.154 -2.2102  0.3849 -1.4128
  186SLPC  H18Y21491   2.359   5.191   8.178 -4.3860 -0.7985 -1.4739
  186SLPC  H18Z21492   2.337   5.261   8.021  0.2958 -2.5896  0.9288
  187SLPC     N21493   6.066   2.891   6.310 -0.4963 -0.4805 -0.4896
  187SLPC   C1321494   6.174   2.969   6.243  0.2168 -0.0093  0.2030
  187SLPC  H13A21495   6.123   2.991   6.151 -1.2578 -0.0416  0.9806
  187SLPC  H13B21496   6.204   3.063   6.289 -1.5260  2.1913 -2.8004
  187SLPC  H13C21497   6.256   2.900   6.230  0.9336  0.7547  0.5827
  187SLPC   C1421498   6.031   2.774   6.228 -0.1648  0.2701  0.2564
  187SLPC  H14A21499   6.120   2.715   6.211 -0.6724 -0.6314  0.6392
  187SLPC  H14B21500   5.960   2.704   6.271 -0.0925 -0.5391 -0.8971
  187SLPC  H14C21501   5.993   2.806   6.132 -1.1078 -1.1060  0.1328
  187SLPC   C1521502   5.935   2.971   6.323  0.1487  0.3232  0.7832
  187SLPC  H15A21503   5.958   3.058   6.383  1.2529  1.2234 -0.8795
  187SLPC  H15B21504   5.909   3.016   6.229 -1.0035 -0.6687  0.6143
  187SLPC  H15C21505   5.854   2.912   6.364  0.7352 -1.6204 -0.7121
  187SLPC   C1221506   6.115   2.842   6.452 -0.4979  0.1522 -0.0502
  187SLPC  H12A21507   6.034   2.791   6.502  1.1793 -1.6528  1.0261
  187SLPC  H12B21508   6.125   2.926   6.520 -0.4127 -1.0064  1.4254
  187SLPC   C1121509   6.249   2.768   6.470  0.2070 -0.3311  0.5466
  187SLPC  H11A21510   6.232   2.671   6.418 -0.2626  0.8088 -1.5180
  187SLPC  H11B21511   6.264   2.746   6.578 -0.4930 -0.9163  0.5396
  187SLPC     P21512   6.425   2.965   6.502  0.6437 -0.4428  0.4015
  187SLPC   O1321513   6.535   3.005   6.417 -0.3254  0.5046  0.7056
  187SLPC   O1421514   6.324   3.072   6.534 -0.1904 -0.0576 -0.6499
  187SLPC   O1221515   6.357   2.846   6.427 -0.0738 -0.0487 -0.0426
  187SLPC   O1121516   6.477   2.902   6.631 -0.2521 -0.0757 -0.2926
  187SLPC    C121517   6.601   2.947   6.697  0.4641 -0.6186 -0.3907
  187SLPC    HA21518   6.691   2.895   6.658 -0.5028 -1.8281 -1.1149
  187SLPC    HB21519   6.625   3.054   6.682  1.6057 -0.8698 -0.4346
  187SLPC    C221520   6.604   2.925   6.852  0.4537 -0.5344  0.2916
  187SLPC    HS21521   6.660   2.834   6.883  0.5087 -0.6947 -0.2702
  187SLPC   O2121522   6.470   2.923   6.910 -0.0419 -0.3977  0.0626
  187SLPC   C2121523   6.421   2.791   6.900  0.2920  0.2917  0.3255
  187SLPC   O2221524   6.492   2.695   6.889  0.6323 -0.3674  0.3253
  187SLPC   C2221525   6.268   2.781   6.905  0.0646 -0.4914 -0.2867
  187SLPC   H2R21526   6.223   2.879   6.880  1.7901  0.1349 -1.1336
  187SLPC   H2S21527   6.233   2.700   6.837  0.0274 -1.0033  0.3297
  187SLPC    C321528   6.670   3.041   6.924  0.2852 -0.4434  1.0966
  187SLPC    HX21529   6.604   3.128   6.905  0.3329 -0.5504  0.4114
  187SLPC    HY21530   6.764   3.054   6.866 -0.2320 -0.1572  0.3125
  187SLPC   O3121531   6.688   3.014   7.065  0.2749  0.3722  0.0023
  187SLPC   C3121532   6.586   3.061   7.143 -0.4824 -0.0275  0.0460
  187SLPC   O3221533   6.507   3.144   7.101 -0.4334 -0.5134  0.0663
  187SLPC   C3221534   6.581   2.990   7.272  0.0160  0.8276  0.0794
  187SLPC   H2X21535   6.680   2.948   7.301  0.0267 -0.0785 -1.1930
  187SLPC   H2Y21536   6.525   2.896   7.254  1.7804 -0.3972  0.6538
  187SLPC   C2321537   6.204   2.719   7.033 -0.1850 -0.6910  0.0484
  187SLPC   H3R21538   6.227   2.610   7.039 -2.2933 -1.1354  0.9394
  187SLPC   H3S21539   6.094   2.721   7.018  0.0757  1.1558 -1.9819
  187SLPC   C2421540   6.244   2.792   7.159  0.0594  0.3439  1.1401
  187SLPC   H4R21541   6.183   2.884   7.164  0.0277  0.3304  1.0090
  187SLPC   H4S21542   6.354   2.809   7.153  0.3810 -1.9399 -2.0647
  187SLPC   C2521543   6.204   2.715   7.290 -0.3220 -0.1589  0.1713
  187SLPC   H5R21544   6.255   2.616   7.283 -0.6457 -0.3717  0.7543
  187SLPC   H5S21545   6.097   2.689   7.274 -0.2332 -0.3238 -0.1909
  187SLPC   C2621546   6.237   2.788   7.419 -1.2335 -0.4840  1.0138
  187SLPC   H6R21547   6.203   2.893   7.405 -0.4536 -0.3436  0.0697
  187SLPC   H6S21548   6.347   2.794   7.431 -1.0063 -0.3681 -0.8788
  187SLPC   C2721549   6.152   2.727   7.538 -0.0105 -0.7284 -0.0479
  187SLPC   H7R21550   6.213   2.643   7.580 -0.8987 -2.0307 -1.2766
  187SLPC   H7S21551   6.060   2.677   7.500 -2.3355 -0.6105  4.6996
  187SLPC   C2821552   6.115   2.825   7.651 -0.0330  0.5577 -0.0928
  187SLPC   H8R21553   6.053   2.755   7.712  0.2337 -0.2632 -0.7552
  187SLPC   H8S21554   6.053   2.899   7.596 -1.1226 -1.4490 -1.6944
  187SLPC   C2921555   6.229   2.898   7.724 -0.0439  0.5770 -0.2255
  187SLPC   H9R21556   6.289   2.958   7.654 -0.6175  0.1464 -1.1109
  187SLPC  C21021557   6.268   2.888   7.855 -0.5900 -0.4195 -0.1140
  187SLPC  H10R21558   6.363   2.934   7.884  0.2484 -0.9540 -1.8603
  187SLPC  C21121559   6.199   2.793   7.958 -0.0860 -0.1456 -0.5547
  187SLPC  H11R21560   6.264   2.742   8.031  0.1110  0.5615 -0.2265
  187SLPC  H11S21561   6.131   2.720   7.908 -0.2320  0.8050 -1.8083
  187SLPC  C21221562   6.113   2.882   8.046 -0.0500 -0.1116 -0.1030
  187SLPC  H12R21563   6.058   2.966   8.002  0.3428  0.5334  0.6230
  187SLPC  C21321564   6.076   2.857   8.171 -0.0912 -0.7777  0.0274
  187SLPC  H13R21565   6.037   2.944   8.226  2.4964  0.1339  0.5896
  187SLPC  C21421566   6.101   2.742   8.259  0.4855 -0.0344 -0.0876
  187SLPC  H14R21567   6.186   2.773   8.323 -1.2911 -0.0330  2.4062
  187SLPC  H14S21568   6.125   2.651   8.200  1.1669  0.4941 -0.6281
  187SLPC  C21521569   5.995   2.703   8.356  0.1045 -1.0184 -0.7949
  187SLPC  H15R21570   5.895   2.697   8.309 -1.4790  3.9074  1.2061
  187SLPC  H15S21571   5.985   2.783   8.433  1.7774 -1.2838 -0.2561
  187SLPC  C21621572   6.031   2.575   8.432  0.3135 -0.3894 -0.2804
  187SLPC  H16R21573   6.127   2.590   8.487  0.2368 -1.0946  0.0679
  187SLPC  H16S21574   6.051   2.495   8.358 -1.8636 -1.7792  0.5234
  187SLPC  C21721575   5.927   2.525   8.528  0.1540 -0.4230  0.3840
  187SLPC  H17R21576   5.969   2.436   8.580  1.8409 -0.1059 -0.3434
  187SLPC  H17S21577   5.843   2.487   8.467 -0.6999  1.2826  0.4376
  187SLPC  C21821578   5.874   2.619   8.634  0.3317 -0.0695 -0.6802
  187SLPC  H18R21579   5.837   2.574   8.729 -0.5101  2.5952  0.3382
  187SLPC  H18S21580   5.799   2.687   8.589  0.6247  0.4711 -0.3682
  187SLPC  H18T21581   5.964   2.674   8.670  1.1998 -2.7962  1.7230
  187SLPC   C3321582   6.512   3.063   7.391 -0.3638  1.4189 -0.4252
  187SLPC   H3X21583   6.493   2.995   7.477  2.0555  0.5075 -0.5088
  187SLPC   H3Y21584   6.410   3.091   7.360 -0.8285  0.8201  0.5218
  187SLPC   C3421585   6.596   3.182   7.451  0.1181 -0.1431  0.0571
  187SLPC   H4X21586   6.588   3.255   7.368 -1.8035  1.9153  1.8977
  187SLPC   H4Y21587   6.701   3.155   7.477 -0.2688 -0.5908  1.2632
  187SLPC   C3521588   6.532   3.261   7.568 -0.2390  0.4160  0.3224
  187SLPC   H5X21589   6.426   3.294   7.568  0.0082  1.3069 -0.8480
  187SLPC   H5Y21590   6.594   3.350   7.589 -2.6075  1.9890  1.0527
  187SLPC   C3621591   6.543   3.184   7.699  0.3266  0.0228  0.2117
  187SLPC   H6X21592   6.652   3.170   7.717  0.4579 -1.5391 -1.4666
  187SLPC   H6Y21593   6.503   3.081   7.686 -1.9801  0.8260  0.5116
  187SLPC   C3721594   6.475   3.241   7.821  0.4468  0.2430 -0.0304
  187SLPC   H7X21595   6.480   3.351   7.810  2.5038  0.1073 -0.9778
  187SLPC   H7Y21596   6.366   3.224   7.807 -0.1664  3.5418 -0.0464
  187SLPC   C3821597   6.523   3.191   7.956 -0.5911 -1.0541  0.5822
  187SLPC   H8X21598   6.634   3.204   7.960 -0.6423 -0.8849  1.8085
  187SLPC   H8Y21599   6.498   3.083   7.957 -2.1489 -0.7465 -0.8763
  187SLPC   C3921600   6.479   3.286   8.069  0.4644  0.5008  0.7224
  187SLPC   H9X21601   6.373   3.259   8.092  0.5128 -1.4278 -1.0116
  187SLPC   H9Y21602   6.485   3.392   8.035 -0.4338 -0.2727 -2.0792
  187SLPC  C31021603   6.562   3.268   8.195 -0.0077 -0.3067 -0.6012
  187SLPC  H10X21604   6.667   3.266   8.159 -0.2940 -1.5124 -1.4449
  187SLPC  H10Y21605   6.531   3.171   8.239 -1.9233  0.6514  0.3286
  187SLPC  C31121606   6.523   3.380   8.298  0.8061 -0.3704 -0.0719
  187SLPC  H11X21607   6.413   3.387   8.311  0.9869  3.7788  0.4391
  187SLPC  H11Y21608   6.546   3.479   8.254 -0.3455 -0.0191  0.0804
  187SLPC  C31221609   6.584   3.362   8.435 -0.4501  0.7514 -0.3286
  187SLPC  H12X21610   6.689   3.326   8.426 -0.4003  1.1640 -1.6761
  187SLPC  H12Y21611   6.529   3.284   8.492 -0.0917  1.8319  1.5784
  187SLPC  C31321612   6.579   3.487   8.518  0.0301 -0.4023  0.1124
  187SLPC  H13X21613   6.602   3.460   8.623  2.3815  1.1600  0.0611
  187SLPC  H13Y21614   6.480   3.537   8.512  0.3031  0.0328 -1.0317
  187SLPC  C31421615   6.678   3.594   8.472 -0.9298  0.4772  0.2017
  187SLPC  H14X21616   6.653   3.628   8.370 -1.8606  0.5001  0.4317
  187SLPC  H14Y21617   6.783   3.558   8.473 -1.2936 -0.6188  0.9240
  187SLPC  C31521618   6.682   3.718   8.568  0.0037 -0.1777 -0.3157
  187SLPC  H15X21619   6.762   3.778   8.518 -0.1643  0.3916  0.0896
  187SLPC  H15Y21620   6.727   3.685   8.664 -2.2739  1.4780  1.4201
  187SLPC  C31621621   6.549   3.785   8.589  0.1300  0.4710  0.6845
  187SLPC  H16X21622   6.490   3.718   8.655  0.9814 -2.9963 -1.7307
  187SLPC  H16Y21623   6.489   3.786   8.496  1.0147 -0.3720  0.0817
  187SLPC  C31721624   6.560   3.923   8.649 -0.5241 -0.7317 -0.7516
  187SLPC  H17X21625   6.613   3.915   8.746 -1.3100 -0.9126 -0.3222
  187SLPC  H17Y21626   6.456   3.949   8.678 -0.4774 -2.2226  0.9020
  187SLPC  C31821627   6.628   4.022   8.556  0.5745 -0.2191 -0.0138
  187SLPC  H18X21628   6.571   4.030   8.461  1.9125  0.9458 -0.7452
  187SLPC  H18Y21629   6.728   3.995   8.515  0.3781  1.3813 -1.7185
  187SLPC  H18Z21630   6.638   4.121   8.604  0.0918 -0.7698  1.2661
  188SLPC     N21631   1.082   1.638   6.404 -0.5721 -0.4672 -0.1680
  188SLPC   C1321632   1.130   1.755   6.316  0.5257 -0.0343  0.4744
  188SLPC  H13A21633   1.068   1.755   6.228  1.8976  0.3764 -0.5355
  188SLPC  H13B21634   1.118   1.848   6.371  1.6137 -0.0664  0.7929
  188SLPC  H13C21635   1.231   1.748   6.278  0.5400 -1.4627  0.7425
  188SLPC   C1421636   1.167   1.636   6.524 -0.1899 -1.2073  0.3822
  188SLPC  H14A21637   1.268   1.599   6.510 -1.0284 -3.3416 -0.4713
  188SLPC  H14B21638   1.170   1.729   6.579 -1.8308 -0.2425 -1.0657
  188SLPC  H14C21639   1.129   1.558   6.589  0.5085 -0.5612  1.6067
  188SLPC   C1521640   1.104   1.513   6.338 -0.1149  0.5354 -0.2348
  188SLPC  H15A21641   1.031   1.497   6.260 -1.0617  1.7339  0.3743
  188SLPC  H15B21642   1.196   1.513   6.283  0.0988 -1.0667  0.0672
  188SLPC  H15C21643   1.088   1.427   6.403 -1.4564  1.1422  0.2809
  188SLPC   C1221644   0.942   1.665   6.455  0.1903 -0.1090  0.4788
  188SLPC  H12A21645   0.953   1.751   6.519  0.6777 -1.3795  2.1786
  188SLPC  H12B21646   0.914   1.575   6.507  3.3749 -0.9065  0.9868
  188SLPC   C1121647   0.836   1.692   6.341  0.1734  0.1906  0.0058
  188SLPC  H11A21648   0.869   1.775   6.276 -0.9198 -0.9666 -2.1383
  188SLPC  H11B21649   0.746   1.740   6.384 -0.3995 -1.6784  1.0127
  188SLPC     P21650   0.729   1.450   6.327 -0.1035 -0.1503 -0.0482
  188SLPC   O1321651   0.594   1.458   6.284  0.2894 -0.4351  0.3771
  188SLPC   O1421652   0.810   1.325   6.287 -0.2013  0.3005 -1.0998
  188SLPC   O1221653   0.803   1.574   6.269 -0.1139 -1.0583 -0.5160
  188SLPC   O1121654   0.727   1.471   6.479 -0.3214  0.1431  0.5498
  188SLPC    C121655   0.628   1.427   6.575 -0.4544 -0.7698  0.1882
  188SLPC    HA21656   0.550   1.506   6.577  0.2261 -0.0207 -1.4476
  188SLPC    HB21657   0.582   1.329   6.554 -0.0316 -1.0627  0.6056
  188SLPC    C221658   0.690   1.424   6.715  0.4395 -0.1068 -0.2774
  188SLPC    HS21659   0.652   1.338   6.774 -0.2296  0.8200  0.7027
  188SLPC   O2121660   0.664   1.542   6.790 -0.2663 -0.0978 -0.2411
  188SLPC   C2121661   0.547   1.540   6.850  0.1522 -0.0987 -0.4433
  188SLPC   O2221662   0.463   1.452   6.845  0.5023  0.8944  0.9745
  188SLPC   C2221663   0.539   1.655   6.956  0.4492  0.0685  0.2221
  188SLPC   H2R21664   0.630   1.718   6.962  2.1609 -2.3391  0.8281
  188SLPC   H2S21665   0.451   1.715   6.923  1.1762  0.1356 -1.7138
  188SLPC    C321666   0.843   1.406   6.714  0.1829  0.1987 -0.0476
  188SLPC    HX21667   0.885   1.497   6.665  1.3672 -0.4430 -0.2557
  188SLPC    HY21668   0.856   1.325   6.639  1.7181 -0.6159  1.0405
  188SLPC   O3121669   0.912   1.379   6.838 -0.6160 -0.4250  0.2046
  188SLPC   C3121670   1.043   1.384   6.825  0.4261 -0.3636  0.1847
  188SLPC   O3221671   1.093   1.404   6.710  0.2473 -0.1496  0.2990
  188SLPC   C3221672   1.118   1.367   6.956  0.7592  0.3233 -0.3378
  188SLPC   H2X21673   1.067   1.291   7.018 -1.4827  0.9622 -1.2769
  188SLPC   H2Y21674   1.105   1.463   7.010 -0.2045  0.1776 -0.2819
  188SLPC   C2321675   0.526   1.594   7.097  0.1073  0.1502 -0.3715
  188SLPC   H3R21676   0.465   1.503   7.113  0.9998 -0.3899 -0.0161
  188SLPC   H3S21677   0.486   1.672   7.165  0.7341 -0.2171  0.4187
  188SLPC   C2421678   0.661   1.573   7.165  0.2783 -0.2814 -0.0982
  188SLPC   H4R21679   0.727   1.661   7.146 -2.0232  1.3505 -0.9312
  188SLPC   H4S21680   0.720   1.494   7.114  0.5092 -1.6815  2.2070
  188SLPC   C2521681   0.667   1.520   7.313 -0.3858 -0.3270 -0.1576
  188SLPC   H5R21682   0.581   1.451   7.326  0.8025 -2.1552 -1.4854
  188SLPC   H5S21683   0.650   1.616   7.367  1.1374 -0.1401  0.0523
  188SLPC   C2621684   0.802   1.459   7.359  0.0678 -0.2986  0.4758
  188SLPC   H6R21685   0.836   1.381   7.287 -1.0457 -0.6718  0.3374
  188SLPC   H6S21686   0.783   1.395   7.448 -0.4951 -1.5981 -0.5392
  188SLPC   C2721687   0.916   1.559   7.388  0.8291 -0.2698  0.3677
  188SLPC   H7R21688   0.887   1.629   7.469  3.6685  2.4505 -0.7914
  188SLPC   H7S21689   0.942   1.610   7.294 -2.1593 -0.3857 -0.6372
  188SLPC   C2821690   1.045   1.485   7.430 -0.6903  0.3502  0.0728
  188SLPC   H8R21691   1.036   1.450   7.535  0.8706 -1.4675 -0.3411
  188SLPC   H8S21692   1.117   1.569   7.414 -1.4777  1.0635  0.2153
  188SLPC   C2921693   1.104   1.380   7.345 -0.3699 -0.3621  0.4351
  188SLPC   H9R21694   1.158   1.422   7.259 -0.7868 -0.3099  0.1996
  188SLPC  C21021695   1.099   1.248   7.371 -0.9401 -0.6623  0.0555
  188SLPC  H10R21696   1.165   1.181   7.313 -0.8016 -0.6439  0.1889
  188SLPC  C21121697   1.025   1.185   7.488 -0.2950  0.1749  0.3016
  188SLPC  H11R21698   0.998   1.081   7.457  1.6611 -0.8344  1.7718
  188SLPC  H11S21699   0.932   1.244   7.501 -0.9660 -0.7038 -0.3082
  188SLPC  C21221700   1.093   1.175   7.617 -0.4438 -0.1789 -0.0248
  188SLPC  H12R21701   1.194   1.216   7.634 -1.9270  3.9932 -0.1790
  188SLPC  C21321702   1.035   1.126   7.724  0.2660 -1.2185  0.1760
  188SLPC  H13R21703   1.087   1.114   7.820  1.1920  1.5259  0.0781
  188SLPC  C21421704   0.893   1.071   7.727  0.1609  0.0434 -0.5845
  188SLPC  H14R21705   0.857   1.043   7.626  0.0528 -1.0825 -0.2528
  188SLPC  H14S21706   0.825   1.151   7.763  1.3436  0.5760  0.5439
  188SLPC  C21521707   0.870   0.947   7.821  0.3688 -0.4636  0.4167
  188SLPC  H15R21708   0.939   0.866   7.786 -0.3482 -0.7787 -0.2825
  188SLPC  H15S21709   0.764   0.918   7.807  0.0399  1.0101 -0.2313
  188SLPC  C21621710   0.914   0.968   7.965  0.5061  0.1078 -0.5637
  188SLPC  H16R21711   0.866   1.060   8.004 -0.1500 -0.7742  0.7706
  188SLPC  H16S21712   1.025   0.967   7.970  0.4551 -1.1795  2.4955
  188SLPC  C21721713   0.881   0.851   8.052  0.0744  0.1555 -0.3883
  188SLPC  H17R21714   0.944   0.763   8.029  1.7380  1.3305 -0.4506
  188SLPC  H17S21715   0.774   0.823   8.041  0.4637 -0.5183 -3.0905
  188SLPC  C21821716   0.910   0.886   8.203  0.7595  0.5665 -0.0050
  188SLPC  H18R21717   0.893   0.805   8.278  1.7789  0.2402 -0.1120
  188SLPC  H18S21718   0.857   0.978   8.237 -2.5746 -0.9421 -0.7025
  188SLPC  H18T21719   1.017   0.915   8.206  1.0236 -0.1541 -1.5104
  188SLPC   C3321720   1.268   1.349   6.922  0.5675 -0.4937 -0.3790
  188SLPC   H3X21721   1.297   1.414   6.837  2.2707  0.1521  0.6288
  188SLPC   H3Y21722   1.287   1.241   6.904 -0.2511 -0.8624  0.8292
  188SLPC   C3421723   1.363   1.379   7.040  0.0125 -0.4073  0.7615
  188SLPC   H4X21724   1.336   1.324   7.133 -1.9725  1.7051  1.5183
  188SLPC   H4Y21725   1.347   1.488   7.057 -3.3879 -0.6040 -0.5226
  188SLPC   C3521726   1.514   1.349   6.995  0.7082 -0.0654 -0.5987
  188SLPC   H5X21727   1.551   1.405   6.906 -0.5645  0.8905 -0.5661
  188SLPC   H5Y21728   1.522   1.243   6.964  2.0603 -0.2258  0.2031
  188SLPC   C3621729   1.608   1.378   7.104 -0.2821 -1.0891  0.4744
  188SLPC   H6X21730   1.614   1.487   7.126  1.9313 -1.3283  1.3702
  188SLPC   H6Y21731   1.712   1.351   7.074 -1.4954 -2.2882 -3.1138
  188SLPC   C3721732   1.582   1.303   7.234 -0.2430  0.1864  0.1350
  188SLPC   H7X21733   1.537   1.208   7.199  1.4389 -0.4125 -0.5037
  188SLPC   H7Y21734   1.501   1.350   7.294  0.9220  2.0176  0.3747
  188SLPC   C3821735   1.703   1.291   7.330  0.0675 -0.2732  0.1947
  188SLPC   H8X21736   1.742   1.391   7.357  0.9705 -0.1104 -1.5320
  188SLPC   H8Y21737   1.790   1.249   7.276  1.6673 -0.4980  2.8066
  188SLPC   C3921738   1.679   1.196   7.452 -0.2712  0.4186  0.8618
  188SLPC   H9X21739   1.775   1.153   7.487  0.2370  0.3479 -0.5497
  188SLPC   H9Y21740   1.618   1.109   7.421 -0.6702  1.0812 -0.2770
  188SLPC  C31021741   1.589   1.254   7.567 -0.0480 -0.4300  0.3462
  188SLPC  H10X21742   1.488   1.272   7.526 -0.7667  1.6666  2.7214
  188SLPC  H10Y21743   1.635   1.354   7.585 -2.2943  0.9658 -1.1474
  188SLPC  C31121744   1.573   1.159   7.687 -0.3056  0.8765 -0.0873
  188SLPC  H11X21745   1.521   1.065   7.658 -2.3047  1.1913  2.1822
  188SLPC  H11Y21746   1.514   1.208   7.767 -0.0947 -2.6401  2.5067
  188SLPC  C31221747   1.702   1.120   7.765  0.0214  0.0410 -0.4163
  188SLPC  H12X21748   1.762   1.209   7.793  0.3103 -0.9632  2.5573
  188SLPC  H12Y21749   1.768   1.052   7.706 -1.0165  0.3132 -1.9529
  188SLPC  C31321750   1.679   1.050   7.902 -0.4135  0.2766 -0.4895
  188SLPC  H13X21751   1.641   0.950   7.873  0.3697 -0.6384  1.4824
  188SLPC  H13Y21752   1.604   1.105   7.962 -0.1259 -0.6235  0.7184
  188SLPC  C31421753   1.809   1.029   7.985 -0.2335  0.1134 -0.4914
  188SLPC  H14X21754   1.850   1.129   8.013  0.3455 -0.5785  1.3176
  188SLPC  H14Y21755   1.879   0.976   7.917  0.1244  1.4477 -1.1859
  188SLPC  C31521756   1.785   0.936   8.108  0.3953 -0.3870  0.3199
  188SLPC  H15X21757   1.747   0.839   8.067  0.8075 -0.9647  1.2631
  188SLPC  H15Y21758   1.702   0.983   8.166  0.5560  0.4033 -0.0853
  188SLPC  C31621759   1.908   0.911   8.202 -0.2544  0.2751  0.0846
  188SLPC  H16X21760   1.945   1.008   8.243 -0.1718 -0.2817  1.4092
  188SLPC  H16Y21761   1.995   0.861   8.155 -0.9853 -1.3613  0.4011
  188SLPC  C31721762   1.859   0.860   8.332  0.7827  0.0411 -0.4775
  188SLPC  H17X21763   1.804   0.764   8.319  1.9276 -0.8807  1.1307
  188SLPC  H17Y21764   1.793   0.928   8.391  0.2512 -0.9331  0.0872
  188SLPC  C31821765   1.978   0.824   8.410 -0.5001 -0.1774  1.3496
  188SLPC  H18X21766   2.043   0.751   8.357 -0.3551 -0.8948  2.4818
  188SLPC  H18Y21767   1.949   0.776   8.506 -1.2058 -2.7598 -0.0575
  188SLPC  H18Z21768   2.039   0.916   8.425  1.1002 -0.9802  0.1324
  189SLPC     N21769   5.439   1.311   6.132  0.2553  0.9537  0.4120
  189SLPC   C1321770   5.326   1.217   6.134  0.1828 -0.2863  0.5432
  189SLPC  H13A21771   5.346   1.144   6.210  0.0088 -0.3932  0.4872
  189SLPC  H13B21772   5.233   1.272   6.143 -0.3561 -1.1760  0.4801
  189SLPC  H13C21773   5.307   1.159   6.045 -0.5524 -2.9266  2.3113
  189SLPC   C1421774   5.438   1.398   6.259  0.2781 -0.3656 -0.0547
  189SLPC  H14A21775   5.459   1.340   6.347 -1.6183  0.8081  1.2445
  189SLPC  H14B21776   5.522   1.465   6.254 -0.2155  0.5612  2.4469
  189SLPC  H14C21777   5.340   1.444   6.266 -0.6985 -1.8539 -2.4574
  189SLPC   C1521778   5.418   1.406   6.012 -0.5144 -0.2660 -0.3588
  189SLPC  H15A21779   5.314   1.434   6.020  0.2610  2.4313  2.1544
  189SLPC  H15B21780   5.475   1.495   6.032  0.7277 -0.3763 -3.0164
  189SLPC  H15C21781   5.434   1.357   5.917 -1.5975  2.3221 -1.9632
  189SLPC   C1221782   5.570   1.233   6.112  0.2795  0.5094 -0.8237
  189SLPC  H12A21783   5.540   1.170   6.029 -1.6278 -1.1264  1.0020
  189SLPC  H12B21784   5.580   1.162   6.193  0.4815  1.0430 -0.3782
  189SLPC   C1121785   5.700   1.310   6.083  0.1131  0.2659  0.8275
  189SLPC  H11A21786   5.679   1.391   6.010 -2.1789 -0.6213  0.4271
  189SLPC  H11B21787   5.777   1.244   6.038  0.0846 -1.2346  2.8303
  189SLPC     P21788   5.818   1.284   6.312  0.2551 -0.2502  0.1589
  189SLPC   O1321789   5.874   1.158   6.250  0.4717 -0.2200  0.2912
  189SLPC   O1421790   5.922   1.364   6.378  0.2830 -0.4335  0.1225
  189SLPC   O1221791   5.751   1.372   6.197 -0.0741  0.1976 -0.0782
  189SLPC   O1121792   5.692   1.251   6.408 -0.1326  0.6100 -0.2304
  189SLPC    C121793   5.662   1.341   6.515  0.1035 -0.2757 -0.0398
  189SLPC    HA21794   5.693   1.447   6.503  1.2419 -0.6359 -0.3726
  189SLPC    HB21795   5.551   1.345   6.523 -0.0274 -1.9219 -0.5341
  189SLPC    C221796   5.707   1.288   6.653  0.0283  0.3511 -0.5103
  189SLPC    HS21797   5.817   1.280   6.655  0.0013 -0.0185 -0.5210
  189SLPC   O2121798   5.644   1.162   6.677 -0.2425 -0.0851  0.3189
  189SLPC   C2121799   5.693   1.098   6.786  0.0244 -0.5344  0.5941
  189SLPC   O2221800   5.783   1.136   6.858 -0.8970  0.1369  0.5669
  189SLPC   C2221801   5.635   0.958   6.787  0.0455  0.3343  0.3616
  189SLPC   H2R21802   5.655   0.925   6.682  0.9322  2.0988 -0.0652
  189SLPC   H2S21803   5.690   0.895   6.860 -0.1669  0.5705  0.7249
  189SLPC    C321804   5.670   1.401   6.757 -0.4530 -0.2122 -0.2251
  189SLPC    HX21805   5.721   1.495   6.728 -0.8585  0.5363  1.3436
  189SLPC    HY21806   5.713   1.374   6.855 -1.6444 -0.4066  0.2664
  189SLPC   O3121807   5.526   1.427   6.767  0.3884  0.0660  0.0120
  189SLPC   C3121808   5.467   1.355   6.861 -0.0832 -0.2175 -0.7674
  189SLPC   O3221809   5.523   1.270   6.927  0.0759  0.1615  0.9784
  189SLPC   C3221810   5.321   1.381   6.878  0.3311 -0.7040 -0.1724
  189SLPC   H2X21811   5.276   1.351   6.781  2.7946 -0.7563 -1.3633
  189SLPC   H2Y21812   5.305   1.491   6.877 -1.1734 -0.7356 -4.9393
  189SLPC   C2321813   5.487   0.970   6.813 -1.7676 -0.0067 -0.0123
  189SLPC   H3R21814   5.446   0.885   6.755  0.8085 -0.0761 -1.9239
  189SLPC   H3S21815   5.441   1.065   6.778  2.9750  2.7895  0.4163
  189SLPC   C2421816   5.445   0.951   6.965  0.2802 -0.2402  0.3143
  189SLPC   H4R21817   5.334   0.957   6.977  0.3141 -0.5666  0.8471
  189SLPC   H4S21818   5.488   1.029   7.032  1.9943 -0.7588 -0.1441
  189SLPC   C2521819   5.490   0.819   7.029 -0.0246 -0.6855 -0.1852
  189SLPC   H5R21820   5.598   0.794   7.014  0.5468  0.3998  1.7657
  189SLPC   H5S21821   5.433   0.740   6.975  1.2877 -0.8467 -1.4266
  189SLPC   C2621822   5.453   0.812   7.180 -0.2324 -0.0263 -0.2531
  189SLPC   H6R21823   5.358   0.867   7.194 -1.4087 -1.5723 -1.7269
  189SLPC   H6S21824   5.529   0.858   7.247 -1.8703  3.2712 -0.4774
  189SLPC   C2721825   5.437   0.664   7.236 -0.2257 -0.4048 -0.3777
  189SLPC   H7R21826   5.536   0.615   7.246  0.1628  0.3688 -0.3396
  189SLPC   H7S21827   5.383   0.603   7.160  0.3738 -0.3692 -0.8394
  189SLPC   C2821828   5.362   0.664   7.372  0.9321 -0.2982  0.1759
  189SLPC   H8R21829   5.317   0.568   7.406  1.2279 -0.6526 -0.4095
  189SLPC   H8S21830   5.277   0.736   7.375  1.8974  0.9476 -0.8687
  189SLPC   C2921831   5.460   0.717   7.480 -0.4962  0.2421 -0.3555
  189SLPC   H9R21832   5.538   0.784   7.442  1.2277 -0.6637  1.4398
  189SLPC  C21021833   5.467   0.691   7.612  0.3896 -0.1318  0.3564
  189SLPC  H10R21834   5.546   0.740   7.672 -0.3252  0.4780  0.8176
  189SLPC  C21121835   5.377   0.590   7.674 -0.0087 -0.7352 -0.9824
  189SLPC  H11R21836   5.435   0.495   7.670  0.6672 -0.3080 -1.7237
  189SLPC  H11S21837   5.287   0.571   7.611 -1.3006  0.0156  0.5758
  189SLPC  C21221838   5.328   0.624   7.812 -0.0787 -0.0045  0.2697
  189SLPC  H12R21839   5.220   0.639   7.830  0.2917  1.8749  1.2306
  189SLPC  C21321840   5.403   0.636   7.925  0.2707  0.6379 -0.3509
  189SLPC  H13R21841   5.362   0.658   8.025  2.6624  0.9491  0.6328
  189SLPC  C21421842   5.550   0.608   7.949 -0.1578  0.0853 -1.0683
  189SLPC  H14R21843   5.610   0.631   7.859 -0.6413  3.2779 -0.6976
  189SLPC  H14S21844   5.553   0.501   7.982 -1.2960  0.4455  0.3341
  189SLPC  C21521845   5.596   0.704   8.056 -0.0882  0.3826 -0.1042
  189SLPC  H15R21846   5.575   0.663   8.157 -0.2175 -0.3677 -0.4226
  189SLPC  H15S21847   5.556   0.805   8.035  0.2905  0.5157 -0.1971
  189SLPC  C21621848   5.750   0.716   8.067 -0.1600 -0.5204 -0.1119
  189SLPC  H16R21849   5.774   0.791   8.146  1.7261  0.7554 -1.8026
  189SLPC  H16S21850   5.781   0.774   7.978 -0.3561  1.8334  1.2774
  189SLPC  C21721851   5.827   0.588   8.092 -0.1654 -0.8655  0.1941
  189SLPC  H17R21852   5.829   0.521   8.003  0.7959 -1.7047  0.8147
  189SLPC  H17S21853   5.787   0.527   8.177 -0.0753 -0.8047  0.2812
  189SLPC  C21821854   5.971   0.620   8.130 -0.2353  0.1072 -0.5922
  189SLPC  H18R21855   6.042   0.534   8.137  0.8867  0.8734 -1.9523
  189SLPC  H18S21856   5.988   0.674   8.225 -0.7425 -1.9801  0.7476
  189SLPC  H18T21857   6.011   0.681   8.046 -0.5355 -0.8359 -1.4560
  189SLPC   C3321858   5.245   1.331   6.999  0.2149 -0.2694  0.1311
  189SLPC   H3X21859   5.260   1.221   7.004 -0.6831 -0.4434 -0.7403
  189SLPC   H3Y21860   5.139   1.364   6.986  0.8444  1.5794 -0.6100
  189SLPC   C3421861   5.291   1.395   7.131  0.6609  0.7475 -0.4022
  189SLPC   H4X21862   5.253   1.499   7.133  2.3777  1.4166 -0.7644
  189SLPC   H4Y21863   5.400   1.405   7.148  0.2453  1.4767  2.2395
  189SLPC   C3521864   5.233   1.323   7.252 -0.0675 -0.0526  0.2462
  189SLPC   H5X21865   5.282   1.224   7.266 -0.6777 -0.1352  1.9396
  189SLPC   H5Y21866   5.125   1.315   7.228 -0.0190 -1.0209  0.3104
  189SLPC   C3621867   5.249   1.409   7.380  0.0706  0.0805  0.7483
  189SLPC   H6X21868   5.194   1.501   7.353  1.2518  0.3330 -0.9619
  189SLPC   H6Y21869   5.355   1.441   7.384 -0.2465  1.3960 -0.4602
  189SLPC   C3721870   5.196   1.327   7.499  0.6233 -0.0439 -0.3869
  189SLPC   H7X21871   5.270   1.245   7.510 -0.3376 -0.8666  0.1560
  189SLPC   H7Y21872   5.100   1.284   7.463  1.5028 -0.4709 -2.3382
  189SLPC   C3821873   5.173   1.416   7.628  0.4425 -0.1110  0.3697
  189SLPC   H8X21874   5.105   1.503   7.613  0.8581  0.4427  1.5774
  189SLPC   H8Y21875   5.272   1.440   7.671 -0.1604  3.1848  0.2321
  189SLPC   C3921876   5.091   1.328   7.727 -0.6343  0.3700  0.2348
  189SLPC   H9X21877   5.142   1.230   7.739 -1.3519 -0.3345 -1.9808
  189SLPC   H9Y21878   4.994   1.325   7.672  0.6139  0.6729 -2.1446
  189SLPC  C31021879   5.064   1.381   7.866 -0.3219 -0.9000  0.6541
  189SLPC  H10X21880   5.007   1.474   7.846  1.3967 -0.5292 -3.4182
  189SLPC  H10Y21881   5.154   1.406   7.925 -0.8423  1.1459  0.6806
  189SLPC  C31121882   4.971   1.301   7.961  0.3308 -0.3817  0.6210
  189SLPC  H11X21883   5.032   1.210   7.977  1.4087  0.1573 -0.2585
  189SLPC  H11Y21884   4.873   1.280   7.915  1.1228 -2.3446 -0.2884
  189SLPC  C31221885   4.948   1.374   8.087  0.6676  0.6698 -0.3110
  189SLPC  H12X21886   4.893   1.468   8.064  0.8880  1.2354  1.3227
  189SLPC  H12Y21887   5.041   1.391   8.145  0.2302  0.8472  0.3519
  189SLPC  C31321888   4.852   1.290   8.179  0.0462 -0.0785 -0.1143
  189SLPC  H13X21889   4.909   1.202   8.213 -2.4990 -2.6939 -2.1049
  189SLPC  H13Y21890   4.774   1.240   8.118  0.0397 -1.8341  1.2664
  189SLPC  C31421891   4.787   1.386   8.286 -0.0895  0.0567  0.1898
  189SLPC  H14X21892   4.723   1.456   8.229  0.2231  0.9925  0.9600
  189SLPC  H14Y21893   4.861   1.444   8.346 -0.2646 -2.4159  3.0621
  189SLPC  C31521894   4.680   1.315   8.381 -0.4147  0.0818  0.5795
  189SLPC  H15X21895   4.737   1.243   8.443 -0.5093  0.0441  0.6235
  189SLPC  H15Y21896   4.610   1.255   8.318  2.4322 -2.0327 -0.8313
  189SLPC  C31621897   4.612   1.421   8.476 -0.3789  0.2410  0.4802
  189SLPC  H16X21898   4.557   1.499   8.420  1.6590  0.1710 -1.7581
  189SLPC  H16Y21899   4.699   1.468   8.528 -0.0968 -0.7790  0.9525
  189SLPC  C31721900   4.513   1.350   8.573 -0.3095 -0.3520 -0.2489
  189SLPC  H17X21901   4.575   1.281   8.635 -1.7967 -2.4860 -1.0324
  189SLPC  H17Y21902   4.437   1.294   8.514 -0.9563 -1.1796  1.3100
  189SLPC  C31821903   4.440   1.447   8.667  0.5610  0.3548  0.0400
  189SLPC  H18X21904   4.503   1.470   8.755 -0.7371 -0.7521  1.3019
  189SLPC  H18Y21905   4.342   1.419   8.711  0.0526  0.0877 -1.1981
  189SLPC  H18Z21906   4.417   1.542   8.612  0.9000  0.0560 -0.6299
  190SLPC     N21907   5.109   5.893   6.229  0.0307 -0.0528  0.0626
  190SLPC   C1321908   5.137   5.783   6.325 -0.4790 -0.0754  0.1134
  190SLPC  H13A21909   5.045   5.743   6.366  0.1552 -0.8922  0.7561
  190SLPC  H13B21910   5.194   5.701   6.285 -0.4774  0.5790 -1.2982
  190SLPC  H13C21911   5.198   5.814   6.409  0.5331 -0.3683 -0.4963
  190SLPC   C1421912   5.006   5.847   6.136 -0.7811 -0.3144 -0.2856
  190SLPC  H14A21913   4.991   5.919   6.058  2.2442  0.8247  0.0360
  190SLPC  H14B21914   5.039   5.760   6.081  2.4466  0.1435  0.6815
  190SLPC  H14C21915   4.913   5.828   6.187 -0.0354 -1.1394  0.8448
  190SLPC   C1521916   5.234   5.923   6.155  0.1396  0.1611 -0.1179
  190SLPC  H15A21917   5.273   5.842   6.095 -1.9516  0.6248 -2.2632
  190SLPC  H15B21918   5.213   6.002   6.084  1.4935  0.1542 -0.5536
  190SLPC  H15C21919   5.309   5.959   6.224  1.4075 -1.6674 -0.4706
  190SLPC   C1221920   5.043   6.003   6.299  0.2402 -0.0880  0.0917
  190SLPC  H12A21921   4.945   5.969   6.330 -0.2583  2.3919  1.4789
  190SLPC  H12B21922   5.007   6.084   6.236 -2.3042  0.5087  2.1243
  190SLPC   C1121923   5.123   6.065   6.414 -0.6625 -0.8748  0.0689
  190SLPC  H11A21924   5.167   5.999   6.492  1.1519  0.2135  0.0104
  190SLPC  H11B21925   5.054   6.128   6.474  0.0056 -0.7518  0.7242
  190SLPC     P21926   5.246   6.266   6.310 -0.1459  0.4293  0.2075
  190SLPC   O1321927   5.376   6.281   6.246  0.5677 -0.1024  0.1506
  190SLPC   O1421928   5.117   6.293   6.235 -0.2408 -0.2011  0.0295
  190SLPC   O1221929   5.245   6.123   6.357 -0.2498 -0.2529  0.0389
  190SLPC   O1121930   5.247   6.353   6.438 -0.3529  0.0732 -0.2361
  190SLPC    C121931   5.349   6.327   6.530  0.3377 -0.3665  0.4663
  190SLPC    HA21932   5.371   6.218   6.538 -0.8715 -0.7342 -0.8177
  190SLPC    HB21933   5.442   6.380   6.500  0.0753 -0.7059 -1.0178
  190SLPC    C221934   5.324   6.370   6.684  0.1040 -0.4145  0.2153
  190SLPC    HS21935   5.417   6.370   6.745  1.7264  1.5125 -2.0530
  190SLPC   O2121936   5.214   6.301   6.736 -0.4696 -0.2741 -0.1541
  190SLPC   C2121937   5.254   6.182   6.779  0.1934  0.1068  0.1737
  190SLPC   O2221938   5.370   6.148   6.803 -0.9537 -0.4754 -0.5304
  190SLPC   C2221939   5.132   6.104   6.836  0.3198  0.5723 -0.0130
  190SLPC   H2R21940   5.042   6.154   6.795  0.5440  0.8485 -0.1735
  190SLPC   H2S21941   5.144   5.999   6.801 -1.1645 -0.2790  1.8690
  190SLPC    C321942   5.274   6.516   6.688 -0.5820 -0.7181  1.0550
  190SLPC    HX21943   5.179   6.537   6.633  0.9388  0.3550 -1.3239
  190SLPC    HY21944   5.356   6.574   6.640 -2.5252  2.5839  1.3617
  190SLPC   O3121945   5.265   6.563   6.819 -0.1449  0.0124 -0.3981
  190SLPC   C3121946   5.141   6.574   6.877 -0.4189 -0.0808 -0.3042
  190SLPC   O3221947   5.033   6.552   6.821  0.2977 -0.0309  0.0740
  190SLPC   C3221948   5.150   6.636   7.013  0.4284  0.3164 -0.3171
  190SLPC   H2X21949   5.046   6.663   7.039  0.8227  1.3970  0.1761
  190SLPC   H2Y21950   5.204   6.733   7.008 -0.1830  0.6198 -1.4319
  190SLPC   C2321951   5.132   6.106   6.987 -0.5796 -0.3724 -0.0882
  190SLPC   H3R21952   5.112   6.207   7.030 -0.8691 -0.9113  1.0821
  190SLPC   H3S21953   5.230   6.082   7.032  0.0254 -2.4121 -2.3070
  190SLPC   C2421954   5.018   6.011   7.042 -0.5022  0.7238  0.5105
  190SLPC   H4R21955   5.019   5.918   6.981  1.1493  0.1573  1.3418
  190SLPC   H4S21956   4.928   6.070   7.014  0.3158  0.6286 -2.7834
  190SLPC   C2521957   5.033   5.961   7.188 -0.1418  0.2621 -0.5387
  190SLPC   H5R21958   5.135   5.952   7.233  0.0873  0.2205 -1.0584
  190SLPC   H5S21959   4.985   5.861   7.196 -1.2603  0.6530 -2.1021
  190SLPC   C2621960   4.949   6.052   7.273  0.4939  0.0292 -0.2958
  190SLPC   H6R21961   4.845   6.069   7.239 -0.3554  2.3281  2.9466
  190SLPC   H6S21962   5.003   6.146   7.297  0.6935 -0.2555  0.3704
  190SLPC   C2721963   4.933   5.980   7.411  0.4527  0.0743  0.0617
  190SLPC   H7R21964   5.029   5.936   7.446  0.9392  0.7993 -0.3241
  190SLPC   H7S21965   4.870   5.889   7.402 -0.5031  0.6828  0.5194
  190SLPC   C2821966   4.889   6.078   7.522  0.0936 -0.3648 -0.5240
  190SLPC   H8R21967   4.843   6.019   7.604 -1.7590  2.1381  0.3655
  190SLPC   H8S21968   4.805   6.134   7.476 -0.0156 -0.6067 -0.6213
  190SLPC   C2921969   4.983   6.183   7.566 -0.0019  0.5502  0.2336
  190SLPC   H9R21970   5.039   6.231   7.485  0.3715 -2.5807 -1.5306
  190SLPC  C21021971   5.032   6.202   7.690  0.1150  0.4367  0.1441
  190SLPC  H10R21972   5.102   6.286   7.697  0.7175 -0.0368 -0.1490
  190SLPC  C21121973   5.005   6.128   7.818  0.2652 -0.0049 -0.0210
  190SLPC  H11R21974   5.103   6.098   7.861  0.1105  0.2410  0.5043
  190SLPC  H11S21975   4.967   6.028   7.788  3.3009 -1.2770  0.0390
  190SLPC  C21221976   4.918   6.195   7.916 -0.2788  0.3159 -0.2391
  190SLPC  H12R21977   4.813   6.194   7.884 -0.1505  0.7572 -0.6794
  190SLPC  C21321978   4.949   6.238   8.039 -0.4574 -0.1570 -0.3710
  190SLPC  H13R21979   4.869   6.287   8.096  0.0685 -0.4309  0.6355
  190SLPC  C21421980   5.095   6.243   8.090  0.1110 -0.5234 -0.0578
  190SLPC  H14R21981   5.132   6.348   8.088  0.0006 -0.4890 -1.7816
  190SLPC  H14S21982   5.173   6.194   8.029  2.5741  0.6760  1.9166
  190SLPC  C21521983   5.134   6.192   8.230 -0.3636  0.0177 -0.0517
  190SLPC  H15R21984   5.062   6.224   8.309 -1.3845 -0.2061 -0.8710
  190SLPC  H15S21985   5.236   6.236   8.241 -0.6148  1.2651 -2.1997
  190SLPC  C21621986   5.161   6.040   8.246 -0.2091 -0.0777  0.3316
  190SLPC  H16R21987   5.225   6.017   8.158  0.8211  0.5988  0.8893
  190SLPC  H16S21988   5.072   5.977   8.224  0.6304 -1.6270  1.1661
  190SLPC  C21721989   5.218   6.003   8.385 -0.4739 -0.1587 -0.0334
  190SLPC  H17R21990   5.128   6.001   8.450 -1.4419  0.5216 -1.3093
  190SLPC  H17S21991   5.281   6.094   8.403 -1.1671  0.1436  0.9771
  190SLPC  C21821992   5.309   5.886   8.387  0.2590  0.2770 -0.6651
  190SLPC  H18R21993   5.406   5.893   8.333  0.1109 -0.1076 -0.9828
  190SLPC  H18S21994   5.254   5.794   8.358 -0.3917  0.2275  0.6523
  190SLPC  H18T21995   5.327   5.868   8.495 -0.3077  1.9983 -0.2426
  190SLPC   C3321996   5.199   6.544   7.128  0.4200 -0.6106  0.4574
  190SLPC   H3X21997   5.288   6.499   7.078  1.3102  1.8595 -0.2935
  190SLPC   H3Y21998   5.122   6.466   7.147 -2.6898  2.4644  1.4074
  190SLPC   C3421999   5.259   6.609   7.249  0.4159 -0.2653  0.7190
  190SLPC   H4X22000   5.300   6.535   7.321  0.1780 -2.6154 -1.4177
  190SLPC   H4Y22001   5.192   6.678   7.304  0.9992 -0.3804  1.6041
  190SLPC   C3522002   5.379   6.701   7.203 -0.2479  0.0356 -0.0031
  190SLPC   H5X22003   5.342   6.801   7.170  1.2618  0.6378  0.0793
  190SLPC   H5Y22004   5.427   6.653   7.115  0.4479 -0.2639  0.5406
  190SLPC   C3622005   5.485   6.725   7.314 -0.3981  0.3725  0.5659
  190SLPC   H6X22006   5.579   6.765   7.271  0.7569 -2.4974  0.1409
  190SLPC   H6Y22007   5.515   6.627   7.357 -1.5237  0.3035  1.2505
  190SLPC   C3722008   5.433   6.805   7.436 -0.5689 -0.2028 -0.2031
  190SLPC   H7X22009   5.380   6.731   7.499  0.1312 -1.6922 -1.3033
  190SLPC   H7Y22010   5.364   6.885   7.401  0.0587 -0.1561 -1.3770
  190SLPC   C3822011   5.550   6.858   7.528  0.2994  0.2373  0.7190
  190SLPC   H8X22012   5.513   6.921   7.612  1.9921 -1.1532  2.6115
  190SLPC   H8Y22013   5.612   6.921   7.461 -0.1508 -1.9719 -1.9427
  190SLPC   C3922014   5.633   6.744   7.585 -0.1793  0.2419 -0.1744
  190SLPC   H9X22015   5.672   6.674   7.508  2.8324 -0.3266  1.6799
  190SLPC   H9Y22016   5.570   6.690   7.658 -2.3212 -0.1902 -2.2328
  190SLPC  C31022017   5.752   6.789   7.669  0.0279 -0.4698 -0.1399
  190SLPC  H10X22018   5.828   6.840   7.606  2.1323 -4.5783 -1.2912
  190SLPC  H10Y22019   5.803   6.694   7.695 -3.2435 -2.7116 -1.1521
  190SLPC  C31122020   5.718   6.889   7.787  0.1971  0.7098 -0.0711
  190SLPC  H11X22021   5.644   6.842   7.855 -0.8847  0.0361 -1.6623
  190SLPC  H11Y22022   5.673   6.982   7.746 -1.9477 -0.3535 -0.2684
  190SLPC  C31222023   5.843   6.948   7.863  0.5433  0.0540 -0.5459
  190SLPC  H12X22024   5.912   7.003   7.795  2.5109  0.0881  1.3516
  190SLPC  H12Y22025   5.908   6.869   7.906 -0.0892  0.3013  0.9194
  190SLPC  C31322026   5.800   7.028   7.987  0.2211  0.5456 -0.8184
  190SLPC  H13X22027   5.749   6.952   8.049  2.8743 -0.7137 -0.0236
  190SLPC  H13Y22028   5.737   7.115   7.958 -1.0513 -0.7407 -2.0610
  190SLPC  C31422029   5.932   7.064   8.065  0.0675 -0.4910  0.2449
  190SLPC  H14X22030   5.962   7.168   8.042 -0.4419 -0.0708  1.3950
  190SLPC  H14Y22031   6.014   6.997   8.033 -0.5020 -1.3921  0.6125
  190SLPC  C31522032   5.904   7.071   8.218 -0.6822  0.4256  0.0812
  190SLPC  H15X22033   5.906   6.970   8.265  3.3496  1.6496  3.1464
  190SLPC  H15Y22034   5.813   7.128   8.250 -0.1975  2.4721 -1.9435
  190SLPC  C31622035   6.025   7.124   8.308 -0.1836 -0.5045  0.5574
  190SLPC  H16X22036   6.082   7.210   8.268 -1.3639 -0.3957 -1.0032
  190SLPC  H16Y22037   6.098   7.040   8.306 -1.0416 -1.2609 -0.2629
  190SLPC  C31722038   5.987   7.151   8.447 -0.3551 -0.4164  0.8011
  190SLPC  H17X22039   6.080   7.192   8.492 -0.0233  2.2441 -1.9710
  190SLPC  H17Y22040   5.961   7.057   8.498 -0.3656 -2.2944 -2.4064
  190SLPC  C31822041   5.870   7.256   8.465 -0.6850 -0.2030  0.7192
  190SLPC  H18X22042   5.779   7.195   8.446  0.0453 -1.0631 -0.1925
  190SLPC  H18Y22043   5.879   7.333   8.386  0.0104  1.0767  2.0011
  190SLPC  H18Z22044   5.853   7.304   8.564 -0.3650  1.0008  0.2054
  191SLPC     N22045   1.599   5.892   5.911  0.2658  0.1706 -0.4695
  191SLPC   C1322046   1.620   5.806   5.791  0.0205  0.0551  0.9313
  191SLPC  H13A22047   1.701   5.843   5.729 -1.1289  1.7354  0.3426
  191SLPC  H13B22048   1.643   5.709   5.832  1.3099  0.0178  0.1905
  191SLPC  H13C22049   1.533   5.805   5.727  1.0073 -1.8518 -0.4640
  191SLPC   C1422050   1.724   5.875   5.992 -0.0689 -0.3119 -0.1032
  191SLPC  H14A22051   1.718   5.939   6.079 -3.4889 -0.2747 -0.2086
  191SLPC  H14B22052   1.730   5.778   6.040 -0.2597  0.5971  1.8627
  191SLPC  H14C22053   1.805   5.905   5.928  0.0603  0.2031  0.2949
  191SLPC   C1522054   1.482   5.838   5.981 -0.3753 -0.4448 -0.6417
  191SLPC  H15A22055   1.457   5.888   6.074 -0.3143 -0.6465 -0.5160
  191SLPC  H15B22056   1.398   5.863   5.918 -0.6981 -0.4734 -0.2261
  191SLPC  H15C22057   1.486   5.735   6.014 -1.0300  0.4372  2.5657
  191SLPC   C1222058   1.572   6.038   5.864  0.4103 -0.7892  0.8764
  191SLPC  H12A22059   1.668   6.078   5.833  1.0119 -1.9562  1.1951
  191SLPC  H12B22060   1.555   6.104   5.948  1.0670  0.3638  0.1352
  191SLPC   C1122061   1.459   6.070   5.757  0.5210 -0.2916  0.0692
  191SLPC  H11A22062   1.476   6.006   5.668  1.1929 -1.6137  1.1091
  191SLPC  H11B22063   1.466   6.177   5.727 -3.7809 -0.4866 -2.2993
  191SLPC     P22064   1.241   6.169   5.868 -0.2314 -0.2718 -0.2419
  191SLPC   O1322065   1.217   6.268   5.761 -0.3178  0.3622  0.1067
  191SLPC   O1422066   1.121   6.116   5.936  0.0860  0.1556  0.2654
  191SLPC   O1222067   1.324   6.046   5.810 -0.1259  0.1045 -0.0366
  191SLPC   O1122068   1.333   6.241   5.977 -0.7082 -0.3729  0.4557
  191SLPC    C122069   1.334   6.183   6.107  0.3834  0.4353  0.7563
  191SLPC    HA22070   1.234   6.156   6.149 -0.5040  2.8380  0.3483
  191SLPC    HB22071   1.394   6.089   6.114  0.5500  0.3762 -1.1248
  191SLPC    C222072   1.403   6.275   6.216  0.7936 -0.3242  0.1155
  191SLPC    HS22073   1.410   6.213   6.308  0.1907 -0.1783  0.2686
  191SLPC   O2122074   1.323   6.393   6.251 -0.7882 -1.1054 -0.3332
  191SLPC   C2122075   1.209   6.356   6.314 -0.3130  0.6633 -0.1982
  191SLPC   O2222076   1.181   6.245   6.350  0.2420  0.5823 -0.6131
  191SLPC   C2222077   1.128   6.482   6.346 -0.0474 -0.3980 -0.5410
  191SLPC   H2R22078   1.099   6.522   6.246  0.0086 -1.1281 -0.8548
  191SLPC   H2S22079   1.038   6.447   6.401  0.0047  0.7428  0.2980
  191SLPC    C322080   1.541   6.330   6.181 -0.7089  0.0343 -0.1000
  191SLPC    HX22081   1.536   6.367   6.076 -3.0827 -1.4483 -0.5936
  191SLPC    HY22082   1.606   6.243   6.162 -0.9010  0.1639 -1.4596
  191SLPC   O3122083   1.593   6.431   6.271  0.2300 -0.2384  0.6096
  191SLPC   C3122084   1.646   6.386   6.385  0.8236  0.2270  0.2221
  191SLPC   O3222085   1.652   6.270   6.420  0.4446  0.0457  0.5121
  191SLPC   C3222086   1.693   6.505   6.468  0.3499  0.2788 -0.2364
  191SLPC   H2X22087   1.631   6.594   6.447 -0.9369 -0.3333  0.8332
  191SLPC   H2Y22088   1.800   6.527   6.449  1.1858 -4.0282 -1.8040
  191SLPC   C2322089   1.204   6.570   6.447  0.3164  0.4467 -0.2501
  191SLPC   H3R22090   1.137   6.656   6.470  0.7591  0.7297  0.0081
  191SLPC   H3S22091   1.307   6.596   6.414  1.1073  0.1492  1.8251
  191SLPC   C2422092   1.225   6.500   6.583  0.4601 -1.0984 -0.0089
  191SLPC   H4R22093   1.267   6.398   6.584  0.1503 -1.2280 -0.0482
  191SLPC   H4S22094   1.119   6.494   6.617  0.3231  1.7881  0.3700
  191SLPC   C2522095   1.321   6.578   6.670 -0.0776  0.4176  0.0729
  191SLPC   H5R22096   1.286   6.684   6.675 -2.4415 -0.3394  0.8445
  191SLPC   H5S22097   1.423   6.568   6.627  0.4875  0.0875  1.4267
  191SLPC   C2622098   1.331   6.519   6.812  0.4639  0.3956 -0.3533
  191SLPC   H6R22099   1.406   6.584   6.862 -1.3842  1.5422  1.0445
  191SLPC   H6S22100   1.369   6.414   6.815 -1.5856 -0.4143 -0.7294
  191SLPC   C2722101   1.214   6.523   6.904 -0.3708 -0.2211  0.3358
  191SLPC   H7R22102   1.247   6.472   6.997  2.1142  1.9177  0.7479
  191SLPC   H7S22103   1.130   6.459   6.868  0.2724 -0.3210 -1.0757
  191SLPC   C2822104   1.162   6.667   6.929 -0.0189  0.5215 -0.4791
  191SLPC   H8R22105   1.061   6.660   6.975  0.1854 -1.2613 -0.1934
  191SLPC   H8S22106   1.154   6.718   6.831  1.0283  2.1492  0.2465
  191SLPC   C2922107   1.267   6.737   7.020 -0.0580 -0.1954  0.2754
  191SLPC   H9R22108   1.366   6.752   6.975 -0.2426 -1.5433 -0.6181
  191SLPC  C21022109   1.245   6.779   7.147  0.5587  0.6535 -0.1161
  191SLPC  H10R22110   1.332   6.819   7.200  1.6596 -1.3439 -0.3343
  191SLPC  C21122111   1.115   6.771   7.231 -0.2884 -0.1600  0.0358
  191SLPC  H11R22112   1.081   6.668   7.254 -1.2805  0.1952  0.2410
  191SLPC  H11S22113   1.042   6.815   7.160  1.5046 -0.3260 -2.0078
  191SLPC  C21222114   1.120   6.837   7.370 -0.0901 -0.1336  0.0123
  191SLPC  H12R22115   1.189   6.781   7.436  0.0362 -0.9520 -0.8005
  191SLPC  C21322116   1.036   6.931   7.416 -0.3072 -0.1860 -1.2100
  191SLPC  H13R22117   1.064   6.970   7.515  0.7332 -0.2096 -1.4782
  191SLPC  C21422118   0.926   7.008   7.357 -0.1001  0.0056 -0.3464
  191SLPC  H14R22119   0.838   7.004   7.424  1.4591  0.7240  1.8926
  191SLPC  H14S22120   0.896   6.945   7.271 -1.8688 -0.9627  0.9234
  191SLPC  C21522121   0.940   7.150   7.290 -0.1989 -0.2638 -0.4409
  191SLPC  H15R22122   1.041   7.193   7.309 -1.0735  1.8537 -0.3132
  191SLPC  H15S22123   0.863   7.210   7.343 -1.6403 -3.8146  1.8405
  191SLPC  C21622124   0.905   7.154   7.144  0.2177  0.2611  1.2188
  191SLPC  H16R22125   0.803   7.112   7.129 -0.3985  1.9054  0.5926
  191SLPC  H16S22126   0.978   7.092   7.087 -2.3900  0.4366 -2.7484
  191SLPC  C21722127   0.913   7.301   7.091  0.3415  0.3967 -0.3760
  191SLPC  H17R22128   1.009   7.350   7.116 -0.7606  2.3509  0.2084
  191SLPC  H17S22129   0.839   7.360   7.150  0.0177 -0.2595 -0.1098
  191SLPC  C21822130   0.890   7.307   6.942  0.1282 -0.2160  0.0530
  191SLPC  H18R22131   0.967   7.249   6.887  1.5381  1.1030  0.5833
  191SLPC  H18S22132   0.892   7.410   6.901  1.0682 -1.1365 -2.3512
  191SLPC  H18T22133   0.786   7.272   6.926 -0.9227  2.5263  0.3535
  191SLPC   C3322134   1.686   6.472   6.618  0.7941 -0.1737  0.1434
  191SLPC   H3X22135   1.599   6.408   6.641 -1.7642  1.8483 -3.0187
  191SLPC   H3Y22136   1.666   6.569   6.668 -0.2810 -0.3784  0.1335
  191SLPC   C3422137   1.817   6.409   6.672  0.5992  0.2600 -0.1009
  191SLPC   H4X22138   1.901   6.478   6.650  1.9385 -1.3577 -0.1559
  191SLPC   H4Y22139   1.830   6.314   6.617  0.0477 -1.5101  2.6382
  191SLPC   C3522140   1.811   6.379   6.822  0.5848 -0.3541 -0.0493
  191SLPC   H5X22141   1.853   6.277   6.835 -1.0576 -1.0635 -0.1423
  191SLPC   H5Y22142   1.703   6.386   6.847  0.9779  0.4861  1.5178
  191SLPC   C3622143   1.894   6.476   6.894  0.6378 -0.1522 -0.1696
  191SLPC   H6X22144   1.862   6.582   6.884  2.6928  0.4430 -0.7320
  191SLPC   H6Y22145   1.998   6.481   6.857  0.1889 -0.1018 -1.4779
  191SLPC   C3722146   1.893   6.449   7.048 -0.4478 -0.4158  0.4967
  191SLPC   H7X22147   1.789   6.426   7.082  0.0466 -0.5570  2.0129
  191SLPC   H7Y22148   1.929   6.544   7.091  3.4507 -1.3012 -0.4423
  191SLPC   C3822149   1.979   6.331   7.090  0.9159  0.2581  0.2781
  191SLPC   H8X22150   2.065   6.306   7.024  1.0948 -1.1319  1.0003
  191SLPC   H8Y22151   1.917   6.239   7.083  0.3338  0.6392  0.3307
  191SLPC   C3922152   2.032   6.342   7.233  0.1815  0.3251 -0.1810
  191SLPC   H9X22153   2.107   6.423   7.243  0.3884  0.5259 -2.8216
  191SLPC   H9Y22154   2.075   6.244   7.263  1.7925  1.0028 -0.1824
  191SLPC  C31022155   1.907   6.370   7.322  0.4901  0.2407  0.4140
  191SLPC  H10X22156   1.823   6.304   7.290  0.1206  0.8426  0.1243
  191SLPC  H10Y22157   1.875   6.476   7.314 -1.4207 -0.2420  1.0897
  191SLPC  C31122158   1.933   6.334   7.473 -0.2314 -0.5382 -0.0587
  191SLPC  H11X22159   2.033   6.375   7.499  1.3028 -3.5933 -0.6654
  191SLPC  H11Y22160   1.948   6.224   7.475 -0.5809 -0.5774  0.7885
  191SLPC  C31222161   1.818   6.369   7.568 -0.0414  0.2183  0.1126
  191SLPC  H12X22162   1.730   6.309   7.536 -0.3919  1.2902 -1.0010
  191SLPC  H12Y22163   1.784   6.474   7.557 -0.5179 -0.0987 -1.8102
  191SLPC  C31322164   1.838   6.326   7.710 -0.4607 -0.6935  0.6400
  191SLPC  H13X22165   1.923   6.386   7.749 -2.6061  1.2762  2.5632
  191SLPC  H13Y22166   1.863   6.217   7.711 -1.2069 -0.9655 -1.8550
  191SLPC  C31422167   1.715   6.329   7.802 -0.1892 -1.0199 -0.0244
  191SLPC  H14X22168   1.637   6.260   7.763 -2.1637  2.1850 -2.2790
  191SLPC  H14Y22169   1.685   6.435   7.790  1.1719 -0.5760  0.3118
  191SLPC  C31522170   1.754   6.304   7.943  0.8813 -0.3759 -0.7070
  191SLPC  H15X22171   1.835   6.377   7.967  0.8796 -0.8234  0.7222
  191SLPC  H15Y22172   1.806   6.206   7.948  1.5323  0.0325  1.2170
  191SLPC  C31622173   1.639   6.307   8.047  0.8317 -0.4487  0.1538
  191SLPC  H16X22174   1.665   6.268   8.148 -0.1241  0.4743  0.7663
  191SLPC  H16Y22175   1.577   6.221   8.011  0.7473  0.3661 -1.7870
  191SLPC  C31722176   1.564   6.444   8.055  0.0747 -0.6387 -0.2053
  191SLPC  H17X22177   1.455   6.429   8.068 -0.0491 -0.7773 -1.3655
  191SLPC  H17Y22178   1.571   6.496   7.958  0.0581 -0.4127 -0.0867
  191SLPC  C31822179   1.622   6.535   8.167 -0.3019 -0.1259  0.1575
  191SLPC  H18X22180   1.730   6.549   8.147 -0.6956  0.2187 -1.9401
  191SLPC  H18Y22181   1.599   6.481   8.261  0.3068 -0.8278 -0.0873
  191SLPC  H18Z22182   1.575   6.636   8.169  1.8579  1.0106 -1.4837
  192SLPC     N22183   2.455   0.050   6.292  0.4347  0.0178  0.4781
  192SLPC   C1322184   2.476   0.140   6.173 -0.2796  0.2205 -0.1407
  192SLPC  H13A22185   2.575   0.125   6.133 -0.8920 -2.1083 -0.9209
  192SLPC  H13B22186   2.411   0.108   6.092  0.4972 -2.2354  0.1499
  192SLPC  H13C22187   2.463   0.244   6.200  0.1092  0.2475 -0.0511
  192SLPC   C1422188   2.505  -0.088   6.266  0.3637 -0.1197  0.4490
  192SLPC  H14A22189   2.515  -0.137   6.362 -2.3993  0.3001  1.0620
  192SLPC  H14B22190   2.445  -0.139   6.192 -0.3384  0.1478  0.8191
  192SLPC  H14C22191   2.603  -0.082   6.222  0.8690  1.6347  1.7054
  192SLPC   C1522192   2.310   0.033   6.331 -0.4632 -0.5939 -0.8629
  192SLPC  H15A22193   2.264   0.131   6.331 -1.0931 -0.8822 -1.2212
  192SLPC  H15B22194   2.246  -0.024   6.266  1.1850 -0.0141 -3.0806
  192SLPC  H15C22195   2.301  -0.010   6.430 -0.5635 -1.1498 -1.1108
  192SLPC   C1222196   2.539   0.099   6.406 -0.8574  0.1120 -0.4195
  192SLPC  H12A22197   2.636   0.132   6.371 -0.1214  0.2479  1.6300
  192SLPC  H12B22198   2.562   0.015   6.469 -1.6468 -0.3917 -0.7931
  192SLPC   C1122199   2.491   0.202   6.501  0.2778  0.2991  0.1244
  192SLPC  H11A22200   2.564   0.237   6.578  1.0696  0.2162 -0.5668
  192SLPC  H11B22201   2.406   0.153   6.552 -0.0280  0.8814  0.1749
  192SLPC     P22202   2.496   0.454   6.384  0.5032 -0.2301 -0.0444
  192SLPC   O1322203   2.612   0.434   6.292 -0.0469 -0.0268 -0.0878
  192SLPC   O1422204   2.386   0.540   6.336 -0.0354  0.4434 -0.1590
  192SLPC   O1222205   2.425   0.321   6.443  0.3287  0.4785 -1.2535
  192SLPC   O1122206   2.560   0.522   6.515  0.8983  0.0584  0.2781
  192SLPC    C122207   2.479   0.542   6.636 -0.3678 -0.5491  0.3985
  192SLPC    HA22208   2.375   0.578   6.621  1.1137  3.2281 -2.7075
  192SLPC    HB22209   2.477   0.444   6.689 -0.4722  0.1458  1.7185
  192SLPC    C222210   2.533   0.654   6.723 -0.2223 -0.9495  0.1101
  192SLPC    HS22211   2.529   0.747   6.663 -1.1791 -0.4138  0.9780
  192SLPC   O2122212   2.661   0.620   6.780  0.0242  0.1565  0.8925
  192SLPC   C2122213   2.735   0.727   6.803  0.2374 -0.0599  1.0410
  192SLPC   O2222214   2.710   0.843   6.768  0.0434 -0.5145  0.3680
  192SLPC   C2222215   2.877   0.692   6.849 -0.0252 -0.5510 -0.0948
  192SLPC   H2R22216   2.874   0.592   6.897 -0.8762 -1.1808 -1.4232
  192SLPC   H2S22217   2.932   0.694   6.752 -0.1503  1.1287 -0.1618
  192SLPC    C322218   2.437   0.695   6.842  0.2446  0.0230 -0.3984
  192SLPC    HX22219   2.336   0.718   6.803  0.3805  1.6023  0.1362
  192SLPC    HY22220   2.477   0.792   6.878  0.0310  0.3632 -1.0739
  192SLPC   O3122221   2.420   0.596   6.946  0.2805 -0.5088 -0.6630
  192SLPC   C3122222   2.486   0.628   7.062 -0.3711  0.0743  0.1086
  192SLPC   O3222223   2.551   0.731   7.081  0.4295  0.0836  0.0608
  192SLPC   C3222224   2.462   0.516   7.164 -0.0508  0.2743  0.9855
  192SLPC   H2X22225   2.556   0.506   7.223  1.4834  0.2482 -1.3018
  192SLPC   H2Y22226   2.450   0.417   7.115  1.0079  0.3810  0.4599
  192SLPC   C2322227   2.952   0.803   6.931 -0.2129  0.0313  0.9887
  192SLPC   H3R22228   2.940   0.900   6.879 -2.3760  0.7072  2.6139
  192SLPC   H3S22229   3.061   0.782   6.927 -0.5682 -2.0859 -2.9679
  192SLPC   C2422230   2.900   0.826   7.074 -0.0968 -0.3133  0.2118
  192SLPC   H4R22231   2.790   0.844   7.069  0.2485  2.8492  1.6335
  192SLPC   H4S22232   2.958   0.907   7.123  0.7511 -0.8548  0.1115
  192SLPC   C2522233   2.919   0.707   7.167 -0.1312 -0.4722  0.0800
  192SLPC   H5R22234   3.027   0.692   7.188  0.0779 -0.2917 -0.8176
  192SLPC   H5S22235   2.883   0.617   7.113 -1.7473 -1.4954  2.6923
  192SLPC   C2622236   2.834   0.715   7.296 -0.0946 -0.6935  0.2387
  192SLPC   H6R22237   2.856   0.612   7.333 -0.4252 -1.2719 -1.1306
  192SLPC   H6S22238   2.726   0.731   7.279  0.0573 -0.3010 -0.4124
  192SLPC   C2722239   2.892   0.816   7.400  0.5476 -0.5566 -0.2019
  192SLPC   H7R22240   2.905   0.913   7.347 -4.4143 -1.8668 -4.6477
  192SLPC   H7S22241   2.987   0.767   7.431  0.7990  0.3240  0.4655
  192SLPC   C2822242   2.803   0.836   7.525 -0.3752  0.2792  0.4202
  192SLPC   H8R22243   2.868   0.883   7.602  1.1594 -0.3394 -0.4562
  192SLPC   H8S22244   2.775   0.736   7.563  0.5025 -0.6137 -1.1532
  192SLPC   C2922245   2.684   0.922   7.490  0.0367 -0.0668  0.1052
  192SLPC   H9R22246   2.651   0.914   7.385  0.6706  0.7053 -0.1641
  192SLPC  C21022247   2.632   1.020   7.567 -0.0480 -0.2802  0.0466
  192SLPC  H10R22248   2.567   1.088   7.511  0.9635  0.2936 -0.4501
  192SLPC  C21122249   2.670   1.042   7.705 -0.2871  0.1089 -0.4905
  192SLPC  H11R22250   2.663   1.151   7.721  0.9226  0.3749 -1.5203
  192SLPC  H11S22251   2.778   1.020   7.723 -0.7900 -0.9936  1.4064
  192SLPC  C21222252   2.588   0.964   7.803  0.2574  0.1740  0.9731
  192SLPC  H12R22253   2.509   0.896   7.767  0.7240  0.2242 -0.1964
  192SLPC  C21322254   2.613   0.958   7.935  0.0117 -0.2215  0.1907
  192SLPC  H13R22255   2.543   0.911   8.006 -0.4482 -2.9599 -1.9057
  192SLPC  C21422256   2.732   1.015   8.004 -0.2450  0.2941 -0.0961
  192SLPC  H14R22257   2.694   1.061   8.098  0.4296  0.2806  0.1886
  192SLPC  H14S22258   2.758   1.106   7.946 -1.8581  0.2222 -0.9901
  192SLPC  C21522259   2.847   0.921   8.025 -0.2971  1.1801  0.3560
  192SLPC  H15R22260   2.940   0.981   8.040 -0.0044  1.1304 -1.0893
  192SLPC  H15S22261   2.860   0.856   7.936  1.2110 -0.7004  1.8619
  192SLPC  C21622262   2.840   0.828   8.143 -0.0017 -0.4049  0.6083
  192SLPC  H16R22263   2.781   0.743   8.103  3.7794 -1.9891 -2.2661
  192SLPC  H16S22264   2.796   0.878   8.232  0.8450 -0.9844  1.3718
  192SLPC  C21722265   2.978   0.787   8.187 -0.1661 -0.0936 -0.2331
  192SLPC  H17R22266   3.050   0.744   8.114 -0.6099  0.6485 -1.1183
  192SLPC  H17S22267   3.024   0.883   8.219 -0.4275 -0.3252  0.8775
  192SLPC  C21822268   2.973   0.691   8.305 -0.9644 -0.0313  0.5972
  192SLPC  H18R22269   2.913   0.723   8.393  0.0532  0.8879  0.9787
  192SLPC  H18S22270   3.074   0.683   8.350  0.0016  0.2827 -1.3976
  192SLPC  H18T22271   2.943   0.590   8.270  1.4553 -0.4189 -0.5965
  192SLPC   C3322272   2.333   0.538   7.241  1.1271 -0.1031  0.0619
  192SLPC   H3X22273   2.291   0.450   7.294 -0.2482  0.9262  0.7631
  192SLPC   H3Y22274   2.259   0.558   7.160  1.2190 -0.7841 -0.1965
  192SLPC   C3422275   2.326   0.664   7.338  1.0870 -0.2537  0.4978
  192SLPC   H4X22276   2.223   0.685   7.376  1.8229 -0.2232  2.5742
  192SLPC   H4Y22277   2.359   0.749   7.275 -1.3500 -1.0564 -2.1283
  192SLPC   C3522278   2.400   0.655   7.471 -0.7402 -0.5069 -0.1084
  192SLPC   H5X22279   2.393   0.748   7.531  0.5892 -1.4310  1.5532
  192SLPC   H5Y22280   2.508   0.648   7.447 -0.4063 -0.6531  1.3715
  192SLPC   C3622281   2.347   0.531   7.551 -1.0658 -0.6624  0.6382
  192SLPC   H6X22282   2.391   0.443   7.500  1.3415  0.3837  0.8074
  192SLPC   H6Y22283   2.236   0.535   7.555 -1.0747 -1.1315  0.9393
  192SLPC   C3722284   2.376   0.527   7.695 -0.5142  0.4448 -0.2163
  192SLPC   H7X22285   2.320   0.442   7.739  0.2235 -0.1822 -0.4641
  192SLPC   H7Y22286   2.341   0.610   7.760 -0.5339  0.7770 -0.6454
  192SLPC   C3822287   2.527   0.515   7.725  0.0232  0.1729  0.5614
  192SLPC   H8X22288   2.582   0.610   7.705 -0.7652  0.7803  1.1880
  192SLPC   H8Y22289   2.572   0.445   7.652 -1.2825 -0.4604  0.3294
  192SLPC   C3922290   2.565   0.471   7.871  0.4094  0.4734  0.1729
  192SLPC   H9X22291   2.522   0.370   7.889  1.6471 -0.4269 -1.6068
  192SLPC   H9Y22292   2.524   0.536   7.950  1.5612  0.7456  0.5605
  192SLPC  C31022293   2.716   0.444   7.889  0.1755  0.2107  0.1357
  192SLPC  H10X22294   2.752   0.348   7.844 -0.3745 -0.0851  0.3209
  192SLPC  H10Y22295   2.736   0.441   7.998 -0.9815 -0.9293  0.3466
  192SLPC  C31122296   2.817   0.554   7.850  0.1600  0.3485  0.8087
  192SLPC  H11X22297   2.774   0.645   7.898 -1.3869  1.4463 -2.3838
  192SLPC  H11Y22298   2.817   0.578   7.741 -0.4979 -2.1058  0.2217
  192SLPC  C31222299   2.957   0.526   7.898 -0.0094 -0.7631  0.5048
  192SLPC  H12X22300   2.996   0.431   7.856  1.6787  1.0625 -2.4013
  192SLPC  H12Y22301   2.953   0.513   8.008  3.3546 -2.8695  0.5020
  192SLPC  C31322302   3.054   0.630   7.846  0.6278  0.0149  0.1012
  192SLPC  H13X22303   3.040   0.728   7.896  0.7763 -0.4114  0.9814
  192SLPC  H13Y22304   3.022   0.656   7.742 -0.5438  0.3819  0.5448
  192SLPC  C31422305   3.197   0.577   7.855 -0.1764 -0.0923  0.1306
  192SLPC  H14X22306   3.197   0.474   7.815  0.2202  0.3907 -1.1821
  192SLPC  H14Y22307   3.238   0.583   7.958 -1.3352 -0.7602  0.6460
  192SLPC  C31522308   3.293   0.653   7.754 -0.0689 -0.1687  0.1474
  192SLPC  H15X22309   3.402   0.631   7.752  0.7009  2.9550 -3.4294
  192SLPC  H15Y22310   3.310   0.757   7.789  1.0371 -0.1011 -0.5254
  192SLPC  C31622311   3.241   0.671   7.609 -0.2999 -0.4811  0.2757
  192SLPC  H16X22312   3.164   0.751   7.608  0.5608  0.3700  0.9223
  192SLPC  H16Y22313   3.172   0.587   7.584 -2.4047  2.3074 -4.8461
  192SLPC  C31722314   3.341   0.698   7.501 -0.2142 -0.3965 -0.0053
  192SLPC  H17X22315   3.413   0.614   7.495  1.3222  0.7817  0.9342
  192SLPC  H17Y22316   3.401   0.790   7.519  0.7927 -1.1129  0.3363
  192SLPC  C31822317   3.272   0.718   7.359 -0.0765  0.7369 -0.2245
  192SLPC  H18X22318   3.352   0.751   7.288  0.5816  1.1636  0.6999
  192SLPC  H18Y22319   3.185   0.787   7.357 -1.0714 -0.3650  1.9282
  192SLPC  H18Z22320   3.234   0.618   7.331 -0.1038  0.6443  0.1490
  193SOD    SOD22321   6.626   6.230  14.382  0.3003 -0.3469  0.0989
  194SOD    SOD22322   3.115   6.464  12.497  0.2199  0.2082 -0.3843
  195SOD    SOD22323   0.580   5.349  14.498  0.1447  0.1951  0.3226
  196SOD    SOD22324   6.549   0.325  10.623  0.1941 -0.5010  0.2880
  197SOD    SOD22325   3.735   2.346  12.816  0.0721 -0.2328 -0.4911
  198SOD    SOD22326   2.225   5.221  15.857  0.0214 -0.0392 -0.3899
  199SOD    SOD22327   5.013   6.819  14.722 -0.0379 -0.1211 -0.0294
  200SOD    SOD22328   4.240   0.381  10.731  0.5504  0.1326 -0.1663
  201SOD    SOD22329   1.370   6.657  12.823 -0.2706 -0.4229 -0.2243
  202SOD    SOD22330   0.461   0.778   0.256  0.0104  0.4610 -0.1384
  203SOD    SOD22331   3.635   3.891  11.364 -0.2872  0.2803  0.0865
  204SOD    SOD22332   4.080   5.234  10.785 -0.1198 -0.2517  0.0574
  205SOD    SOD22333   4.215   5.668   4.635 -0.1605 -0.4734  0.6663
  206SOD    SOD22334   3.677   4.679   0.075 -0.3586  0.0131  0.6985
  207SOD    SOD22335   1.997   0.548   6.080 -0.5999 -0.0680 -0.1091
  208SOD    SOD22336   3.474   0.194  17.066 -0.0181 -0.2875  0.2599
  209SOD    SOD22337   5.703   5.073   4.335  0.1323  0.0379  0.2606
  210SOD    SOD22338   6.362   2.215   5.458 -0.0241 -0.1604 -0.1480
  211SOD    SOD22339   6.634   1.205   6.056 -0.0669 -0.3926 -0.1652
  212SOD    SOD22340   5.653   6.741   1.386 -0.0776 -0.4479 -0.4321
  213SOD    SOD22341   4.938   4.424   5.857 -0.0859 -0.5030  0.1028
  214SOD    SOD22342   5.286   2.460  11.306 -0.0099  0.2946  0.2404
  215SOD    SOD22343   6.389   2.736   2.725  0.4788 -0.1456  0.0219
  216SOD    SOD22344   1.841   6.595   5.275  0.0160 -0.0945 -0.3242
  217SOD    SOD22345   2.172   1.700  16.076  0.2498 -0.3693 -0.1958
  218SOD    SOD22346   4.368   6.181  17.008 -0.3341 -0.3374 -0.0218
  219SOD    SOD22347   0.509   4.137   3.077 -0.0602 -0.2302 -0.3330
  220SOD    SOD22348   1.204   0.893   0.096 -0.3941  0.3749 -0.4841
  221SOD    SOD22349   0.138   3.940  11.478 -0.0763 -0.3545  0.2061
  222SOD    SOD22350   0.218   6.831  15.674 -0.5796 -0.0772  0.0931
  223SOD    SOD22351   1.626   5.340   5.337 -0.3906 -0.2031  0.2665
  224SOD    SOD22352   4.923   0.485   1.540 -0.1518  0.3668  0.5638
  225SOD    SOD22353   0.051   2.955  15.850 -0.0030  0.5476 -0.6041
  226SOD    SOD22354   1.242   2.782  12.812  0.6135 -0.0134 -0.6637
  227SOD    SOD22355   4.411   6.424   6.327 -0.2613 -0.1513 -0.1941
  228SOD    SOD22356   5.466   0.283  10.792 -0.2881  0.1942  0.5239
  229SOD    SOD22357   5.994   5.899  15.394 -0.8317  0.3481  0.0125
  230SOD    SOD22358   4.071   2.072  11.046  0.0560 -0.3936  0.5925
  231SOD    SOD22359   0.975   4.006  11.695  0.2054  0.0552 -0.4370
  232SOD    SOD22360   3.808   0.882   5.857 -0.6288 -0.2403 -0.7057
  233SOD    SOD22361   0.486   2.318   4.964  0.0489 -0.2465  0.1553
  234SOD    SOD22362   3.758   2.519   3.994  0.1905 -0.0754  0.5517
  235SOD    SOD22363   0.876   0.174   5.369  0.3412 -0.4555  0.1631
  236SOD    SOD22364   6.649   5.258  12.591  0.2411 -0.2730 -0.1382
  237SOD    SOD22365   5.652   3.250  13.408 -0.2400 -0.1809  0.4380
  238SOD    SOD22366   5.248   1.703   1.593 -0.4113 -0.0691  0.0426
  239SOD    SOD22367   4.295   2.088  11.626 -0.0245  0.6630 -0.1631
  240SOD    SOD22368   2.418   6.521  13.155 -0.1002 -0.3078  0.1877
  241SOD    SOD22369   0.909   3.082  16.979  0.1328  0.5617  0.1317
  242SOD    SOD22370   1.015   5.839  11.628  0.1688  0.2541  0.1410
  243SOD    SOD22371   4.779   5.018   2.440  0.3688 -0.1894 -0.2890
  244SOD    SOD22372   1.591   1.009  11.220  0.3462  0.4671  0.3340
  245SOD    SOD22373   2.002   0.043   1.864  0.1691 -0.1306 -0.2108
  246SOD    SOD22374   0.158   3.424   1.048  0.0678  0.1795  0.0967
  247SOD    SOD22375   4.795   3.688   0.305 -0.1010 -0.2320 -0.1204
  248SOD    SOD22376   2.612   4.685   3.780  0.1524  0.1244 -0.0633
  249SOD    SOD22377   3.526   2.568   2.608 -0.5950  0.2163  0.2263
  250SOD    SOD22378   2.832   2.113  10.601  0.1417  0.0250 -0.5748
  251SOD    SOD22379   5.632   0.993  14.260  0.1932  0.0255  0.0924
  252SOD    SOD22380   0.686   0.763   6.268  0.0908 -0.1622  0.2648
  253SOD    SOD22381   5.208   2.703  15.983 -0.1115  0.2414 -0.2418
  254SOD    SOD22382   4.333   2.524   0.891 -0.0521  0.0261  0.9323
  255SOD    SOD22383   0.774   5.828   5.693  0.1067 -0.1411 -1.0272
  256SOD    SOD22384   0.911   6.735   0.501  0.6228  0.6128  0.1190
  257SOD    SOD22385   2.232   4.334  15.972 -0.1240  0.2293  0.1532
  258SOD    SOD22386   1.461   2.919  16.338 -0.3849  0.0232 -0.0954
  259SOD    SOD22387   0.616   2.429   6.134  0.0055 -0.0996  0.1586
  260SOD    SOD22388   4.779   2.502  11.462  0.1033 -0.2171  0.0222
  261SOD    SOD22389   5.291   1.869   2.130  0.5774  0.3339 -0.2282
  262SOD    SOD22390   6.833   0.439  13.878  0.4726 -0.0474  0.0657
  263SOD    SOD22391   4.763   4.158  12.518  0.0753 -0.2104 -0.6185
  264SOD    SOD22392   4.913   6.004   4.058  0.4926 -0.0146  0.1318
  265SOD    SOD22393   3.006   5.656  17.082 -0.1287  0.1130  0.2479
  266CLA    CLA22394   1.661   6.400  14.576 -0.3062  0.3106 -0.2759
  267CLA    CLA22395   0.601   6.827  14.776 -0.1157  0.0040 -0.3541
  268CLA    CLA22396   0.685   0.367   0.611  0.1114  0.0983  0.0950
  269CLA    CLA22397   0.814   2.424   0.096  0.1953 -0.5871 -0.3783
  270CLA    CLA22398   5.242   5.758  12.329 -0.3062  0.2428 -0.6613
  271CLA    CLA22399   3.099   2.565   4.474  0.0012  0.0738  0.1387
  272CLA    CLA22400   3.255   3.410   5.434  0.1310 -0.1068  0.2035
  273CLA    CLA22401   6.013   0.869   4.715  0.2425  0.1499 -0.2776
  274CLA    CLA22402   2.788   2.838  15.734  0.1333 -0.2395 -0.1275
  275CLA    CLA22403   2.841   4.305  13.450  0.1889  0.3371 -0.1629
  276CLA    CLA22404   4.640   1.773  11.447 -0.1338 -0.3355 -0.2012
  277CLA    CLA22405   5.790   3.315   0.962 -0.2475 -0.2814 -0.2830
  278CLA    CLA22406   3.489   3.161  12.503  0.2401 -0.0402 -0.1502
  279CLA    CLA22407   4.182   3.092  12.833  0.3460 -0.3525  0.4554
  280CLA    CLA22408   4.125   6.362   4.664 -0.5365 -0.2899  0.2551
  281CLA    CLA22409   6.509   6.368  12.662 -0.8391 -0.6100 -0.2624
  282CLA    CLA22410   0.352   4.998   5.051 -0.0471  0.4070 -0.0669
  283CLA    CLA22411   0.287   3.884   3.510  0.0882  0.5322  0.0341
  284CLA    CLA22412   4.127   2.067   0.662 -0.1042 -0.0344  0.2332
  285CLA    CLA22413   2.144   5.285  17.057 -0.1935  0.0603  0.1372
  286CLA    CLA22414   0.615   4.734   1.793 -0.1367 -0.0653 -0.1090
  287CLA    CLA22415   4.965   2.132   1.838 -0.1253  0.3126 -0.3624
  288CLA    CLA22416   0.495   2.553   3.564  0.1595 -0.2717  0.2359
  289CLA    CLA22417   0.701   3.127  14.941 -0.0459  0.2205 -0.2494
  290CLA    CLA22418   1.842   1.741  11.513 -0.0575 -0.1489 -0.1705
  291CLA    CLA22419   4.741   0.770  13.655  0.0355  0.1742  0.3452
  292CLA    CLA22420   5.296   2.031   3.245  0.1462  0.3378 -0.1029
  293CLA    CLA22421   4.674   2.098   3.052 -0.2307  0.4149 -0.0631
  294CLA    CLA22422   6.683   3.341  15.894 -0.4354  0.0906 -0.1081
  295CLA    CLA22423   3.118   5.648   4.526  0.0024  0.0281 -0.2358
  296CLA    CLA22424   3.558   1.503  16.428 -0.4371 -0.1615  0.6343
  297CLA    CLA22425   4.017   5.283  13.846  0.2571  0.1045  0.4349
  298CLA    CLA22426   2.676   1.849   0.835  0.2104 -0.0171  0.0482
  299CLA    CLA22427   5.108   2.752   1.525  0.2171  0.1349  0.3562
  300CLA    CLA22428   6.341   5.931  17.175 -0.0077  0.1754 -0.1561
  301CLA    CLA22429   1.316   5.333  15.226 -0.0682  0.2519 -0.2044
  302CLA    CLA22430   1.774   5.892   5.322  0.3213 -0.7112  0.3407
  303CLA    CLA22431   4.220   2.120   2.291 -0.4578 -0.1804  0.1044
  304CLA    CLA22432   6.833   0.709   3.860  0.2702  0.0720 -0.1235
  305CLA    CLA22433   6.585   3.152   4.964 -0.1052  0.3522  0.4215
  306CLA    CLA22434   4.210   5.673   4.152 -0.3960  0.1965  0.7345
  307CLA    CLA22435   4.989   3.353  14.056  0.0519 -0.0748 -0.4842
  308CLA    CLA22436   4.289   6.401  16.883 -0.3258 -0.1948  0.1239
  309CLA    CLA22437   1.266   6.067  13.304 -0.1894 -0.0866  0.1144
  310CLA    CLA22438   1.838   0.853   3.151  0.0977  0.0549  0.0436
  311CLA    CLA22439   4.186   1.629  14.735  0.1265  0.0352  0.1165
  312CLA    CLA22440   6.768   2.353  15.443 -0.8954 -0.0184 -0.1323
  313CLA    CLA22441   3.899   5.387   0.575 -0.3683 -0.4508  0.2126
  314CLA    CLA22442   5.995   6.386  14.770 -0.3726 -0.1800 -0.3225
  315CLA    CLA22443   4.068   5.684  15.105 -0.2070 -0.2439 -0.2843
  316CLA    CLA22444   0.189   6.158  15.852 -0.0867 -0.2028  0.3202
  317CLA    CLA22445   3.983   0.355   1.331  0.1827  0.1825 -0.0695
  318CLA    CLA22446   5.371   5.858  14.073 -0.3977  0.4820 -0.4165
  319TIP3   OH222447   1.799   1.306   5.807  0.1797 -0.0891 -0.1079
  319TIP3    H122448   1.887   1.342   5.795 -0.4428  1.5336  0.0280
  319TIP3    H222449   1.762   1.355   5.881 -0.4572 -1.5140  0.5581
  320TIP3   OH222450   2.401   0.755  16.818  0.6245 -0.4343 -0.3263
  320TIP3    H122451   2.359   0.780  16.735 -0.7166  0.0928  0.4738
  320TIP3    H222452   2.469   0.821  16.832 -1.0536  1.2360  0.3845
  321TIP3   OH222453   2.127   6.134  10.913  0.2404 -0.3645 -0.2880
  321TIP3    H122454   2.044   6.161  10.874  0.2672 -1.3321 -1.0438
  321TIP3    H222455   2.187   6.207  10.897 -0.4709  0.3840  0.3500
  322TIP3   OH222456   5.896   1.487   1.807  0.1051 -0.4217  0.1519
  322TIP3    H122457   5.887   1.466   1.714  0.2751 -0.2770  0.1004
  322TIP3    H222458   5.936   1.575   1.808 -0.6466 -0.0736  0.3614
  323TIP3   OH222459   5.702   5.417  15.763  0.4182  0.1027  0.1028
  323TIP3    H122460   5.690   5.340  15.707 -0.4462 -0.8716  1.5646
  323TIP3    H222461   5.655   5.487  15.717  1.6599 -0.0789 -1.5103
  324TIP3   OH222462   5.006   6.726   2.442 -0.0335 -0.4306 -0.3095
  324TIP3    H122463   5.002   6.694   2.533  0.1418  1.6119  0.4548
  324TIP3    H222464   4.919   6.705   2.406  0.1059 -1.8295  0.0930
  325TIP3   OH222465   5.433   6.312  13.006  0.1139 -0.3171 -0.1799
  325TIP3    H122466   5.355   6.339  12.959  0.2727 -0.1211 -0.3322
  325TIP3    H222467   5.439   6.218  12.990 -0.9137 -0.6220  1.0536
  326TIP3   OH222468   5.792   1.906  16.128  0.3525  1.0114  0.1723
  326TIP3    H122469   5.797   1.832  16.189 -0.0476  1.3029  0.5636
  326TIP3    H222470   5.764   1.980  16.182  0.3068  1.3484 -0.3060
  327TIP3   OH222471   2.679   1.769  14.950  0.0873  0.2547  0.4894
  327TIP3    H122472   2.756   1.752  14.896  1.5883  1.6585  2.0458
  327TIP3    H222473   2.631   1.836  14.902  0.0459 -0.3140 -0.2903
  328TIP3   OH222474   3.364   5.569  14.900 -0.4586 -0.5328 -0.4456
  328TIP3    H122475   3.353   5.486  14.854 -0.9148 -0.2215 -0.9122
  328TIP3    H222476   3.452   5.598  14.876  0.7631 -2.1099  1.7762
  329TIP3   OH222477   2.223   4.250  14.115  0.1044  0.5284 -0.2091
  329TIP3    H122478   2.173   4.169  14.099 -1.4558  0.9430  2.0341
  329TIP3    H222479   2.171   4.318  14.073 -0.1671  0.7259  0.4481
  330TIP3   OH222480   5.853   3.576  15.112 -0.4161  0.6901  0.0986
  330TIP3    H122481   5.758   3.568  15.107 -0.3916  1.0438 -1.6663
  330TIP3    H222482   5.886   3.487  15.103 -0.5760  0.4845  1.4040
  331TIP3   OH222483   2.988   3.886  13.469 -0.3683  0.0999 -0.0385
  331TIP3    H122484   3.045   3.813  13.493  0.2699  0.4118 -0.5696
  331TIP3    H222485   3.040   3.937  13.407 -0.5450  1.3957  0.8578
  332TIP3   OH222486   3.166   2.623  17.018 -0.2422  0.2061  0.0258
  332TIP3    H122487   3.131   2.561  16.954 -1.3468  1.1075 -0.2835
  332TIP3    H222488   3.211   2.569  17.083  1.6974 -0.6787 -1.9546
  333TIP3   OH222489   5.630   0.195   4.971  0.4120  0.0991  0.0601
  333TIP3    H122490   5.612   0.141   4.894  1.4808  0.0179 -0.1499
  333TIP3    H222491   5.725   0.190   4.983  0.3285  0.5455  1.0681
  334TIP3   OH222492   1.847   2.660  13.737  0.0375 -0.0642  0.1836
  334TIP3    H122493   1.865   2.633  13.827 -0.6138  0.1534  0.3828
  334TIP3    H222494   1.759   2.698  13.740  0.6052  1.3712 -0.2343
  335TIP3   OH222495   4.493   5.793   1.077  0.0331  0.3130  0.2566
  335TIP3    H122496   4.428   5.839   1.129  0.3738  0.8518  0.2148
  335TIP3    H222497   4.463   5.804   0.986 -1.8656 -2.6300  0.4138
  336TIP3   OH222498   2.301   5.248   1.943  0.9533  0.3826  0.2900
  336TIP3    H122499   2.367   5.178   1.936  0.3867 -0.2725  1.2589
  336TIP3    H222500   2.352   5.328   1.948  1.8550 -0.2379  3.1360
  337TIP3   OH222501   2.907   5.548   2.435 -0.1052 -0.3509  0.0636
  337TIP3    H122502   2.919   5.629   2.385 -0.8947 -0.4241 -0.2776
  337TIP3    H222503   2.967   5.555   2.508  1.6524 -0.5817 -1.2994
  338TIP3   OH222504   0.928   6.561  14.173 -0.5781  0.5422 -0.0506
  338TIP3    H122505   0.938   6.566  14.268  1.1861 -0.0586 -0.1697
  338TIP3    H222506   0.990   6.494  14.146 -1.6176  0.1300 -1.5702
  339TIP3   OH222507   0.204   1.519   0.559 -0.3275  0.5961 -0.2315
  339TIP3    H122508   0.179   1.611   0.567  0.5973  0.8945 -0.5819
  339TIP3    H222509   0.211   1.487   0.649 -1.0851  0.7381 -0.1168
  340TIP3   OH222510   1.651   0.679  15.621  0.5467 -0.1304 -0.6201
  340TIP3    H122511   1.562   0.681  15.584  0.3911  0.3058 -0.2452
  340TIP3    H222512   1.698   0.615  15.569 -0.2290 -0.9977 -0.2836
  341TIP3   OH222513   6.421   3.555   6.296 -1.1244 -0.1026 -0.8960
  341TIP3    H122514   6.411   3.535   6.389 -1.6364 -0.8822 -1.1053
  341TIP3    H222515   6.332   3.568   6.264 -0.8720  1.3901 -1.0317
  342TIP3   OH222516   5.709   3.887  12.571 -0.2016 -0.8166 -0.2187
  342TIP3    H122517   5.785   3.848  12.528  0.3880 -0.0542  0.1264
  342TIP3    H222518   5.704   3.843  12.656 -0.6043 -1.4012 -0.5341
  343TIP3   OH222519   0.763   3.744  16.374 -0.1751 -0.1292 -0.3754
  343TIP3    H122520   0.737   3.734  16.465 -0.7567 -0.5137 -0.5816
  343TIP3    H222521   0.845   3.696  16.367  0.4873  0.8640  0.2110
  344TIP3   OH222522   5.196   6.667  15.167 -0.6308  0.2447  0.3705
  344TIP3    H122523   5.206   6.731  15.096  2.5304  1.3517  1.6181
  344TIP3    H222524   5.102   6.662  15.182 -1.5223 -0.1963 -3.9252
  345TIP3   OH222525   6.497   2.428   6.846 -0.1439 -0.3431  0.5772
  345TIP3    H122526   6.414   2.386   6.824  0.3795 -1.0985  0.0044
  345TIP3    H222527   6.480   2.522   6.835 -1.1803 -0.4250  1.3764
  346TIP3   OH222528   2.670   6.133   4.413  0.3375  0.1544 -0.0141
  346TIP3    H122529   2.648   6.056   4.466 -1.3417  0.3195 -0.4173
  346TIP3    H222530   2.665   6.206   4.474  1.4019  0.0138  0.2510
  347TIP3   OH222531   3.446   1.103  17.082  0.1595  0.6295 -0.2951
  347TIP3    H122532   3.484   1.186  17.053 -0.3139  1.4230  1.2354
  347TIP3    H222533   3.509   1.037  17.054 -0.8229  1.0934 -4.1917
  348TIP3   OH222534   1.393   4.307  12.010  0.3362 -0.3333  0.1962
  348TIP3    H122535   1.347   4.224  11.995 -1.4176  0.3725  1.3645
  348TIP3    H222536   1.482   4.281  12.034 -0.1698 -1.8855  0.5287
  349TIP3   OH222537   3.807   2.760  11.112  0.8153 -0.2827 -0.2145
  349TIP3    H122538   3.759   2.837  11.082 -1.4607 -1.8169 -0.7568
  349TIP3    H222539   3.781   2.750  11.204  2.6090  0.6106  0.4498
  350TIP3   OH222540   6.830   1.759   3.883 -0.2655  0.0194  0.2034
  350TIP3    H122541   6.796   1.821   3.818 -2.2498  0.6419  1.7469
  350TIP3    H222542   6.872   1.815   3.949 -0.8054 -0.3772  0.8882
  351TIP3   OH222543   6.075   1.709   0.647  0.6026  0.0869  0.6269
  351TIP3    H122544   6.154   1.679   0.692 -0.5264 -1.5147  1.6789
  351TIP3    H222545   6.046   1.632   0.597  0.7851  1.2670 -1.3800
  352TIP3   OH222546   4.600   0.599   5.883  0.2787  0.4283  0.3012
  352TIP3    H122547   4.535   0.530   5.894  0.8474 -0.1281  0.2832
  352TIP3    H222548   4.632   0.616   5.972  1.0412 -0.2463  0.1715
  353TIP3   OH222549   0.530   0.757   4.195  0.4602  0.1678 -0.0359
  353TIP3    H122550   0.534   0.685   4.259  0.1824 -0.4171 -0.6645
  353TIP3    H222551   0.526   0.836   4.248 -1.6756 -0.3805  0.7102
  354TIP3   OH222552   1.487   3.300   3.248  0.1307 -0.0729 -0.1317
  354TIP3    H122553   1.493   3.235   3.318  2.2717 -1.5147 -1.5328
  354TIP3    H222554   1.421   3.264   3.188  0.1608 -0.1510 -0.1186
  355TIP3   OH222555   2.790   2.733   1.962 -0.3267 -0.0853 -1.0224
  355TIP3    H122556   2.771   2.691   2.045  0.4794 -0.4602 -1.0173
  355TIP3    H222557   2.880   2.707   1.942 -0.8551 -0.9000 -2.5400
  356TIP3   OH222558   2.876   5.561   1.862  0.0816 -0.0756  0.4264
  356TIP3    H122559   2.788   5.575   1.897 -0.0225  0.2520  0.0371
  356TIP3    H222560   2.930   5.540   1.939 -0.1568  0.5723  0.7760
  357TIP3   OH222561   6.243   5.696   0.777  0.1182  0.6957 -0.8538
  357TIP3    H122562   6.298   5.628   0.816  0.4382  1.2208 -0.3574
  357TIP3    H222563   6.298   5.735   0.709  0.7289  1.8048  0.2212
  358TIP3   OH222564   4.047   5.139   4.462 -0.0951  0.0131 -0.0885
  358TIP3    H122565   4.140   5.119   4.471 -0.0181  0.5063  0.2797
  358TIP3    H222566   4.035   5.156   4.369  0.3901  0.8808 -0.0018
  359TIP3   OH222567   4.424   6.198   5.083  0.1634  0.5608  0.2515
  359TIP3    H122568   4.502   6.227   5.131  0.2363 -2.0771  1.9424
  359TIP3    H222569   4.352   6.250   5.119  0.9324  2.2894 -0.5986
  360TIP3   OH222570   1.052   2.633  15.968 -0.0299 -0.2604 -0.5302
  360TIP3    H122571   1.103   2.673  15.897 -1.9414  0.8930 -1.3079
  360TIP3    H222572   1.054   2.698  16.038  0.5638 -0.7499 -0.0765
  361TIP3   OH222573   3.107   3.462  12.486  0.0815 -0.4452 -0.4252
  361TIP3    H122574   3.187   3.452  12.539  0.2986 -0.3287 -0.7298
  361TIP3    H222575   3.037   3.435  12.545  0.3297 -0.4089 -0.1056
  362TIP3   OH222576   3.327   6.194  13.157 -0.2957 -0.5917 -0.1744
  362TIP3    H122577   3.303   6.153  13.240  0.3123 -1.9694 -0.6572
  362TIP3    H222578   3.271   6.152  13.092  0.6975 -1.0427 -0.7565
  363TIP3   OH222579   4.279   1.929   0.912  0.0797  0.4545  0.2010
  363TIP3    H122580   4.294   1.856   0.851  0.9649 -0.6915  1.7305
  363TIP3    H222581   4.274   2.006   0.855  0.3748 -0.6234 -1.3667
  364TIP3   OH222582   3.358   6.412   3.258  0.2871  0.4039 -0.1972
  364TIP3    H122583   3.348   6.412   3.163  0.1155  2.2413 -0.2162
  364TIP3    H222584   3.300   6.342   3.289  1.8648 -1.6281 -1.5368
  365TIP3   OH222585   6.556   5.342   0.708 -0.1304  0.7395  0.8038
  365TIP3    H122586   6.609   5.267   0.735 -2.1377 -0.3293  2.0139
  365TIP3    H222587   6.605   5.381   0.636  2.2678 -0.1567  1.8306
  366TIP3   OH222588   1.386   1.169   4.117 -0.1999  0.4228 -0.1249
  366TIP3    H122589   1.389   1.082   4.157  0.2439  0.5576  0.1416
  366TIP3    H222590   1.317   1.215   4.166  1.8807  1.3695  2.1672
  367TIP3   OH222591   0.894   0.938   5.167 -0.2817  0.0460  0.3411
  367TIP3    H122592   0.986   0.913   5.156 -0.7568 -1.1960 -1.1995
  367TIP3    H222593   0.877   1.003   5.099 -0.2936  1.0489  1.2853
  368TIP3   OH222594   3.681   4.521   2.048  0.4005  0.0725  0.1110
  368TIP3    H122595   3.694   4.464   2.124 -1.7166 -0.8887 -0.1888
  368TIP3    H222596   3.586   4.525   2.036  0.6583  0.5490 -2.2316
  369TIP3   OH222597   4.220   1.335   5.831 -0.3432  0.0016 -0.3976
  369TIP3    H122598   4.193   1.278   5.759  0.3767  0.6236 -1.1877
  369TIP3    H222599   4.254   1.276   5.898  1.1357 -0.4908 -1.5325
  370TIP3   OH222600   5.638   4.988  12.959 -0.1490 -0.4879 -0.8359
  370TIP3    H122601   5.663   5.017  13.047 -1.7186  2.3320 -1.2073
  370TIP3    H222602   5.608   4.898  12.971 -0.5433 -0.0972  1.5728
  371TIP3   OH222603   3.996   1.590  15.346 -0.1547  0.8026  0.0127
  371TIP3    H122604   3.941   1.565  15.272 -0.2983  0.4213  0.2420
  371TIP3    H222605   4.047   1.665  15.315 -0.0544  0.5090 -0.5409
  372TIP3   OH222606   6.669   1.723   3.088 -0.4269  0.0356 -0.1859
  372TIP3    H122607   6.680   1.635   3.052  3.4493  0.2152  0.1823
  372TIP3    H222608   6.677   1.711   3.183 -1.3533  0.6553 -0.0157
  373TIP3   OH222609   1.015   4.778   5.600  0.2289  0.1719  0.5159
  373TIP3    H122610   0.987   4.746   5.686  2.5047  0.7382  1.5305
  373TIP3    H222611   1.051   4.865   5.617 -0.4440  0.8595 -1.2515
  374TIP3   OH222612   4.321   3.755  15.753  0.2155  0.1063  0.1724
  374TIP3    H122613   4.349   3.695  15.823 -0.0411 -0.2453 -0.0252
  374TIP3    H222614   4.239   3.718  15.721  0.1311  0.4835 -0.0542
  375TIP3   OH222615   3.806   4.486   6.072  0.7074  0.6155 -0.2478
  375TIP3    H122616   3.872   4.552   6.093  1.1127  0.6421 -1.4704
  375TIP3    H222617   3.833   4.452   5.987  0.7572 -1.4683  0.5516
  376TIP3   OH222618   0.067   0.821  13.450 -0.3717  0.3145  0.1411
  376TIP3    H122619   0.114   0.768  13.514 -0.1456  0.7412  0.3259
  376TIP3    H222620   0.083   0.777  13.366 -2.4411 -1.5117  0.6164
  377TIP3   OH222621   2.615   0.278  15.001  0.4368 -0.1342 -0.2993
  377TIP3    H122622   2.639   0.240  15.086  3.1048 -0.7604 -1.2016
  377TIP3    H222623   2.598   0.202  14.946 -0.1189  0.2289 -0.6318
  378TIP3   OH222624   6.183   0.184  12.473 -0.3492 -0.4359 -0.0001
  378TIP3    H122625   6.092   0.165  12.495 -0.5175  0.0542 -0.2561
  378TIP3    H222626   6.234   0.144  12.544 -0.7476 -0.8958  0.0289
  379TIP3   OH222627   0.603   3.802  15.102 -0.5410  0.2559  0.5176
  379TIP3    H122628   0.545   3.802  15.025 -1.3306  0.9963  1.0989
  379TIP3    H222629   0.544   3.815  15.176  0.2851  0.1492  1.1982
  380TIP3   OH222630   3.608   6.041   5.807 -0.2806  0.2012 -0.1211
  380TIP3    H122631   3.553   5.972   5.769 -0.2823  0.3147 -0.3226
  380TIP3    H222632   3.554   6.078   5.877 -0.4458  0.2884 -0.2943
  381TIP3   OH222633   6.419   3.546   1.371  0.4223  0.0408 -0.6341
  381TIP3    H122634   6.481   3.484   1.334  0.0328  0.3723 -1.9108
  381TIP3    H222635   6.383   3.502   1.448  1.0322 -0.8060 -0.8232
  382TIP3   OH222636   2.667   1.667   4.543  0.4951 -0.8443 -0.3381
  382TIP3    H122637   2.678   1.758   4.572  0.2367 -1.0553  0.4284
  382TIP3    H222638   2.585   1.668   4.493  0.4135 -0.6857 -0.2027
  383TIP3   OH222639   5.859   0.639   4.226  0.0949 -0.2509 -0.1667
  383TIP3    H122640   5.891   0.652   4.315 -0.4820 -0.8215  0.1295
  383TIP3    H222641   5.764   0.646   4.234 -0.0732 -1.8022 -0.4591
  384TIP3   OH222642   2.130   1.769   1.403  0.1258 -0.5625  0.0861
  384TIP3    H122643   2.104   1.758   1.494  0.1992 -1.2540  0.0322
  384TIP3    H222644   2.225   1.757   1.403  0.3488  0.9714  0.1364
  385TIP3   OH222645   4.963   4.516   2.023  0.8355  0.1828  0.4730
  385TIP3    H122646   5.020   4.448   2.058  1.1319  0.3954  0.4103
  385TIP3    H222647   4.954   4.494   1.930 -3.1681 -2.7030  1.2806
  386TIP3   OH222648   6.599   3.472  12.057  0.3297  0.3968 -0.0517
  386TIP3    H122649   6.598   3.473  12.153 -0.6011 -0.0139 -0.0455
  386TIP3    H222650   6.524   3.527  12.033  1.6736  2.0896 -0.5820
  387TIP3   OH222651   1.871   5.935   1.202  0.2533 -0.0884  0.6893
  387TIP3    H122652   1.778   5.941   1.222  0.2781 -0.2503  0.8548
  387TIP3    H222653   1.914   5.981   1.275  0.3988 -1.5012  1.5199
  388TIP3   OH222654   0.282   1.543   2.505 -0.6093  1.0159  0.8255
  388TIP3    H122655   0.373   1.519   2.525 -0.7976 -0.6864 -0.1867
  388TIP3    H222656   0.246   1.572   2.589 -0.3548 -2.4014  2.2863
  389TIP3   OH222657   4.491   4.421  13.430 -0.2057 -0.0655  0.2649
  389TIP3    H122658   4.563   4.451  13.375 -1.6746  3.1772 -0.0751
  389TIP3    H222659   4.432   4.377  13.369 -0.4240  0.8911 -0.2341
  390TIP3   OH222660   6.752   0.172   0.670 -0.3661  0.2292  0.1526
  390TIP3    H122661   6.741   0.083   0.704 -1.9685  0.7351  1.0824
  390TIP3    H222662   6.724   0.166   0.579  0.9823 -0.5046 -0.2429
  391TIP3   OH222663   6.465   3.464   3.195 -0.5987  0.1081 -0.2856
  391TIP3    H122664   6.416   3.516   3.259 -0.9012 -1.2567  0.6294
  391TIP3    H222665   6.465   3.376   3.231  3.5841  0.1857  0.4394
  392TIP3   OH222666   1.631   6.226   0.877 -0.4123 -0.4109 -0.0832
  392TIP3    H122667   1.580   6.292   0.923  3.0129  2.0301  0.6423
  392TIP3    H222668   1.643   6.262   0.789 -0.2746 -1.1356 -0.3698
  393TIP3   OH222669   6.195   4.906   2.513 -0.4109 -0.3708  0.3338
  393TIP3    H122670   6.239   4.948   2.587  0.0286 -0.5857  0.1952
  393TIP3    H222671   6.119   4.962   2.496 -0.7825 -0.5812  1.2488
  394TIP3   OH222672   3.635   2.146   6.532 -0.2516 -0.0827  0.0327
  394TIP3    H122673   3.659   2.079   6.467 -0.8807 -2.5435  2.1661
  394TIP3    H222674   3.718   2.169   6.574  0.1198  1.3343 -1.3694
  395TIP3   OH222675   6.820   5.629  14.521  0.1411  0.3809 -1.0235
  395TIP3    H122676   6.791   5.579  14.445  1.2608  0.6564 -1.6500
  395TIP3    H222677   6.885   5.690  14.487  1.9322 -0.6480  0.3971
  396TIP3   OH222678   3.246   4.361  13.201 -0.2552 -0.8504 -0.3979
  396TIP3    H122679   3.263   4.358  13.107 -0.9363 -2.3887 -0.5002
  396TIP3    H222680   3.332   4.361  13.241  0.0401 -1.0357 -1.0189
  397TIP3   OH222681   6.652   6.069   5.489 -0.2679 -0.3876  0.1776
  397TIP3    H122682   6.747   6.060   5.476 -0.2122  0.8491 -0.3464
  397TIP3    H222683   6.623   6.125   5.417 -1.0223  1.1753  1.6289
  398TIP3   OH222684   1.408   2.988   2.214 -0.4013  0.1014  0.4398
  398TIP3    H122685   1.411   3.024   2.302  3.7071 -0.2274  0.6242
  398TIP3    H222686   1.444   3.058   2.158 -0.0199 -0.7674 -0.4406
  399TIP3   OH222687   0.367   5.929   0.195 -0.0025 -0.0644  0.1650
  399TIP3    H122688   0.380   5.882   0.112  1.4130 -2.7843  1.7927
  399TIP3    H222689   0.272   5.931   0.206 -0.2604  1.0827 -1.8597
  400TIP3   OH222690   3.745   4.893   2.361  0.0824  0.1773  0.4328
  400TIP3    H122691   3.806   4.914   2.290  1.7207 -0.0326  1.7168
  400TIP3    H222692   3.659   4.899   2.321  0.7578  3.1548 -0.8260
  401TIP3   OH222693   0.201   4.999   5.392  0.4513  0.3737 -0.5100
  401TIP3    H122694   0.145   4.991   5.314 -0.1999  0.7823 -0.0967
  401TIP3    H222695   0.139   5.017   5.463  1.0148 -0.2933  0.1549
  402TIP3   OH222696   3.071   5.522   2.899 -0.5452 -0.6685  0.3240
  402TIP3    H122697   3.093   5.603   2.945 -2.0938 -0.8146  1.3920
  402TIP3    H222698   3.103   5.453   2.957  2.5654 -0.9251 -1.4761
  403TIP3   OH222699   1.204   5.731  15.862 -0.5806  0.1184 -0.2926
  403TIP3    H122700   1.284   5.742  15.810 -0.7367 -1.2563 -0.8682
  403TIP3    H222701   1.167   5.648  15.832 -0.7907 -0.6327  1.8603
  404TIP3   OH222702   1.727   6.284  16.173  0.2693  0.1607  0.0820
  404TIP3    H122703   1.819   6.260  16.174  0.4928  0.9772  0.0002
  404TIP3    H222704   1.715   6.337  16.252 -0.5005 -1.2099  0.9328
  405TIP3   OH222705   5.266   0.018  12.598  0.6754  0.1394  0.1117
  405TIP3    H122706   5.194   0.070  12.563 -0.5962 -2.0089 -0.6755
  405TIP3    H222707   5.226  -0.067  12.617  2.2320 -0.0701  2.9929
  406TIP3   OH222708   0.377   5.775   2.416 -0.3113 -0.6164 -0.0053
  406TIP3    H122709   0.366   5.780   2.321 -0.0071 -1.2694 -0.0811
  406TIP3    H222710   0.409   5.686   2.432 -1.3661 -0.8690  0.8085
  407TIP3   OH222711   2.387   5.560   3.889  0.1547  0.2882 -0.1863
  407TIP3    H122712   2.376   5.507   3.968  1.9984 -0.9302 -0.6961
  407TIP3    H222713   2.440   5.635   3.917 -0.3663  0.5856  0.0127
  408TIP3   OH222714   5.221   0.834   5.100  0.3428  0.3951 -0.0042
  408TIP3    H122715   5.258   0.916   5.069 -1.7589  0.7311 -1.9713
  408TIP3    H222716   5.126   0.847   5.095 -0.0619 -1.4764  1.5665
  409TIP3   OH222717   3.928   2.411   1.861  0.6218 -0.3775 -0.4877
  409TIP3    H122718   3.914   2.431   1.954  0.9546 -1.5708 -0.1653
  409TIP3    H222719   3.876   2.476   1.814 -1.3026 -1.0667  0.5696
  410TIP3   OH222720   6.549   1.421   5.452 -0.3141  0.4385 -0.1781
  410TIP3    H122721   6.599   1.495   5.418 -1.9937  1.8092  0.1806
  410TIP3    H222722   6.513   1.378   5.375  2.0609 -1.1330 -0.5082
  411TIP3   OH222723   1.050   4.654  13.385  0.7993  0.0278 -0.2642
  411TIP3    H122724   1.057   4.673  13.292 -0.5728  2.4921  0.0722
  411TIP3    H222725   1.007   4.731  13.423 -0.6874 -1.8132  2.0751
  412TIP3   OH222726   6.342   1.938  11.953 -0.2141  0.3543 -0.4787
  412TIP3    H122727   6.436   1.952  11.937 -0.0835 -1.8632 -2.1869
  412TIP3    H222728   6.299   2.009  11.904  0.5334  0.9368 -0.3139
  413TIP3   OH222729   6.231   5.186  10.854 -0.3608  0.5527  0.0132
  413TIP3    H122730   6.294   5.165  10.923  0.3586 -1.6001 -1.2249
  413TIP3    H222731   6.283   5.229  10.786 -0.5435  0.2767 -0.3020
  414TIP3   OH222732   3.585   0.619  16.732  0.4033  0.0326  0.0145
  414TIP3    H122733   3.491   0.603  16.726 -0.5180  3.0637  3.2800
  414TIP3    H222734   3.600   0.693  16.673  0.6105 -0.0163  0.0075
  415TIP3   OH222735   6.743   0.272  16.476 -0.0297  0.4115  0.0307
  415TIP3    H122736   6.678   0.242  16.412  2.4262 -1.8133 -1.6371
  415TIP3    H222737   6.749   0.200  16.539  0.0630  1.0747  0.7921
  416TIP3   OH222738   0.687   2.594   3.819 -1.1026 -0.3171 -0.1501
  416TIP3    H122739   0.639   2.560   3.744  0.3152 -0.5219 -1.0141
  416TIP3    H222740   0.751   2.655   3.781 -0.0267 -0.8054  0.8166
  417TIP3   OH222741   2.002   1.133  13.195 -0.2603 -0.0565 -0.0929
  417TIP3    H122742   1.953   1.214  13.186 -2.5664 -1.4586 -1.2561
  417TIP3    H222743   1.984   1.104  13.285 -1.5027 -0.4365 -0.4311
  418TIP3   OH222744   1.385   2.509  16.103  0.0207 -0.2490  0.4635
  418TIP3    H122745   1.327   2.578  16.133  2.0324  2.0493 -0.5600
  418TIP3    H222746   1.443   2.492  16.177  0.5206  0.3165  0.2070
  419TIP3   OH222747   6.691   0.146  14.535  0.4821 -0.0844  0.1487
  419TIP3    H122748   6.657   0.141  14.625  0.9511 -1.4047  0.2649
  419TIP3    H222749   6.654   0.228  14.501 -1.3430 -0.5537  0.8743
  420TIP3   OH222750   0.821   6.738   5.780  0.3702 -0.5923 -0.3048
  420TIP3    H122751   0.884   6.700   5.841  0.3425 -0.2539 -0.0607
  420TIP3    H222752   0.761   6.788   5.836  1.7142  1.6992 -0.7760
  421TIP3   OH222753   3.773   0.882  16.858  0.8298  0.2173 -0.2356
  421TIP3    H122754   3.728   0.860  16.777 -0.0824  1.3102 -0.0502
  421TIP3    H222755   3.861   0.846  16.847  0.0489 -1.6407 -0.7441
  422TIP3   OH222756   1.107   2.158  12.213  0.1546 -0.7130 -0.4914
  422TIP3    H122757   1.180   2.112  12.171 -0.3592 -1.5418 -0.5060
  422TIP3    H222758   1.070   2.213  12.144  2.3741  1.8044  0.1657
  423TIP3   OH222759   3.235   0.098  11.142 -0.8593  0.3515  0.1132
  423TIP3    H122760   3.223   0.010  11.106  0.6245  0.4549 -0.7069
  423TIP3    H222761   3.312   0.091  11.199 -1.3298  0.9069  0.8492
  424TIP3   OH222762   4.269   0.097  11.241 -0.7588 -0.0474  0.1158
  424TIP3    H122763   4.302   0.007  11.234 -0.2904  0.1309 -0.0277
  424TIP3    H222764   4.179   0.092  11.212 -0.3101 -0.2169 -1.3084
  425TIP3   OH222765   4.171   3.659   2.739 -0.3941  0.1750 -0.0229
  425TIP3    H122766   4.189   3.642   2.646  0.0193 -1.0669  0.2580
  425TIP3    H222767   4.135   3.577   2.772 -2.4791  1.2299  0.4805
  426TIP3   OH222768   2.228   6.245   1.661  0.3981 -0.4501  0.3277
  426TIP3    H122769   2.208   6.338   1.670  0.7659  0.1020 -3.1865
  426TIP3    H222770   2.165   6.201   1.719 -0.4149  1.9064  1.3471
  427TIP3   OH222771   4.050   5.100   5.736  0.3655  0.3365  0.0825
  427TIP3    H122772   4.083   5.090   5.825  1.4820  0.9818 -0.2448
  427TIP3    H222773   3.967   5.051   5.735  0.4093  0.2160  1.4264
  428TIP3   OH222774   0.387   5.735  15.222  0.2178  0.6345  0.6233
  428TIP3    H122775   0.480   5.739  15.244 -0.1589 -0.8458  2.8047
  428TIP3    H222776   0.378   5.658  15.166  0.4629  1.5427 -0.7000
  429TIP3   OH222777   4.607   5.468   2.910  0.0144 -0.1038  0.3922
  429TIP3    H122778   4.602   5.436   3.000 -0.4657  0.8899  0.7389
  429TIP3    H222779   4.592   5.563   2.917 -1.4800 -0.1937 -0.8562
  430TIP3   OH222780   5.690   6.656   0.117 -0.0309 -0.3873  0.3748
  430TIP3    H122781   5.633   6.594   0.161 -0.5981 -1.0250 -1.1755
  430TIP3    H222782   5.729   6.606   0.045 -0.4346  1.0036 -0.8698
  431TIP3   OH222783   4.353   6.225   0.790 -0.2031  0.2524 -0.5185
  431TIP3    H122784   4.425   6.181   0.835 -1.7334 -1.3591  0.5275
  431TIP3    H222785   4.345   6.179   0.706 -0.1074  0.3220 -0.5655
  432TIP3   OH222786   4.013   3.366   0.371  0.1767 -0.3819  0.6335
  432TIP3    H122787   3.944   3.305   0.398  0.3550 -0.8784 -0.0238
  432TIP3    H222788   4.067   3.317   0.310  0.0056  0.6089 -0.3411
  433TIP3   OH222789   4.008   1.175  11.929  0.1888 -0.7685  0.4203
  433TIP3    H122790   4.075   1.109  11.945  0.3810 -0.3657  1.3568
  433TIP3    H222791   4.032   1.248  11.986 -1.5018 -0.9328  1.4044
  434TIP3   OH222792   1.293   1.867   1.952  0.2989 -0.0405 -0.2881
  434TIP3    H122793   1.305   1.962   1.959  0.1211 -0.0080 -0.3990
  434TIP3    H222794   1.266   1.854   1.861  0.8048 -0.2493 -0.4098
  435TIP3   OH222795   2.321   0.622   3.430 -0.2807  0.4328 -0.1401
  435TIP3    H122796   2.371   0.579   3.499  0.4266  0.6283 -0.5262
  435TIP3    H222797   2.357   0.710   3.425  0.9021 -0.0798 -1.9298
  436TIP3   OH222798   6.662   2.036  15.148 -0.1265  0.3337  0.8121
  436TIP3    H122799   6.739   1.994  15.185  0.3542  1.6402  1.3383
  436TIP3    H222800   6.628   2.092  15.218 -3.5018 -2.5632  1.8100
  437TIP3   OH222801   4.726   1.337  12.479  0.4930 -0.9647  0.4136
  437TIP3    H122802   4.704   1.251  12.513  0.1178 -0.9762  0.1461
  437TIP3    H222803   4.650   1.391  12.499  1.3329 -0.2930  1.9513
  438TIP3   OH222804   2.524   0.752  16.009  0.0996  0.4283  0.1528
  438TIP3    H122805   2.571   0.719  16.085  0.5959  0.8102  0.0209
  438TIP3    H222806   2.590   0.802  15.960 -0.2986  0.4792 -0.3430
  439TIP3   OH222807   0.461   0.659  13.082 -0.2401 -0.2795  0.3268
  439TIP3    H122808   0.484   0.725  13.148 -1.6965 -1.8076  2.5029
  439TIP3    H222809   0.365   0.657  13.083 -0.2575 -1.2995 -0.9058
  440TIP3   OH222810   5.726   3.878   1.762  0.0818 -0.1739 -0.2857
  440TIP3    H122811   5.752   3.796   1.803 -0.6053  0.0075  0.5320
  440TIP3    H222812   5.645   3.902   1.805  1.1758  1.8754  0.7810
  441TIP3   OH222813   4.289   0.613   1.795  0.0749  0.0462  0.0254
  441TIP3    H122814   4.253   0.697   1.768 -0.7601  0.4868  2.3363
  441TIP3    H222815   4.295   0.563   1.714 -1.9701  1.3749 -1.0341
  442TIP3   OH222816   6.798   3.126   2.999  0.0880 -0.5968 -0.2706
  442TIP3    H122817   6.803   3.187   3.072 -1.8056 -1.4601  0.6552
  442TIP3    H222818   6.886   3.089   2.992  0.7445  0.7588  0.4211
  443TIP3   OH222819   6.551   2.866  16.463 -0.0060 -0.1021 -0.5455
  443TIP3    H122820   6.476   2.849  16.520  0.4255  0.5454  0.2430
  443TIP3    H222821   6.622   2.891  16.523  0.9530 -1.0446 -1.2434
  444TIP3   OH222822   2.858   2.245  11.295 -0.0839 -0.1792  0.0748
  444TIP3    H122823   2.823   2.322  11.340 -2.6244 -0.6255 -0.9741
  444TIP3    H222824   2.936   2.221  11.345 -1.7201  0.4039  3.1245
  445TIP3   OH222825   5.394   4.900  13.193 -0.5886  0.2745 -0.3374
  445TIP3    H122826   5.329   4.832  13.208 -0.5023  0.4724  1.1527
  445TIP3    H222827   5.445   4.902  13.274  0.7735  0.6595 -1.1748
  446TIP3   OH222828   5.651   3.919   0.225  0.8130 -0.1814 -0.3159
  446TIP3    H122829   5.706   3.985   0.267 -0.6419  0.1599  1.1341
  446TIP3    H222830   5.640   3.851   0.292 -2.9188  1.1302  0.6551
  447TIP3   OH222831   2.763   4.388  12.233  0.0567 -0.4512 -0.0937
  447TIP3    H122832   2.691   4.329  12.256  0.8555 -1.6227 -0.5118
  447TIP3    H222833   2.800   4.414  12.317 -0.8257  0.1479  0.1262
  448TIP3   OH222834   1.811   0.730  14.147  0.8960 -0.4233  0.4899
  448TIP3    H122835   1.819   0.791  14.074  0.2263  0.6988  1.3104
  448TIP3    H222836   1.901   0.716  14.177  1.0744 -0.0015  0.1581
  449TIP3   OH222837   0.064   1.670  13.734  0.0323 -0.5617  0.2179
  449TIP3    H122838   0.154   1.701  13.742  0.4885 -0.5959 -3.2844
  449TIP3    H222839   0.070   1.593  13.677 -1.9586 -2.3711  2.2636
  450TIP3   OH222840   0.665   4.586   4.906  0.0468  0.0725  0.2106
  450TIP3    H122841   0.640   4.670   4.945  1.7307  0.9259 -0.4371
  450TIP3    H222842   0.686   4.530   4.980  0.3890  0.7250  0.6125
  451TIP3   OH222843   1.325   6.008  15.130 -0.4022  0.0517  0.3076
  451TIP3    H122844   1.338   5.966  15.045 -2.5956 -0.1302 -0.0026
  451TIP3    H222845   1.276   6.088  15.111  1.4679  1.4606  1.1555
  452TIP3   OH222846   6.353   2.902  10.875 -0.4866  0.5937 -0.1634
  452TIP3    H122847   6.392   2.845  10.809 -0.6059 -1.0524  1.1121
  452TIP3    H222848   6.303   2.966  10.825 -0.7580 -0.7381 -1.6703
  453TIP3   OH222849   1.108   5.849  16.742  0.0882  0.1119  0.0964
  453TIP3    H122850   1.192   5.859  16.697 -0.1231  1.5579 -0.0171
  453TIP3    H222851   1.043   5.871  16.675 -0.2391  2.2632  1.0489
  454TIP3   OH222852   3.412   4.422  11.225 -0.5415  0.7239 -0.2262
  454TIP3    H122853   3.443   4.386  11.308  0.7375 -1.2445 -1.4706
  454TIP3    H222854   3.380   4.346  11.176  0.3039  1.5479 -2.1723
  455TIP3   OH222855   4.852   1.384   3.168 -0.1653  0.2921 -0.1041
  455TIP3    H122856   4.913   1.401   3.240 -0.7494 -1.3003  0.8042
  455TIP3    H222857   4.799   1.463   3.163  0.2868  0.6664  0.8012
  456TIP3   OH222858   1.736   3.157   5.890 -0.2025  0.2068  0.9195
  456TIP3    H122859   1.703   3.244   5.868 -0.2846  0.1456  0.7999
  456TIP3    H222860   1.809   3.143   5.829  0.5924  0.6855  1.7287
  457TIP3   OH222861   1.901   1.578  11.921 -0.4784  0.3021 -0.7387
  457TIP3    H122862   1.846   1.510  11.882  0.0549 -0.3440 -0.3918
  457TIP3    H222863   1.981   1.576  11.869 -0.0811 -0.0055 -0.1221
  458TIP3   OH222864   6.064   5.330  15.919  0.0160  0.1926 -0.4672
  458TIP3    H122865   6.146   5.372  15.894 -0.2246 -0.5498 -2.7639
  458TIP3    H222866   6.018   5.395  15.972  0.9755  1.6025 -1.3033
  459TIP3   OH222867   2.497   1.027   2.808 -0.8837 -0.6033  0.1662
  459TIP3    H122868   2.533   0.940   2.789  1.6393  0.0144  1.7067
  459TIP3    H222869   2.537   1.083   2.742 -0.0467 -0.1169  1.0790
  460TIP3   OH222870   1.156   5.411   3.858 -0.0476 -0.1717 -0.0573
  460TIP3    H122871   1.065   5.424   3.888 -0.0585 -0.1420 -0.1038
  460TIP3    H222872   1.157   5.322   3.825 -0.0603 -0.1717 -0.0581
  461TIP3   OH222873   4.205   4.568  13.198 -1.0167 -0.1577  0.0999
  461TIP3    H122874   4.276   4.620  13.236 -0.1459 -1.0288 -0.2904
  461TIP3    H222875   4.219   4.479  13.232 -2.0917 -0.3003  0.2310
  462TIP3   OH222876   6.315   5.246  14.846 -0.3549  0.0941  0.1031
  462TIP3    H122877   6.288   5.241  14.754 -0.0960 -0.0948  0.0346
  462TIP3    H222878   6.252   5.305  14.886 -0.8745 -0.3535 -0.0454
  463TIP3   OH222879   4.081   0.767   1.950 -0.0188 -0.3252 -0.1718
  463TIP3    H122880   4.153   0.776   2.013  0.1018  0.1336 -0.3725
  463TIP3    H222881   4.056   0.857   1.928 -2.2876 -0.3872  1.7320
  464TIP3   OH222882   3.738   0.305  11.439 -0.1593 -0.2371 -0.0832
  464TIP3    H122883   3.741   0.375  11.505 -2.7089  0.6938 -0.8146
  464TIP3    H222884   3.793   0.337  11.368  0.4218  0.0076  0.4636
  465TIP3   OH222885   3.586   0.062   4.772  0.0570 -0.6739  0.1355
  465TIP3    H122886   3.525   0.090   4.704  1.1889 -1.6139 -1.3365
  465TIP3    H222887   3.560   0.111   4.849 -1.4039  0.2992 -0.9232
  466TIP3   OH222888   2.077   3.642  16.542  0.3963  0.4923 -0.3668
  466TIP3    H122889   2.036   3.678  16.621 -1.8952  0.3970 -1.4479
  466TIP3    H222890   2.165   3.616  16.571 -0.1475  1.0324  1.9893
  467TIP3   OH222891   2.557   5.425   1.619 -0.1196  0.2935 -0.2602
  467TIP3    H122892   2.642   5.422   1.575  0.5243 -1.2092  0.9768
  467TIP3    H222893   2.543   5.517   1.639  1.7033  0.4651  0.4078
  468TIP3   OH222894   4.523   4.670  15.502 -0.1883  0.0401  0.2607
  468TIP3    H122895   4.529   4.593  15.558 -0.2071  0.2235  0.5164
  468TIP3    H222896   4.479   4.736  15.556  1.1072  0.6984  0.5632
  469TIP3   OH222897   2.966   6.372  11.422 -0.0754 -0.1859 -0.3574
  469TIP3    H122898   3.002   6.455  11.388 -1.8057  0.8545  0.2450
  469TIP3    H222899   3.026   6.348  11.493 -1.1591  2.1963  1.4828
  470TIP3   OH222900   1.378   0.754   4.495  0.7143 -0.5640  0.5756
  470TIP3    H122901   1.348   0.785   4.409  0.9641 -0.1646  0.6345
  470TIP3    H222902   1.445   0.689   4.474 -1.7393 -3.2725  0.3425
  471TIP3   OH222903   2.972   3.954  11.530 -0.6930 -0.0448 -0.5020
  471TIP3    H122904   3.059   3.968  11.568 -0.7875 -0.9466  0.0886
  471TIP3    H222905   2.917   3.932  11.605 -1.4466  0.5720 -0.8685
  472TIP3   OH222906   1.465   4.020  11.843  0.9671 -0.4011 -0.0398
  472TIP3    H122907   1.512   4.043  11.923  1.9082  0.6429 -0.8473
  472TIP3    H222908   1.513   3.945  11.808 -0.3034 -1.8042  1.0529
  473TIP3   OH222909   4.911   5.039   0.195 -0.3151  0.1286 -0.5176
  473TIP3    H122910   4.936   5.074   0.281 -0.5508  0.8780 -0.7439
  473TIP3    H222911   4.986   4.987   0.167  0.7429  1.8123 -0.9122
  474TIP3   OH222912   0.337   1.342  11.572  0.0705  0.3728  0.2510
  474TIP3    H122913   0.360   1.394  11.649 -0.6408 -0.2022  0.8569
  474TIP3    H222914   0.249   1.311  11.589  0.5363 -1.1591 -0.0371
  475TIP3   OH222915   5.538   1.096   1.769 -0.2533  0.0042 -0.4810
  475TIP3    H122916   5.589   1.164   1.724 -0.0646 -1.1659 -2.1437
  475TIP3    H222917   5.596   1.066   1.840  0.3201  0.4634 -0.7420
  476TIP3   OH222918   4.572   3.938  16.158  0.0545  0.2643  0.7964
  476TIP3    H122919   4.580   4.003  16.227  2.1241  2.6413 -1.4694
  476TIP3    H222920   4.553   3.988  16.079  1.9365 -1.8070 -1.1263
  477TIP3   OH222921   6.183   1.798  15.802  0.0754  0.0390 -0.3543
  477TIP3    H122922   6.147   1.784  15.714 -0.2635 -1.0342 -0.0582
  477TIP3    H222923   6.139   1.877  15.834 -1.9724 -1.1558 -0.0490
  478TIP3   OH222924   4.753   3.213  11.672  0.5613  0.3175 -0.1908
  478TIP3    H122925   4.844   3.186  11.661  0.6651 -0.1566  1.5364
  478TIP3    H222926   4.729   3.252  11.588  1.6244 -1.6555 -1.4911
  479TIP3   OH222927   5.604   4.961   5.588 -0.1798 -0.0828 -0.7470
  479TIP3    H122928   5.656   5.008   5.653  0.7575  0.6293 -1.9662
  479TIP3    H222929   5.620   5.008   5.506  1.0715 -2.7075 -2.1327
  480TIP3   OH222930   5.154   6.276  16.273  0.6027 -0.1261 -0.1645
  480TIP3    H122931   5.186   6.243  16.189  2.1153  1.0844 -0.1029
  480TIP3    H222932   5.106   6.356  16.250  0.2039 -0.2944  0.0571
  481TIP3   OH222933   1.673   0.799   5.442  0.3779 -0.1387  0.2708
  481TIP3    H122934   1.660   0.804   5.348 -1.0102  1.8719  0.4963
  481TIP3    H222935   1.590   0.765   5.476 -0.0033  1.3144  0.8840
  482TIP3   OH222936   3.742   3.250   5.686 -0.2759 -0.3669 -0.3685
  482TIP3    H122937   3.698   3.222   5.765 -0.9060 -0.5070 -0.7640
  482TIP3    H222938   3.672   3.263   5.622  0.2830 -1.0868 -1.1523
  483TIP3   OH222939   5.570   4.368  11.801 -0.2697 -0.2514  0.0790
  483TIP3    H122940   5.501   4.367  11.867 -0.0063  0.3123  0.3696
  483TIP3    H222941   5.524   4.391  11.720 -0.5456 -0.6434  0.1207
  484TIP3   OH222942   6.091   1.162   4.179  0.6500  0.5825  0.1613
  484TIP3    H122943   6.047   1.247   4.186 -0.7933 -0.2351  1.8290
  484TIP3    H222944   6.114   1.140   4.269  0.4275 -1.0896 -0.1648
  485TIP3   OH222945   2.716   4.537   0.112 -0.5382  0.1031  0.3140
  485TIP3    H122946   2.748   4.478   0.181  0.0592  2.2881  2.0047
  485TIP3    H222947   2.672   4.607   0.159 -0.3524  1.5288 -1.5506
  486TIP3   OH222948   2.698   6.689   5.225 -0.1321 -0.3277  0.6295
  486TIP3    H122949   2.749   6.756   5.179  0.2954 -1.6113 -0.8661
  486TIP3    H222950   2.754   6.663   5.298  0.6931 -0.5847 -0.0721
  487TIP3   OH222951   1.874   5.610   5.221 -0.5130  0.3933  0.3788
  487TIP3    H122952   1.838   5.696   5.241 -1.5605  0.1167 -0.2196
  487TIP3    H222953   1.844   5.591   5.132 -1.2001 -1.0240  0.8782
  488TIP3   OH222954   2.409   2.822   2.984 -0.4365  0.2421 -0.3018
  488TIP3    H122955   2.415   2.907   3.026 -2.1351 -0.0693  0.6723
  488TIP3    H222956   2.377   2.763   3.053 -1.4301 -0.6997 -1.5120
  489TIP3   OH222957   4.140   2.304  12.582  0.0625  0.0971 -0.8651
  489TIP3    H122958   4.223   2.317  12.535 -0.0480 -0.3215 -1.1789
  489TIP3    H222959   4.117   2.391  12.613  0.5392  0.2469 -0.9169
  490TIP3   OH222960   0.525   5.648  13.343 -0.1617  0.3288  0.0746
  490TIP3    H122961   0.594   5.715  13.341 -1.0246  1.2354 -1.5729
  490TIP3    H222962   0.443   5.698  13.338 -0.8172 -0.8454 -1.6466
  491TIP3   OH222963   0.969   0.514   0.630  0.2778  0.2029  0.3282
  491TIP3    H122964   0.972   0.523   0.726  0.3568 -0.0442  0.3498
  491TIP3    H222965   0.897   0.454   0.614  0.1415  0.3948  0.2202
  492TIP3   OH222966   2.937   2.365   1.959  0.3668  0.0056  0.9369
  492TIP3    H122967   2.942   2.328   2.047 -0.7488 -0.9156  0.6494
  492TIP3    H222968   2.960   2.457   1.970  1.3364 -0.3389  1.9981
  493TIP3   OH222969   4.548   2.035  11.623 -0.0384 -0.1701 -0.0575
  493TIP3    H122970   4.615   2.096  11.653  0.4500 -0.9514  0.4889
  493TIP3    H222971   4.594   1.974  11.566 -0.6595  0.3638 -1.1583
  494TIP3   OH222972   3.609   1.881   5.321  0.3350  0.2159  0.5545
  494TIP3    H122973   3.583   1.972   5.307 -1.5885 -0.6517 -2.5335
  494TIP3    H222974   3.693   1.873   5.276  1.1063  0.6483  1.8391
  495TIP3   OH222975   4.186   1.523  13.792 -0.3162 -0.0174 -0.7002
  495TIP3    H122976   4.215   1.613  13.808 -2.3815  0.4120  1.1447
  495TIP3    H222977   4.243   1.469  13.847 -0.5988  0.4319  0.0504
  496TIP3   OH222978   6.008   4.755   5.265 -0.2393 -0.7257 -0.1785
  496TIP3    H122979   5.945   4.825   5.285  0.6419 -0.1647  0.7741
  496TIP3    H222980   5.975   4.679   5.311  0.3793 -0.1198  1.3323
  497TIP3   OH222981   6.553   4.384  15.321  0.1762 -0.0028  0.3186
  497TIP3    H122982   6.474   4.335  15.297 -0.4993  0.6893  1.0453
  497TIP3    H222983   6.522   4.449  15.384  0.8219  2.0951 -1.4134
  498TIP3   OH222984   1.050   2.102  13.648 -0.0841  0.3014  0.4757
  498TIP3    H122985   1.010   2.017  13.631  2.8899 -1.2316  0.5038
  498TIP3    H222986   1.129   2.103  13.594  1.8326  1.5092  3.0857
  499TIP3   OH222987   5.970   0.677   4.500 -0.0642 -0.0574 -0.3174
  499TIP3    H122988   5.990   0.719   4.584  1.3199  0.2278 -0.7565
  499TIP3    H222989   5.895   0.621   4.519 -0.0283  0.2994  1.0209
  500TIP3   OH222990   0.051   6.088  12.497 -0.4621  0.2461 -0.0892
  500TIP3    H122991   0.051   6.150  12.425 -2.2152  0.7202  0.2734
  500TIP3    H222992   0.119   6.120  12.556 -0.7466  1.3292 -0.3279
  501TIP3   OH222993   2.276   2.198  15.034 -0.1695  0.1425 -0.3709
  501TIP3    H122994   2.245   2.275  14.986 -0.8248  0.0658 -0.0920
  501TIP3    H222995   2.268   2.222  15.126  2.9038  1.0084 -0.2200
  502TIP3   OH222996   4.473   0.246   1.446 -0.2313  0.6501  0.4663
  502TIP3    H122997   4.426   0.293   1.515  0.2542  3.2138 -0.8146
  502TIP3    H222998   4.506   0.315   1.388 -2.2890 -1.3521 -3.4765
  503TIP3   OH222999   4.725   3.140   5.527  0.0825  0.1979 -0.4245
  503TIP3    H123000   4.738   3.174   5.438  1.6960 -1.0818 -0.7275
  503TIP3    H223001   4.640   3.096   5.524  0.1576  0.0936 -1.3611
  504TIP3   OH223002   3.729   6.434   2.261  0.1008 -0.0339 -0.8425
  504TIP3    H123003   3.705   6.525   2.242 -0.9757 -0.6538 -2.6967
  504TIP3    H223004   3.746   6.395   2.175  0.4941 -1.6086 -0.0886
  505TIP3   OH223005   3.350   3.828  14.872  0.2497  0.1510 -0.5125
  505TIP3    H123006   3.293   3.858  14.943  0.3287  2.2006 -1.2622
  505TIP3    H223007   3.294   3.830  14.794  0.9074  0.6071 -0.9783
  506TIP3   OH223008   0.504   4.358  14.266 -0.3090  0.6040 -0.2792
  506TIP3    H123009   0.555   4.428  14.306  1.0846 -1.3542  1.5848
  506TIP3    H223010   0.545   4.344  14.181  0.4164  0.9819  0.0018
  507TIP3   OH223011   4.644   5.031  12.180  0.6470  0.0350  0.4040
  507TIP3    H123012   4.662   4.995  12.267  2.5164  1.5564  0.7187
  507TIP3    H223013   4.569   5.089  12.193  0.9818  0.3364  1.0434
  508TIP3   OH223014   4.802   1.547   2.791 -0.7317 -0.0844  0.3715
  508TIP3    H123015   4.740   1.595   2.846 -0.1231  0.2966  0.7354
  508TIP3    H223016   4.782   1.455   2.807 -0.6697  0.0272  1.1030
  509TIP3   OH223017   4.772   1.928  14.496  0.6221  0.1379 -0.0796
  509TIP3    H123018   4.727   1.880  14.565  0.2514 -2.2393 -1.8272
  509TIP3    H223019   4.797   2.011  14.536 -1.3731 -0.2793  2.2606
  510TIP3   OH223020   2.526   4.452  16.611  0.0066  0.2095  0.3225
  510TIP3    H123021   2.515   4.357  16.621  1.8736  0.0462  1.1936
  510TIP3    H223022   2.592   4.461  16.542 -0.6923  0.9208 -0.2733
  511TIP3   OH223023   1.850   5.297   5.394 -0.0129 -0.0488  0.4084
  511TIP3    H123024   1.914   5.268   5.328 -0.9342 -1.5494  0.1090
  511TIP3    H223025   1.903   5.334   5.464  0.9707  2.7150 -1.6034
  512TIP3   OH223026   0.764   4.698   4.519  0.3151  0.0090  0.1737
  512TIP3    H123027   0.746   4.709   4.426 -2.1632 -0.0819  0.5645
  512TIP3    H223028   0.801   4.610   4.526 -1.4887 -0.8740 -0.5559
  513TIP3   OH223029   0.048   4.414  11.385 -0.0616 -0.4516  0.1690
  513TIP3    H123030   0.122   4.473  11.399  0.4718 -1.2923  0.9580
  513TIP3    H223031   0.082   4.345  11.329 -0.1080 -1.0785  0.8945
  514TIP3   OH223032   6.163   2.182  12.252 -0.2792 -0.2898  0.4346
  514TIP3    H123033   6.237   2.178  12.190  0.3188  1.7106  0.9607
  514TIP3    H223034   6.156   2.092  12.284  1.8251 -0.6009  0.2277
  515TIP3   OH223035   6.444   0.375  14.963  0.1688  0.7501 -0.0427
  515TIP3    H123036   6.382   0.400  14.896  1.0036 -1.8080 -1.9490
  515TIP3    H223037   6.426   0.282  14.979  1.8197  0.5938  1.2398
  516TIP3   OH223038   1.884   1.193  12.744  0.0551  0.0294 -0.2519
  516TIP3    H123039   1.804   1.184  12.797  0.4626  0.9177  0.5588
  516TIP3    H223040   1.856   1.174  12.655 -1.4957  2.0058 -0.2697
  517TIP3   OH223041   2.309   5.493   4.575 -0.1447  0.0836 -0.3956
  517TIP3    H123042   2.334   5.454   4.491  1.4714 -0.0784  0.1193
  517TIP3    H223043   2.294   5.585   4.555  1.5473  0.3345 -0.6684
  518TIP3   OH223044   4.556   1.279  10.567  0.2262 -0.2334 -0.0625
  518TIP3    H123045   4.555   1.372  10.589  0.5495 -0.2909  0.1979
  518TIP3    H223046   4.537   1.235  10.650  1.5755 -0.4577  0.1495
  519TIP3   OH223047   2.466   6.232   6.104 -0.7012 -0.0463 -0.0232
  519TIP3    H123048   2.386   6.284   6.092  0.0570  0.8504 -1.4659
  519TIP3    H223049   2.439   6.160   6.161 -1.8301  1.8007  1.9069
  520TIP3   OH223050   0.880   3.147   3.386 -0.3111 -0.4593  0.6011
  520TIP3    H123051   0.824   3.217   3.417 -0.5080 -0.9803  1.4506
  520TIP3    H223052   0.891   3.165   3.292 -2.2652 -0.5933  0.2979
  521TIP3   OH223053   0.283   1.451   4.940 -0.2476  0.1036 -0.1593
  521TIP3    H123054   0.349   1.405   4.890 -0.3181  0.1907 -0.3319
  521TIP3    H223055   0.224   1.488   4.875  0.0582  0.8169 -0.0349
  522TIP3   OH223056   1.028   6.287   4.106  0.2053 -0.2005 -0.1822
  522TIP3    H123057   1.063   6.280   4.195 -0.2624 -1.1401 -0.0586
  522TIP3    H223058   0.999   6.378   4.099  1.1279  0.1425  0.2829
  523TIP3   OH223059   2.487   3.567   1.939  0.0978 -0.6947 -0.4486
  523TIP3    H123060   2.527   3.639   1.988 -1.8534 -0.7052  1.2639
  523TIP3    H223061   2.560   3.528   1.891  1.8787  0.1439  1.4142
  524TIP3   OH223062   3.493   1.383  12.506 -0.1170 -0.1634 -0.2216
  524TIP3    H123063   3.439   1.324  12.454 -0.6801  0.3629 -0.2470
  524TIP3    H223064   3.509   1.336  12.588 -1.6831  0.1681  0.3052
  525TIP3   OH223065   3.583   5.202  15.408 -0.0865 -0.4163 -0.8026
  525TIP3    H123066   3.570   5.132  15.345  0.4654 -0.7681 -0.5298
  525TIP3    H223067   3.673   5.230  15.396  0.4440 -1.3602  0.6829
  526TIP3   OH223068   1.890   5.523   0.756 -0.4204 -0.2336 -0.1961
  526TIP3    H123069   1.851   5.591   0.810 -0.6674 -0.1000 -0.5364
  526TIP3    H223070   1.867   5.549   0.666  1.7993  0.7416 -0.5478
  527TIP3   OH223071   5.954   3.835  16.945  0.1277 -0.1765 -0.5232
  527TIP3    H123072   5.872   3.881  16.924 -0.0728 -0.8229 -1.1879
  527TIP3    H223073   5.999   3.894  17.005 -0.5359  0.4812 -0.6494
  528TIP3   OH223074   1.356   2.977   1.326  0.3651 -0.4098 -0.5857
  528TIP3    H123075   1.269   3.001   1.359  1.1129  1.5372  0.1274
  528TIP3    H223076   1.399   2.934   1.400 -0.1701 -1.9430 -1.1336
  529TIP3   OH223077   6.253   2.783   2.524 -0.1687  0.4416 -0.0748
  529TIP3    H123078   6.199   2.860   2.502  1.9060  1.7698 -0.7669
  529TIP3    H223079   6.280   2.748   2.440 -1.0640 -1.1016  0.2391
  530TIP3   OH223080   5.839   1.374   5.606  0.8750  0.0524  0.2791
  530TIP3    H123081   5.891   1.374   5.686  2.5154 -0.3984 -0.7303
  530TIP3    H223082   5.899   1.405   5.538  0.0316 -1.1185 -1.0756
  531TIP3   OH223083   2.883   2.150   2.477 -0.2026  0.8346 -0.1375
  531TIP3    H123084   2.973   2.134   2.448  0.1966  0.4373  1.2276
  531TIP3    H223085   2.874   2.097   2.556 -1.7378  0.6580 -0.4049
  532TIP3   OH223086   1.952   5.529  17.181 -0.5042 -0.7182 -0.2091
  532TIP3    H123087   1.949   5.505  17.274 -0.1419 -0.1458 -0.0405
  532TIP3    H223088   2.016   5.470  17.142 -0.4077 -0.7354 -0.0223
  533TIP3   OH223089   4.768   2.053  12.094 -0.0583 -0.2758 -0.1663
  533TIP3    H123090   4.728   1.966  12.098 -0.1922 -0.1817  0.8582
  533TIP3    H223091   4.785   2.076  12.185  1.4436  0.1102 -0.5050
  534TIP3   OH223092   6.747   2.495   0.508  0.4094 -0.1208 -0.1256
  534TIP3    H123093   6.825   2.469   0.460  0.3256 -0.8277  0.1059
  534TIP3    H223094   6.752   2.446   0.591  0.3641  0.7945  0.4317
  535TIP3   OH223095   4.761   4.651   4.555 -0.0920 -0.3383  0.0801
  535TIP3    H123096   4.820   4.627   4.484 -0.6474 -2.0440  0.1500
  535TIP3    H223097   4.818   4.669   4.630  0.4787  1.1706 -0.6704
  536TIP3   OH223098   6.713   5.091   3.190 -0.1524  0.4195 -0.7870
  536TIP3    H123099   6.674   5.152   3.128 -0.1922 -0.2687 -1.4488
  536TIP3    H223100   6.781   5.046   3.140 -0.7950 -0.7975 -0.6017
  537TIP3   OH223101   6.054   4.807  15.172  0.4905  0.2117  0.8263
  537TIP3    H123102   6.119   4.737  15.184  2.2358  1.2853 -1.4758
  537TIP3    H223103   6.087   4.879  15.225  0.4555  0.3333  0.6826
  538TIP3   OH223104   3.530   2.591  10.419  0.3052 -0.0735 -0.2524
  538TIP3    H123105   3.511   2.609  10.327  2.1188  1.7274 -0.3341
  538TIP3    H223106   3.501   2.501  10.432 -0.5619 -0.1643 -2.4035
  539TIP3   OH223107   3.675   5.145   1.419  0.3292 -0.2687  0.7461
  539TIP3    H123108   3.727   5.096   1.356  0.4485 -0.3681  0.9235
  539TIP3    H223109   3.668   5.088   1.495 -0.5877 -0.5285  0.4857
  540TIP3   OH223110   6.603   1.374  16.887 -0.0049  0.7720 -0.4076
  540TIP3    H123111   6.681   1.397  16.936 -0.6414  1.5471  0.2785
  540TIP3    H223112   6.574   1.291  16.925  0.5739  0.3956 -0.7836
  541TIP3   OH223113   0.607   5.353   4.138  0.0156 -0.7029 -0.4602
  541TIP3    H123114   0.671   5.309   4.083 -0.0077  0.7026 -1.6909
  541TIP3    H223115   0.546   5.284   4.164  1.1529 -1.7705 -0.5226
  542TIP3   OH223116   0.788   1.142  12.089 -0.4485  0.2552  0.6501
  542TIP3    H123117   0.755   1.193  12.163 -0.4973 -1.2974  1.7550
  542TIP3    H223118   0.859   1.090  12.126 -0.4661 -0.5501 -0.3968
  543TIP3   OH223119   3.170   0.465   3.712 -0.1014 -0.3015  0.8304
  543TIP3    H123120   3.255   0.478   3.753  0.7692 -2.4927 -0.1251
  543TIP3    H223121   3.107   0.494   3.778  1.3446  1.6045  1.4728
  544TIP3   OH223122   3.374   4.217   4.553  0.3199 -0.4329  0.2220
  544TIP3    H123123   3.461   4.196   4.519  1.2579  2.9284  0.1843
  544TIP3    H223124   3.386   4.222   4.648  0.2787  0.3490  0.1935
  545TIP3   OH223125   0.531   2.414   4.743 -0.3023 -0.1620 -0.1512
  545TIP3    H123126   0.461   2.469   4.707  0.4353 -0.3876 -2.0780
  545TIP3    H223127   0.609   2.440   4.694  0.1003 -2.8062 -1.0830
  546TIP3   OH223128   0.604   4.407  13.248 -0.9182 -0.2068  0.3413
  546TIP3    H123129   0.595   4.488  13.297  1.1619  1.0773 -1.1980
  546TIP3    H223130   0.679   4.362  13.289 -0.8334 -0.3883 -0.0031
  547TIP3   OH223131   4.190   4.057   4.309  0.3991  0.2835  0.7505
  547TIP3    H123132   4.101   4.035   4.339  0.1104 -0.3579 -0.4904
  547TIP3    H223133   4.246   4.036   4.384 -0.3696 -0.4958  1.1393
  548TIP3   OH223134   2.186   3.255  14.288  0.2541 -0.2368  0.4358
  548TIP3    H123135   2.139   3.282  14.367 -1.6824 -0.1549 -0.6867
  548TIP3    H223136   2.120   3.256  14.219  1.9165 -0.1837 -1.2340
  549TIP3   OH223137   6.080   2.388  13.286  0.4085 -0.5461  0.4633
  549TIP3    H123138   6.124   2.430  13.360 -0.9943 -0.8249  1.4999
  549TIP3    H223139   5.991   2.370  13.318 -0.3992 -0.2242 -1.4426
  550TIP3   OH223140   3.288   2.910  10.616 -0.4125 -0.1885 -0.1219
  550TIP3    H123141   3.214   2.907  10.555 -1.9249 -0.5546  1.6197
  550TIP3    H223142   3.273   2.990  10.667 -0.4933 -1.0645  1.2698
  551TIP3   OH223143   6.486   1.140  17.037 -0.3254  0.4981  0.3357
  551TIP3    H123144   6.508   1.048  17.025 -0.5558  0.3071  1.3189
  551TIP3    H223145   6.394   1.146  17.013 -0.8147  0.0952  1.9543
  552TIP3   OH223146   5.229   0.611  12.412  0.3138 -0.1314 -0.1621
  552TIP3    H123147   5.314   0.611  12.368  0.1319  0.4902 -0.5352
  552TIP3    H223148   5.185   0.689  12.378  0.3945  0.6923  1.5631
  553TIP3   OH223149   5.642   6.329  12.779  0.2730 -0.2252  0.3344
  553TIP3    H123150   5.640   6.300  12.871  0.5722 -0.4369  0.2782
  553TIP3    H223151   5.557   6.303  12.744  0.0549  0.0919  0.6223
  554TIP3   OH223152   4.907   5.857   3.425  0.1407 -0.0057 -0.3385
  554TIP3    H123153   4.828   5.901   3.459  0.6878 -0.5094  1.7775
  554TIP3    H223154   4.977   5.921   3.441  0.5265 -0.5564  0.2022
  555TIP3   OH223155   0.669   1.753   5.656 -0.1113  0.0440 -0.5753
  555TIP3    H123156   0.645   1.776   5.566  0.6676 -0.0154 -0.8080
  555TIP3    H223157   0.738   1.815   5.679  0.5250 -0.6900 -0.4521
  556TIP3   OH223158   4.093   6.304   1.711  0.1660 -0.2034  0.1064
  556TIP3    H123159   4.128   6.373   1.767 -0.3908  1.1990 -1.2179
  556TIP3    H223160   4.168   6.248   1.693  0.7696  0.3873  0.7197
  557TIP3   OH223161   5.211   0.563   6.601 -0.5416 -0.3594  0.0295
  557TIP3    H123162   5.121   0.547   6.630 -0.5813  0.0796  0.1576
  557TIP3    H223163   5.203   0.636   6.539 -0.1457  0.4003  0.8523
  558TIP3   OH223164   0.880   0.792  12.331 -0.3334 -0.2068  0.4677
  558TIP3    H123165   0.804   0.835  12.293  1.3963  0.2421 -2.8687
  558TIP3    H223166   0.929   0.863  12.373 -0.2469  0.1153 -0.1534
  559TIP3   OH223167   6.062   6.209   5.961  0.2621 -0.5186 -0.0416
  559TIP3    H123168   5.971   6.213   5.993  0.1989 -0.5315 -0.2208
  559TIP3    H223169   6.094   6.125   5.993  0.3467 -0.3327  0.3797
  560TIP3   OH223170   5.346   6.053  15.668 -0.3042 -0.5456 -0.4842
  560TIP3    H123171   5.275   6.116  15.653 -1.0527 -0.5545  2.3742
  560TIP3    H223172   5.305   5.967  15.654  0.4543 -0.5071 -3.4011
  561TIP3   OH223173   0.944   2.308   4.186  0.1719 -0.3606 -0.4167
  561TIP3    H123174   1.026   2.356   4.189  0.4504 -0.8412 -0.2769
  561TIP3    H223175   0.879   2.372   4.157  0.9451 -0.4584 -2.5005
  562TIP3   OH223176   4.493   4.157   0.235  0.1617  0.2606 -0.8124
  562TIP3    H123177   4.550   4.200   0.172  1.5563 -2.6405 -1.7133
  562TIP3    H223178   4.530   4.178   0.321 -0.4291  2.4094 -1.0234
  563TIP3   OH223179   2.041   0.609  12.167 -0.3660 -0.1454  0.0118
  563TIP3    H123180   2.011   0.523  12.196 -0.5776  0.4020  1.5073
  563TIP3    H223181   1.976   0.636  12.103 -0.8595 -0.6812  0.2753
  564TIP3   OH223182   3.510   4.789  15.283 -0.0987  0.6104  0.0511
  564TIP3    H123183   3.473   4.745  15.207 -0.2532  0.9788 -0.0893
  564TIP3    H223184   3.516   4.721  15.350  0.9678  0.0538 -0.6017
  565TIP3   OH223185   0.842   5.802  11.766  0.0957  0.2134  0.1326
  565TIP3    H123186   0.802   5.730  11.718  0.4588  0.6765 -0.8824
  565TIP3    H223187   0.771   5.836  11.821 -0.7012  0.4914 -1.0249
  566TIP3   OH223188   1.050   1.011  12.119 -0.1010 -0.0390  0.1683
  566TIP3    H123189   1.141   1.018  12.149  0.4497 -0.4744 -1.3013
  566TIP3    H223190   1.039   0.919  12.097 -0.1070  0.4088 -1.9319
  567TIP3   OH223191   0.708   5.709  14.757 -0.0116 -0.5365  0.4153
  567TIP3    H123192   0.746   5.796  14.772 -0.1801 -0.2490 -0.6944
  567TIP3    H223193   0.614   5.722  14.765 -0.1939 -0.1476 -1.6426
  568TIP3   OH223194   5.623   5.404  14.283  0.3950 -0.1963 -0.3995
  568TIP3    H123195   5.606   5.497  14.299  1.8777  0.3355 -1.6684
  568TIP3    H223196   5.595   5.390  14.192  2.0760 -0.4510 -0.9124
  569TIP3   OH223197   0.727   5.305   6.262  0.1790 -0.2518  0.3187
  569TIP3    H123198   0.762   5.363   6.195 -1.7941 -1.0084 -1.4936
  569TIP3    H223199   0.790   5.232   6.265  0.3979 -0.1147 -0.5840
  570TIP3   OH223200   2.160   4.020   1.521 -0.6158  0.0432  0.0962
  570TIP3    H123201   2.255   4.018   1.506 -0.4524 -0.0244  1.0698
  570TIP3    H223202   2.128   3.937   1.484 -0.4534  0.5012 -1.1297
  571TIP3   OH223203   6.004   4.384  10.164  0.0372  0.1425 -0.3616
  571TIP3    H123204   5.984   4.292  10.181  0.6031  0.1322  0.2666
  571TIP3    H223205   6.026   4.420  10.250 -0.1096  0.8463 -0.6168
  572TIP3   OH223206   3.081   5.945   4.814  0.4636  0.2641 -0.1174
  572TIP3    H123207   3.146   5.875   4.802  0.6397  0.4662 -0.3572
  572TIP3    H223208   3.133   6.024   4.825  0.3040  0.1454  1.6912
  573TIP3   OH223209   3.355   2.483  17.166 -0.5201  0.3291 -0.2028
  573TIP3    H123210   3.371   2.390  17.176  0.5584  0.5877  0.6745
  573TIP3    H223211   3.353   2.518  17.256  0.0035  1.2856 -0.5445
  574TIP3   OH223212   3.750   1.714   6.175 -0.1286 -0.1534 -0.5439
  574TIP3    H123213   3.731   1.637   6.122  0.0076 -0.9293  0.5104
  574TIP3    H223214   3.674   1.772   6.163  0.0426 -0.1640 -1.8177
  575TIP3   OH223215   0.402   4.288  15.850 -0.0429  0.0625  0.0251
  575TIP3    H123216   0.466   4.255  15.787 -0.4850  0.0105 -0.4081
  575TIP3    H223217   0.347   4.348  15.799 -2.6186 -2.5879 -0.6088
  576TIP3   OH223218   6.639   3.845  15.107 -0.1044 -0.2355 -0.7181
  576TIP3    H123219   6.676   3.866  15.193 -0.2973 -1.9750 -0.1624
  576TIP3    H223220   6.688   3.899  15.045  0.7848  0.2487  0.3741
  577TIP3   OH223221   1.188   1.883   2.833  0.5190  0.1889 -0.4631
  577TIP3    H123222   1.097   1.892   2.804 -0.0803  2.3669  1.7504
  577TIP3    H223223   1.231   1.962   2.802  1.3748 -0.2867 -0.5069
  578TIP3   OH223224   3.976   6.805   0.533 -0.1223  0.0241 -0.1352
  578TIP3    H123225   3.955   6.715   0.510  0.5042 -0.3892  0.8171
  578TIP3    H223226   4.026   6.798   0.615  0.9818  1.1408 -0.6748
  579TIP3   OH223227   3.447   5.669  12.020 -0.2955 -0.2704 -0.0202
  579TIP3    H123228   3.404   5.715  12.092  1.8274  1.1988  0.4270
  579TIP3    H223229   3.487   5.592  12.060  1.2635  0.7800  0.5583
  580TIP3   OH223230   3.681   0.015  13.852  0.0478 -0.5577  0.1017
  580TIP3    H123231   3.726   0.090  13.892 -0.2012 -0.4134  0.1116
  580TIP3    H223232   3.752  -0.044  13.825  0.2902  0.1838 -0.9057
  581TIP3   OH223233   5.724   3.698   0.383  0.0186  0.3703  0.5080
  581TIP3    H123234   5.652   3.683   0.323 -0.5491  0.9225  1.0364
  581TIP3    H223235   5.726   3.620   0.438 -0.4828  0.5584  0.7975
  582TIP3   OH223236   4.121   4.127   1.971 -0.0556 -0.2757  0.1840
  582TIP3    H123237   4.123   4.223   1.975 -1.7445 -0.1432 -0.9225
  582TIP3    H223238   4.211   4.100   1.987  0.8420  1.5885 -1.3186
  583TIP3   OH223239   6.051   0.534  15.507 -0.2131  0.2920  0.4138
  583TIP3    H123240   6.130   0.558  15.459  0.5497 -2.1267  0.3327
  583TIP3    H223241   6.070   0.558  15.598 -0.3055  1.7529  0.0709
  584TIP3   OH223242   5.169   3.460   2.201 -0.0356 -0.5507 -1.5599
  584TIP3    H123243   5.167   3.440   2.107  2.8626 -2.2075 -1.4008
  584TIP3    H223244   5.193   3.377   2.242  0.7709  0.6106  0.4360
  585TIP3   OH223245   1.285   6.497   5.313  0.5438  0.0329  0.0890
  585TIP3    H123246   1.350   6.475   5.380  0.0842 -0.0750  0.5071
  585TIP3    H223247   1.334   6.494   5.231  0.8274 -1.1629  0.2792
  586TIP3   OH223248   4.243   0.958  11.549  0.4785  0.0236 -0.3553
  586TIP3    H123249   4.232   1.051  11.567 -1.7687  0.7048 -4.1857
  586TIP3    H223250   4.165   0.917  11.587  0.7646 -0.1287  0.0856
  587TIP3   OH223251   2.603   3.618   1.372  0.3028 -0.0669  0.5146
  587TIP3    H123252   2.694   3.607   1.342  0.4227 -2.2406  1.4456
  587TIP3    H223253   2.611   3.670   1.452  0.5961  0.7360 -0.0269
  588TIP3   OH223254   2.570   2.003  11.870 -0.2050  0.4016 -0.1181
  588TIP3    H123255   2.607   2.027  11.955 -0.2662 -0.8436  0.2895
  588TIP3    H223256   2.521   2.081  11.842 -0.2793  0.8014  1.0424
  589TIP3   OH223257   4.140   6.744   0.769  0.3840  0.2792 -0.1420
  589TIP3    H123258   4.191   6.803   0.825 -1.4327  0.9196  0.8871
  589TIP3    H223259   4.163   6.656   0.800 -0.2984  0.6146  1.3532
  590TIP3   OH223260   5.331   3.936   3.602 -0.1244 -0.2459 -0.0487
  590TIP3    H123261   5.374   4.021   3.614 -1.5462  0.3989  0.7449
  590TIP3    H223262   5.304   3.935   3.511 -2.0381  1.1534  0.4454
  591TIP3   OH223263   6.152   6.623   2.276  0.2463 -0.3934  0.0106
  591TIP3    H123264   6.161   6.576   2.193 -1.2832 -0.7311  0.0075
  591TIP3    H223265   6.080   6.684   2.261 -0.3963 -0.8207  1.2424
  592TIP3   OH223266   5.650   6.114   2.217  0.0619 -0.1335  0.2205
  592TIP3    H123267   5.694   6.198   2.202  0.5390 -0.4251 -0.0514
  592TIP3    H223268   5.634   6.111   2.311 -1.9577  1.2368 -0.0149
  593TIP3   OH223269   1.990   0.518  16.389 -0.1946 -0.3190  0.0017
  593TIP3    H123270   1.932   0.443  16.374 -0.4718 -0.2664  0.7494
  593TIP3    H223271   2.059   0.509  16.323 -2.0833  0.7391 -2.2303
  594TIP3   OH223272   1.817   3.545  12.910 -0.5147 -0.0287 -0.3820
  594TIP3    H123273   1.805   3.494  12.991 -0.1363  0.1490 -0.2128
  594TIP3    H223274   1.797   3.635  12.936  0.4758  0.1705 -0.2591
  595TIP3   OH223275   6.658   6.677   0.941 -0.1639  0.1796  0.0040
  595TIP3    H123276   6.595   6.749   0.946 -3.0769 -2.1190 -0.9681
  595TIP3    H223277   6.674   6.653   1.033 -1.0945  0.5044  0.2577
  596TIP3   OH223278   5.341   0.693   5.814  0.1425  0.0928  0.0622
  596TIP3    H123279   5.291   0.637   5.755 -2.6055  0.4127  1.9069
  596TIP3    H223280   5.429   0.656   5.813 -0.4488 -1.4698 -2.1848
  597TIP3   OH223281   6.723   1.259  12.250  0.0329  0.4962  0.2147
  597TIP3    H123282   6.764   1.206  12.318 -2.6893 -3.0569 -0.5919
  597TIP3    H223283   6.632   1.268  12.278 -0.6086  0.9117 -1.7951
  598TIP3   OH223284   4.711   4.363  15.766 -0.0320  0.2046 -0.0506
  598TIP3    H123285   4.791   4.412  15.748 -0.5700  0.9763 -0.4096
  598TIP3    H223286   4.685   4.391  15.854 -0.7784  1.2021 -0.5747
  599TIP3   OH223287   2.536   1.144   2.263 -0.1418 -0.5800 -0.0043
  599TIP3    H123288   2.570   1.232   2.251 -1.6191  0.0531  0.2333
  599TIP3    H223289   2.598   1.102   2.322  0.8161  0.1478 -0.4657
  600TIP3   OH223290   6.172   4.523   0.526  0.1666 -0.3403  0.3768
  600TIP3    H123291   6.137   4.526   0.615 -0.8670 -0.3404 -0.0181
  600TIP3    H223292   6.096   4.508   0.470  0.7222  0.2135 -0.5681
  601TIP3   OH223293   3.193   3.398   2.100  0.1700  0.4478  0.1059
  601TIP3    H123294   3.184   3.345   2.020  0.1152  4.0038 -2.5107
  601TIP3    H223295   3.280   3.376   2.133  1.4953  0.8653 -2.7388
  602TIP3   OH223296   3.148   4.321  15.307  0.5855  0.5413  0.2981
  602TIP3    H123297   3.171   4.229  15.320  0.4089  0.0077 -2.6250
  602TIP3    H223298   3.056   4.320  15.283  0.4886  1.5313  0.5812
  603TIP3   OH223299   2.825   0.371  11.272  0.3975 -0.1911 -0.0156
  603TIP3    H123300   2.904   0.317  11.276 -1.0984 -2.5555 -0.7550
  603TIP3    H223301   2.799   0.369  11.180  0.1025  1.5999 -0.0193
  604TIP3   OH223302   6.524   5.782  13.832  0.1817  0.4818  0.2484
  604TIP3    H123303   6.500   5.795  13.924 -0.1059  0.6108  0.1560
  604TIP3    H223304   6.615   5.813  13.826  0.7767 -1.0715  0.8497
  605TIP3   OH223305   1.956   3.649  14.511 -0.0670 -0.1457  0.3957
  605TIP3    H123306   1.993   3.737  14.502  0.5316 -0.5565 -1.6795
  605TIP3    H223307   1.875   3.652  14.461  1.2142 -1.3956 -1.9181
  606TIP3   OH223308   5.121   5.589   3.247 -0.1303  0.3590  0.4205
  606TIP3    H123309   5.195   5.530   3.233 -0.1303  0.8004 -1.7888
  606TIP3    H223310   5.061   5.539   3.303  0.9361 -0.7711  0.6083
  607TIP3   OH223311   2.965   6.516  11.755  0.2728 -0.4544  0.1269
  607TIP3    H123312   3.030   6.547  11.691 -0.6401 -0.4939 -0.8317
  607TIP3    H223313   2.897   6.475  11.703 -0.0081 -1.4094  1.1984
  608TIP3   OH223314   3.190   4.885  17.003  0.0571  0.0594 -0.3518
  608TIP3    H123315   3.118   4.879  17.067 -0.1076  0.0429 -0.5363
  608TIP3    H223316   3.187   4.801  16.957  0.3455 -0.0347 -0.2055
  609TIP3   OH223317   1.131   0.781  14.621 -0.0655 -0.0965  0.4821
  609TIP3    H123318   1.112   0.710  14.559  1.5406 -0.8303  0.7924
  609TIP3    H223319   1.089   0.752  14.702  0.4054 -0.6100  0.5518
  610TIP3   OH223320   4.391   2.590  14.719 -0.2376  0.1316 -0.0310
  610TIP3    H123321   4.405   2.520  14.655  1.1591 -0.0179  0.4034
  610TIP3    H223322   4.332   2.651  14.675  1.8403  0.7931 -2.1200
  611TIP3   OH223323   0.647   4.037  11.860 -0.2573  0.5251 -0.0848
  611TIP3    H123324   0.693   4.040  11.776  0.4522  0.4784  0.2937
  611TIP3    H223325   0.633   4.129  11.882  2.1176  0.6775  1.0968
  612TIP3   OH223326   3.480   0.162  13.603 -0.1088 -0.0792  0.7707
  612TIP3    H123327   3.486   0.073  13.638  1.8002 -1.9227 -3.5261
  612TIP3    H223328   3.418   0.155  13.531  0.2396  2.0368  0.2166
  613TIP3   OH223329   6.247   3.615   3.775 -0.4626  0.3431 -0.0897
  613TIP3    H123330   6.163   3.573   3.759 -0.6633  1.1975 -1.4493
  613TIP3    H223331   6.228   3.685   3.838 -0.7655  0.5062 -0.3621
  614TIP3   OH223332   4.347   3.469   1.615 -0.3468  0.4208 -0.4573
  614TIP3    H123333   4.296   3.549   1.600  0.8984  1.8833  2.3178
  614TIP3    H223334   4.429   3.483   1.568  0.0225  1.0079  0.3296
  615TIP3   OH223335   2.789   6.642   2.495 -0.0522 -0.2624 -0.0590
  615TIP3    H123336   2.776   6.652   2.401 -0.1173 -2.1670 -0.2880
  615TIP3    H223337   2.800   6.732   2.528  0.8620  0.3725 -1.9996
  616TIP3   OH223338   0.969   6.245  16.632 -0.0663 -0.3646 -0.0030
  616TIP3    H123339   0.879   6.242  16.665 -0.1864  1.1765 -0.1071
  616TIP3    H223340   0.965   6.307  16.559  1.0858 -0.2750 -0.0006
  617TIP3   OH223341   0.598   1.337  16.116 -0.0650  0.4420 -0.1334
  617TIP3    H123342   0.505   1.311  16.117 -0.1583  0.7373 -0.6447
  617TIP3    H223343   0.638   1.284  16.185 -0.2521 -1.1177 -1.1610
  618TIP3   OH223344   5.816   2.682   5.498  0.0105  0.5849  0.2008
  618TIP3    H123345   5.789   2.645   5.414 -0.4999  0.5438  0.3822
  618TIP3    H223346   5.854   2.608   5.546  0.3641  0.6223 -0.0121
  619TIP3   OH223347   0.495   4.280   3.543 -0.1471  0.1054 -0.0019
  619TIP3    H123348   0.542   4.286   3.460 -0.9814  0.5894 -0.4470
  619TIP3    H223349   0.455   4.366   3.555 -4.1694 -1.2910 -1.6078
  620TIP3   OH223350   3.362   2.580  13.527  0.2796  0.1994  0.2307
  620TIP3    H123351   3.407   2.588  13.443 -0.1357  0.8469  0.0619
  620TIP3    H223352   3.308   2.502  13.519 -0.1787  0.5639 -0.3157
  621TIP3   OH223353   3.581   2.357   2.705  0.6206  0.3717 -0.0370
  621TIP3    H123354   3.536   2.390   2.782  1.7332 -0.4313  0.9975
  621TIP3    H223355   3.542   2.271   2.689  2.6005 -0.9574  1.7093
  622TIP3   OH223356   5.087   2.328   0.689 -0.0196  0.0296  0.4950
  622TIP3    H123357   5.148   2.392   0.725 -0.3115 -0.3566  1.7508
  622TIP3    H223358   5.078   2.262   0.758 -0.3794 -0.9253 -0.4325
  623TIP3   OH223359   4.608   2.334   0.393  0.3560 -0.3855  0.3998
  623TIP3    H123360   4.661   2.368   0.465 -0.4110  0.9340  0.3613
  623TIP3    H223361   4.600   2.240   0.413  1.2118 -0.2830  1.3408
  624TIP3   OH223362   1.899   2.758   4.783  0.4456 -0.6021  0.3782
  624TIP3    H123363   1.981   2.808   4.779  1.4266 -2.1496  0.3360
  624TIP3    H223364   1.913   2.695   4.854  1.1388 -3.9038 -2.4081
  625TIP3   OH223365   2.667   4.319  14.448 -0.0425  0.3109 -0.3259
  625TIP3    H123366   2.694   4.250  14.510  1.8975  3.2759  2.4586
  625TIP3    H223367   2.610   4.376  14.499  0.0549  1.8883 -1.8944
  626TIP3   OH223368   0.932   4.669  16.280 -0.1701  0.4271 -0.1912
  626TIP3    H123369   0.980   4.600  16.326 -1.0923 -0.3086 -0.2993
  626TIP3    H223370   0.984   4.748  16.295  0.5273 -0.1483  0.5434
  627TIP3   OH223371   3.341   1.494  10.911  0.0686  0.8568  0.0546
  627TIP3    H123372   3.254   1.534  10.921 -0.2596  0.0633  0.4762
  627TIP3    H223373   3.402   1.564  10.930 -0.4942  0.9306  1.7915
  628TIP3   OH223374   4.266   6.293  10.527 -0.0401 -0.1045  0.4131
  628TIP3    H123375   4.230   6.304  10.439 -0.2153 -0.6491  0.4121
  628TIP3    H223376   4.315   6.374  10.543  2.2558 -1.0655 -1.2600
  629TIP3   OH223377   6.471   0.745   3.682 -0.2555  0.2471  0.1841
  629TIP3    H123378   6.446   0.660   3.717 -1.0310  0.5004  0.2467
  629TIP3    H223379   6.561   0.758   3.712 -0.1284 -0.5508  0.1652
  630TIP3   OH223380   0.233   4.426  12.618 -0.0585  0.2714 -0.0777
  630TIP3    H123381   0.161   4.474  12.659 -0.2264  0.1861 -0.2704
  630TIP3    H223382   0.256   4.479  12.542 -0.4288 -0.0863 -0.4482
  631TIP3   OH223383   3.727   2.606   3.625 -0.0768 -0.5285 -0.7692
  631TIP3    H123384   3.676   2.527   3.604  0.8231 -0.8051 -2.0423
  631TIP3    H223385   3.797   2.575   3.683 -0.4691 -0.4197 -0.2297
  632TIP3   OH223386   5.282   5.718  16.640 -0.5283 -0.2181  0.6397
  632TIP3    H123387   5.259   5.695  16.730  0.7555  0.2002  1.0944
  632TIP3    H223388   5.322   5.804  16.647  0.3632 -0.5531 -0.2089
  633TIP3   OH223389   1.837   0.862   2.693 -0.6299 -0.1970  0.0571
  633TIP3    H123390   1.850   0.834   2.784  0.2672  1.3889  0.4407
  633TIP3    H223391   1.893   0.803   2.642 -0.0956 -0.2448  0.6785
  634TIP3   OH223392   3.919   0.909   4.230 -0.6123 -0.5667  0.1800
  634TIP3    H123393   3.982   0.855   4.277 -1.5337 -1.3700  0.5190
  634TIP3    H223394   3.906   0.985   4.287 -0.0670 -0.4685  0.1780
  635TIP3   OH223395   6.355   4.688  16.873  0.7785  0.3872 -0.4113
  635TIP3    H123396   6.386   4.658  16.788  0.6377  1.0703 -0.7174
  635TIP3    H223397   6.290   4.755  16.852 -0.4890 -0.6218  0.2272
  636TIP3   OH223398   0.567   5.570   0.301 -0.2188 -0.1741  0.0841
  636TIP3    H123399   0.592   5.478   0.296 -1.0723 -0.4270  0.2428
  636TIP3    H223400   0.498   5.580   0.236 -1.2327 -0.0316  1.1543
  637TIP3   OH223401   5.102   3.863   6.474 -0.2571  0.1092  0.0419
  637TIP3    H123402   5.116   3.827   6.386 -0.8081 -1.5438  0.5963
  637TIP3    H223403   5.190   3.877   6.508 -0.0387  0.4674 -0.6331
  638TIP3   OH223404   1.824   0.222   5.142 -0.5029  0.3203 -0.1552
  638TIP3    H123405   1.799   0.272   5.064  0.5522  2.3769  0.7357
  638TIP3    H223406   1.908   0.260   5.168  0.0060 -1.4979  0.9970
  639TIP3   OH223407   0.756   3.902   4.119 -0.6522  0.2337  0.1703
  639TIP3    H123408   0.841   3.859   4.131 -0.7207  0.6494  3.0174
  639TIP3    H223409   0.713   3.853   4.050  0.9567 -1.5494  0.3467
  640TIP3   OH223410   5.737   0.596   6.538 -0.3214 -0.0707 -0.3473
  640TIP3    H123411   5.817   0.601   6.590 -0.1666  1.5210 -0.6903
  640TIP3    H223412   5.733   0.505   6.509  2.2916  0.1294 -1.7329
  641TIP3   OH223413   4.208   6.058   2.078 -0.3069  0.5333  0.8723
  641TIP3    H123414   4.213   5.983   2.138  4.0059  1.1959  1.6516
  641TIP3    H223415   4.186   6.132   2.135  0.7839  0.6691  1.1409
  642TIP3   OH223416   6.081   0.629  17.004 -0.0010  0.8653 -0.0292
  642TIP3    H123417   6.078   0.558  17.068 -0.2936  0.9978  0.1041
  642TIP3    H223418   6.086   0.709  17.056 -0.8971  1.0093 -0.1532
  643TIP3   OH223419   4.774   0.269  14.254  0.3182  0.2161 -0.0599
  643TIP3    H123420   4.818   0.330  14.313 -0.8182  0.1609  0.8895
  643TIP3    H223421   4.706   0.320  14.212  1.0293  0.2147 -1.2503
  644TIP3   OH223422   3.506   3.446  13.283 -0.0403 -0.1971  0.2695
  644TIP3    H123423   3.554   3.423  13.204  0.1095 -0.3560  0.4055
  644TIP3    H223424   3.432   3.386  13.286 -0.0314 -0.2084  0.2633
  645TIP3   OH223425   6.524   2.223   6.286 -0.3670  0.0706  0.0073
  645TIP3    H123426   6.575   2.143   6.300  0.6640  0.6026 -0.5876
  645TIP3    H223427   6.450   2.195   6.232  0.8043 -0.2372 -1.5064
  646TIP3   OH223428   3.345   5.016  14.347 -0.2296 -0.5797  0.5759
  646TIP3    H123429   3.291   4.945  14.313 -1.7628  1.4482 -1.5276
  646TIP3    H223430   3.414   5.027  14.282 -1.5774  1.5446 -0.5856
  647TIP3   OH223431   1.454   3.821  15.988  0.3699  0.3851  0.7643
  647TIP3    H123432   1.523   3.773  16.034  0.4614 -1.3913 -1.0748
  647TIP3    H223433   1.378   3.814  16.046  0.0324 -3.1086  0.1541
  648TIP3   OH223434   4.245   3.684   1.420  0.2174 -0.0605  0.2488
  648TIP3    H123435   4.228   3.740   1.344  0.9454  1.3604  1.0870
  648TIP3    H223436   4.267   3.746   1.490  0.1380 -1.3698  1.4599
  649TIP3   OH223437   2.918   5.068   0.350 -0.3162  0.6200  0.0152
  649TIP3    H123438   2.934   4.981   0.312 -2.2999  0.6045 -0.9168
  649TIP3    H223439   2.947   5.059   0.441 -0.3007 -0.9617 -0.1024
  650TIP3   OH223440   1.152   3.342   6.008 -0.3346  0.1349  0.3038
  650TIP3    H123441   1.215   3.395   5.958 -0.8448  0.4140 -0.0448
  650TIP3    H223442   1.189   3.253   6.005 -0.4765  0.1010 -0.7735
  651TIP3   OH223443   2.094   2.923   2.642  0.1104  0.2109 -0.3125
  651TIP3    H123444   2.099   2.897   2.734  0.5285 -0.1499 -0.4393
  651TIP3    H223445   2.160   2.871   2.598 -1.2306 -0.8779 -1.1182
  652TIP3   OH223446   6.714   1.312   1.730 -0.2363  0.1080 -0.4843
  652TIP3    H123447   6.795   1.357   1.706 -0.5994  1.7243  1.1348
  652TIP3    H223448   6.732   1.220   1.711  1.6861  0.5191 -0.9054
  653TIP3   OH223449   2.330   0.182   1.681  0.0817 -0.3121  0.2446
  653TIP3    H123450   2.317   0.194   1.586 -2.3132 -1.2975  0.3597
  653TIP3    H223451   2.278   0.252   1.721  1.5837  0.4848  0.8757
  654TIP3   OH223452   6.597   3.663   3.060  0.1864 -0.2092 -0.2725
  654TIP3    H123453   6.549   3.597   3.110  0.6935 -0.4728 -0.1322
  654TIP3    H223454   6.571   3.747   3.099  0.8644 -0.4358  0.6827
  655TIP3   OH223455   6.304   2.500  13.172 -0.1870 -0.0080  0.2598
  655TIP3    H123456   6.331   2.462  13.089  0.1895 -0.1607  0.4520
  655TIP3    H223457   6.220   2.460  13.191 -0.2509 -0.0086 -0.0225
  656TIP3   OH223458   6.475   6.604   0.577  0.1349 -0.6082  0.5152
  656TIP3    H123459   6.473   6.697   0.553 -0.3416 -0.3590  1.4959
  656TIP3    H223460   6.435   6.600   0.664 -1.8812 -2.0136 -0.3908
  657TIP3   OH223461   4.592   1.916  16.461  0.6882 -0.1746  0.4814
  657TIP3    H123462   4.557   1.930  16.549  1.7979 -0.5337  1.0101
  657TIP3    H223463   4.516   1.915  16.404  0.0199  1.1817  1.2853
  658TIP3   OH223464   5.376   6.699   2.620 -0.5660 -0.1020 -0.0854
  658TIP3    H123465   5.336   6.736   2.699 -0.2995 -0.0666  0.0348
  658TIP3    H223466   5.466   6.680   2.646 -0.4334  0.0557 -0.4274
  659TIP3   OH223467   3.107   2.712   1.716 -0.0933 -0.7519 -0.4416
  659TIP3    H123468   3.060   2.746   1.639  0.0232  2.2767  0.6777
  659TIP3    H223469   3.068   2.626   1.732 -2.2676 -0.1689 -2.1017
  660TIP3   OH223470   3.649   0.449   6.318  1.0994 -0.8642 -0.4456
  660TIP3    H123471   3.717   0.428   6.383 -1.0236 -0.1162  2.1723
  660TIP3    H223472   3.593   0.372   6.316 -0.3882  0.1465  0.7332
  661TIP3   OH223473   1.904   1.632  12.190  0.0327 -0.1671  0.6056
  661TIP3    H123474   1.967   1.577  12.237 -0.1362 -1.8812 -1.0347
  661TIP3    H223475   1.922   1.614  12.098 -1.2692  1.1851  0.0635
  662TIP3   OH223476   0.484   1.643   3.937  0.5577  0.7729 -0.5077
  662TIP3    H123477   0.478   1.613   3.846 -0.1681 -1.1583  0.1087
  662TIP3    H223478   0.557   1.594   3.974  0.8840  1.5817 -0.0523
  663TIP3   OH223479   1.803   4.372   5.935  0.3164 -0.4333 -0.0983
  663TIP3    H123480   1.749   4.301   5.971 -1.0983  0.4764 -0.3717
  663TIP3    H223481   1.845   4.412   6.011  1.8718 -2.0895 -0.0022
  664TIP3   OH223482   1.164   0.912  13.711  0.3272 -0.1178  0.0514
  664TIP3    H123483   1.238   0.962  13.745  0.1154 -0.5347  1.1775
  664TIP3    H223484   1.091   0.936  13.769 -0.5145  0.5344 -1.2381
  665TIP3   OH223485   3.130   6.623  16.783  0.9732  0.6924 -0.1207
  665TIP3    H123486   3.146   6.578  16.700 -1.6104  0.3958 -0.5375
  665TIP3    H223487   3.053   6.579  16.820  2.6915  0.0458  3.0381
  666TIP3   OH223488   6.834   3.734  12.175 -0.0873  0.2207  0.1308
  666TIP3    H123489   6.875   3.788  12.108 -0.4511  0.2770 -0.0452
  666TIP3    H223490   6.811   3.796  12.245  0.0769  0.1962  0.2088
  667TIP3   OH223491   0.232   4.819  16.555 -0.1427  0.3097  0.6267
  667TIP3    H123492   0.137   4.825  16.544  0.0950  0.1938 -2.1871
  667TIP3    H223493   0.245   4.739  16.605 -1.4897 -0.4748 -0.2172
  668TIP3   OH223494   1.691   2.899  12.334  0.1247 -0.4511  0.0861
  668TIP3    H123495   1.670   2.935  12.248  0.8250  0.7743  0.4008
  668TIP3    H223496   1.608   2.902  12.382  0.4412  2.3351  0.6291
  669TIP3   OH223497   0.968   3.726  13.869 -0.1072  0.0469  0.6074
  669TIP3    H123498   0.891   3.744  13.923 -0.3643 -0.1100  0.2904
  669TIP3    H223499   0.938   3.663  13.804  0.2257  0.1756  0.3274
  670TIP3   OH223500   0.150   5.719   5.892 -0.3500 -0.1929  0.5365
  670TIP3    H123501   0.140   5.793   5.832  1.7152 -0.2905 -0.0380
  670TIP3    H223502   0.099   5.742   5.969  0.5780  2.0500  0.5494
  671TIP3   OH223503   6.339   4.046   3.119 -0.0236 -0.0008 -0.2887
  671TIP3    H123504   6.275   4.026   3.051 -0.1834 -3.3550  0.6543
  671TIP3    H223505   6.324   4.138   3.141 -3.7938 -0.3490 -0.8631
  672TIP3   OH223506   2.374   5.878   4.514  0.1304 -0.0813  0.4957
  672TIP3    H123507   2.316   5.857   4.440  0.2634  0.5130  0.2153
  672TIP3    H223508   2.329   5.842   4.590 -0.6113  0.3658  0.2852
  673TIP3   OH223509   0.456   0.931   3.445  0.0881 -0.3397  0.2525
  673TIP3    H123510   0.434   1.008   3.391  1.8927 -0.4065 -0.6371
  673TIP3    H223511   0.494   0.968   3.524  1.8703 -0.2725 -0.5869
  674TIP3   OH223512   6.032   6.665   0.968 -0.0088 -0.6537  0.1609
  674TIP3    H123513   6.064   6.596   0.909 -0.6524 -1.9290  1.2374
  674TIP3    H223514   5.995   6.731   0.909 -0.6427 -1.8839 -0.9020
  675TIP3   OH223515   4.099   6.759   2.686 -0.4940  0.3667 -0.0493
  675TIP3    H123516   4.102   6.670   2.652 -1.5092  0.2449  0.1414
  675TIP3    H223517   4.143   6.812   2.619 -0.5255 -0.1789 -0.5069
  676TIP3   OH223518   1.668   5.813  11.949  0.3621  0.4358 -0.1952
  676TIP3    H123519   1.617   5.831  12.028 -0.8127  1.6511 -1.1857
  676TIP3    H223520   1.645   5.723  11.925 -0.4368  0.5845 -0.0005
  677TIP3   OH223521   4.456   4.674  11.169  0.5032  0.0735  0.0220
  677TIP3    H123522   4.445   4.759  11.126 -0.6253 -0.2719 -0.4138
  677TIP3    H223523   4.401   4.679  11.247  0.1924 -0.3498 -0.1637
  678TIP3   OH223524   2.633   6.747  16.631  0.1454 -0.0337 -0.1909
  678TIP3    H123525   2.672   6.659  16.633  1.3804  0.4876  0.0295
  678TIP3    H223526   2.652   6.783  16.718 -1.1826  0.1194  0.0462
  679TIP3   OH223527   3.722   3.396  14.845  0.5022 -0.4798  0.2326
  679TIP3    H123528   3.680   3.482  14.846 -0.1867 -0.7979  2.0554
  679TIP3    H223529   3.743   3.381  14.753 -0.7371  0.9713 -0.3289
  680TIP3   OH223530   5.812   2.035  13.283 -0.2554 -0.0436 -0.1746
  680TIP3    H123531   5.840   2.124  13.308  0.4067 -0.2857 -0.0189
  680TIP3    H223532   5.736   2.048  13.228  0.5969  0.6911 -1.2158
  681TIP3   OH223533   0.868   0.674   6.444 -0.3005 -0.9696  0.0209
  681TIP3    H123534   0.794   0.623   6.477 -1.4759 -1.6551 -3.2913
  681TIP3    H223535   0.886   0.738   6.513 -1.8132 -2.8562  2.3273
  682TIP3   OH223536   0.454   3.674   0.672 -0.0696  0.0536 -0.5125
  682TIP3    H123537   0.525   3.737   0.673  0.0797 -0.1144  0.6828
  682TIP3    H223538   0.390   3.709   0.734  0.4080 -1.3698  0.8520
  683TIP3   OH223539   0.005   5.804  12.272 -0.1179 -0.1416 -0.2323
  683TIP3    H123540   0.041   5.719  12.246 -1.7802 -1.1998  0.7860
  683TIP3    H223541   0.057   5.830  12.348  0.3159 -0.2821 -0.4735
  684TIP3   OH223542   6.627   1.601   5.666 -0.6167  0.3618  0.1326
  684TIP3    H123543   6.623   1.525   5.608 -0.2693  0.7249 -0.3822
  684TIP3    H223544   6.721   1.615   5.680 -0.5956  1.7405 -1.1953
  685TIP3   OH223545   2.774   2.899   5.421  0.2850 -0.2809  0.0062
  685TIP3    H123546   2.858   2.944   5.434  0.0221  0.0913  0.4157
  685TIP3    H223547   2.709   2.958   5.458 -0.0560 -1.0242  0.6198
  686TIP3   OH223548   0.083   1.581  15.970 -0.6911  0.5822  0.0228
  686TIP3    H123549   0.007   1.638  15.958  1.2133  3.1701 -0.6271
  686TIP3    H223550   0.153   1.622  15.919  2.4519  1.0207  4.1194
  687TIP3   OH223551   1.474   3.527  13.958 -0.0680 -0.4187  0.5704
  687TIP3    H123552   1.531   3.463  14.000 -0.9791 -1.7286 -0.1342
  687TIP3    H223553   1.527   3.563  13.887  0.1567 -1.0251  0.4256
  688TIP3   OH223554   4.937   0.260  11.365  0.7694  0.2605  0.4120
  688TIP3    H123555   4.913   0.281  11.456  0.2682  0.7329  0.1751
  688TIP3    H223556   4.954   0.166  11.367 -0.1608  0.0783  0.8103
  689TIP3   OH223557   3.825   6.309   4.725  0.6207 -1.0035  0.3911
  689TIP3    H123558   3.802   6.342   4.812 -1.4527 -0.3041 -0.3696
  689TIP3    H223559   3.920   6.315   4.722  0.5693  3.5980  0.9144
  690TIP3   OH223560   5.698   5.122  11.787  0.6989  0.0005  0.5050
  690TIP3    H123561   5.768   5.136  11.723 -1.9103  0.9279 -2.3489
  690TIP3    H223562   5.694   5.204  11.837  1.4626  0.0166  0.5483
  691TIP3   OH223563   0.173   0.186  15.589 -0.2792 -0.4381  0.0533
  691TIP3    H123564   0.169   0.241  15.511  0.5510  1.2831  1.1567
  691TIP3    H223565   0.169   0.248  15.662  2.6744 -1.5854  1.3806
  692TIP3   OH223566   2.325   2.982   4.583 -0.0977 -0.3122  0.2832
  692TIP3    H123567   2.347   2.891   4.562 -0.1057  0.0908 -1.7362
  692TIP3    H223568   2.374   3.001   4.663  0.9097 -1.7117  0.0366
  693TIP3   OH223569   2.054   3.832  17.093  0.2793 -0.0675  0.3308
  693TIP3    H123570   1.966   3.800  17.076  1.1124 -1.4887 -1.6569
  693TIP3    H223571   2.043   3.925  17.112 -1.6356 -0.2456  0.2300
  694TIP3   OH223572   3.168   3.818   5.878  0.2399  0.1989 -0.0156
  694TIP3    H123573   3.100   3.872   5.918  0.7001  1.7328 -1.1875
  694TIP3    H223574   3.221   3.788   5.952  0.6337  2.3437  0.6574
  695TIP3   OH223575   6.346   3.297   0.355 -0.6520  0.0353  0.7242
  695TIP3    H123576   6.406   3.228   0.329 -0.3866 -0.0751  1.6068
  695TIP3    H223577   6.401   3.375   0.363 -1.1046  0.6068 -1.2231
  696TIP3   OH223578   4.081   0.764  16.283 -0.1282 -0.2156 -0.9965
  696TIP3    H123579   4.172   0.772  16.311 -0.2010 -0.5147 -0.6740
  696TIP3    H223580   4.080   0.689  16.225 -0.1555 -0.1642 -1.0627
  697TIP3   OH223581   5.376   3.380   5.294  0.3948 -0.2378  0.2489
  697TIP3    H123582   5.340   3.451   5.240  0.2690 -1.4873 -1.4010
  697TIP3    H223583   5.309   3.312   5.291  0.7237 -0.6218  1.3974
  698TIP3   OH223584   0.023   5.845  16.151 -0.0453  0.4505 -0.2798
  698TIP3    H123585  -0.015   5.829  16.237 -1.8616  2.4932 -0.6267
  698TIP3    H223586   0.043   5.757  16.117 -0.7259 -0.4687  1.5697
  699TIP3   OH223587   5.639   3.469  14.403  0.1826 -1.0108 -0.2381
  699TIP3    H123588   5.611   3.536  14.341  0.5333 -0.9782 -0.3605
  699TIP3    H223589   5.584   3.483  14.481  2.5674  1.6938  1.1624
  700TIP3   OH223590   4.943   6.098   1.977  0.1986 -0.1796 -0.6677
  700TIP3    H123591   4.870   6.157   1.995 -0.1815 -0.3142 -1.6740
  700TIP3    H223592   5.018   6.156   1.964  0.3917 -0.0637  0.8202
  701TIP3   OH223593   6.425   3.918  11.082 -0.2400  0.4346 -0.3367
  701TIP3    H123594   6.347   3.940  11.132  0.1313 -0.9181  0.8742
  701TIP3    H223595   6.393   3.873  11.004 -0.7372  1.4675 -0.7573
  702TIP3   OH223596   4.893   1.816  13.180 -0.0516 -0.4455  0.3427
  702TIP3    H123597   4.967   1.777  13.227  2.7465 -1.0375 -3.9487
  702TIP3    H223598   4.829   1.746  13.173 -0.8434 -0.1631  3.4850
  703TIP3   OH223599   2.211   6.793   1.886  0.3361  0.4641 -0.4429
  703TIP3    H123600   2.285   6.854   1.884  1.7009 -1.0446  0.9797
  703TIP3    H223601   2.251   6.708   1.906 -1.6223 -0.7163 -1.2322
  704TIP3   OH223602   6.207   4.249   5.507  0.2853  0.4062 -0.4117
  704TIP3    H123603   6.156   4.246   5.589  2.7619  1.5564  1.2917
  704TIP3    H223604   6.249   4.163   5.502 -0.1704  0.1978 -0.6948
  705TIP3   OH223605   1.666   5.303  14.851  0.0822 -0.0908  0.2413
  705TIP3    H123606   1.596   5.238  14.863  0.2222 -0.2517  0.1877
  705TIP3    H223607   1.665   5.354  14.932 -0.3456  0.1485  0.0931
  706TIP3   OH223608   3.604   4.215  11.896  0.4209  1.0007 -0.0236
  706TIP3    H123609   3.565   4.279  11.955 -0.9842  0.6933 -0.5838
  706TIP3    H223610   3.530   4.177  11.849  1.2510 -0.7472 -0.0033
  707TIP3   OH223611   0.530   5.321   2.249 -0.0129 -0.7074  0.2366
  707TIP3    H123612   0.517   5.416   2.245  3.3154 -0.1105  0.8203
  707TIP3    H223613   0.441   5.285   2.248 -1.4669  2.4453  1.4418
  708TIP3   OH223614   0.185   5.133  11.595  0.9777 -0.0738 -0.7755
  708TIP3    H123615   0.102   5.088  11.610  1.0840 -1.5170 -3.8202
  708TIP3    H223616   0.223   5.141  11.682 -0.5413 -3.0446  0.3266
  709TIP3   OH223617   1.097   5.052  10.969 -0.1983 -0.1923 -0.4567
  709TIP3    H123618   1.075   4.961  10.989  1.0266 -0.5585 -0.6259
  709TIP3    H223619   1.193   5.054  10.974 -0.2659  1.4670  1.0759
  710TIP3   OH223620   0.215   0.788   3.196  0.1327  0.3032 -0.2964
  710TIP3    H123621   0.279   0.739   3.145  1.2959  1.1680  0.2826
  710TIP3    H223622   0.227   0.757   3.286 -0.7593 -0.0217 -0.2741
  711TIP3   OH223623   4.541   2.525   2.188  0.0421 -0.1743 -0.0001
  711TIP3    H123624   4.505   2.516   2.276  0.0934  1.6947  0.2530
  711TIP3    H223625   4.617   2.582   2.199 -1.2306  1.9594 -1.5024
  712TIP3   OH223626   1.704   0.434   0.792  0.6731  0.3632  0.3203
  712TIP3    H123627   1.617   0.444   0.753  1.1262 -0.9374 -1.1350
  712TIP3    H223628   1.710   0.504   0.858 -1.3522  0.6357  0.2581
  713TIP3   OH223629   4.245   2.298   4.798  0.3311  0.1191 -0.3531
  713TIP3    H123630   4.180   2.342   4.853 -0.6982 -1.3414 -0.3511
  713TIP3    H223631   4.245   2.208   4.829  0.4154 -0.5198 -2.1212
  714TIP3   OH223632   6.091   1.959   5.736  0.1115  0.2481 -0.0767
  714TIP3    H123633   6.165   1.900   5.751 -0.3850 -0.1816  0.7410
  714TIP3    H223634   6.096   2.022   5.807 -0.4446  0.0770  0.1152
  715TIP3   OH223635   0.128   3.997   4.436  0.0800 -0.6952 -0.2219
  715TIP3    H123636   0.120   4.043   4.520 -1.0702  1.1282 -1.2747
  715TIP3    H223637   0.167   4.062   4.377  1.5007 -2.1682 -0.9729
  716TIP3   OH223638   6.477   0.919  11.856  0.7018  0.0174  0.3375
  716TIP3    H123639   6.461   0.845  11.798 -2.6488  0.1535  0.9001
  716TIP3    H223640   6.521   0.984  11.800  1.9835 -1.6203 -0.6539
  717TIP3   OH223641   2.000   5.019  11.046 -0.2763  0.5548  0.4873
  717TIP3    H123642   2.071   4.972  11.090  0.1986  0.1085 -0.7019
  717TIP3    H223643   2.022   5.111  11.054  0.8828  0.3877 -0.5602
  718TIP3   OH223644   2.393   3.768   1.299 -1.0151  0.3535 -0.1397
  718TIP3    H123645   2.453   3.693   1.305 -2.1807 -0.5575  0.5996
  718TIP3    H223646   2.396   3.793   1.206  0.8639  0.6697 -0.0459
  719TIP3   OH223647   5.649   0.591   0.008 -0.0411  0.1008  0.0535
  719TIP3    H123648   5.639   0.660  -0.057  0.5649  0.5532  0.4227
  719TIP3    H223649   5.568   0.592   0.058 -0.5498 -0.3131 -0.7486
  720TIP3   OH223650   1.954   2.971  12.333 -0.2057 -0.0299 -0.0395
  720TIP3    H123651   1.950   3.049  12.277  1.1274 -0.6847 -1.1168
  720TIP3    H223652   1.863   2.942  12.340 -0.6982  1.4701  0.1970
  721TIP3   OH223653   0.387   5.258  14.579  0.1902 -0.0301 -0.5545
  721TIP3    H123654   0.371   5.181  14.633 -2.4035  0.9535  0.2405
  721TIP3    H223655   0.316   5.318  14.601  1.7191  2.3524 -1.6169
  722TIP3   OH223656   2.691   2.102   1.542 -0.2265 -0.3693  0.4248
  722TIP3    H123657   2.723   2.096   1.632 -0.5436  1.6536  0.7307
  722TIP3    H223658   2.606   2.145   1.550 -0.3762 -0.3929 -0.8330
  723TIP3   OH223659   6.650   4.455   4.115  0.0058  0.2242 -0.3089
  723TIP3    H123660   6.679   4.401   4.042  2.3038  0.3888  0.4073
  723TIP3    H223661   6.634   4.541   4.077  1.8916  0.5053 -0.5704
  724TIP3   OH223662   2.208   6.736  13.238  0.2838  0.5475 -0.0754
  724TIP3    H123663   2.227   6.737  13.332 -0.4907 -0.7076  0.1203
  724TIP3    H223664   2.293   6.752  13.196  1.3575 -2.2611  0.7930
  725TIP3   OH223665   3.391   2.057  16.354 -0.6753 -0.2204 -0.1195
  725TIP3    H123666   3.419   2.143  16.324 -0.4782  0.0504  0.8185
  725TIP3    H223667   3.345   2.020  16.279 -0.0002  0.3397 -0.8314
  726TIP3   OH223668   0.833   5.834  16.854 -0.0309  0.3255  0.0342
  726TIP3    H123669   0.913   5.884  16.838 -0.5980  2.0668  2.0892
  726TIP3    H223670   0.863   5.744  16.868  1.2416  0.4086 -1.8319
  727TIP3   OH223671   5.411   0.647  11.019  0.3056  0.2514 -0.1870
  727TIP3    H123672   5.408   0.598  10.937  1.6575  0.6602 -0.5160
  727TIP3    H223673   5.492   0.618  11.061 -1.0438 -1.0051  1.7185
  728TIP3   OH223674   3.300   6.601   0.335 -0.5875 -0.1920 -0.6009
  728TIP3    H123675   3.287   6.689   0.300 -2.2467 -0.0208  0.3756
  728TIP3    H223676   3.268   6.605   0.425 -0.0891 -1.6373 -0.3262
  729TIP3   OH223677   3.632   5.022  15.205  0.1722 -0.0140  0.2019
  729TIP3    H123678   3.594   4.940  15.237 -1.8365  1.3242  1.4041
  729TIP3    H223679   3.696   4.994  15.140 -1.6953 -2.4717 -0.7215
  730TIP3   OH223680   1.480   2.839  15.528  0.6812  0.0861  0.5722
  730TIP3    H123681   1.468   2.762  15.585 -1.9974 -0.4465 -0.5515
  730TIP3    H223682   1.570   2.831  15.496  1.4037 -0.9980  2.6852
  731TIP3   OH223683   3.116   1.199   4.327 -0.2337  0.7689 -0.1662
  731TIP3    H123684   3.175   1.128   4.301 -0.2781 -0.1661  2.0569
  731TIP3    H223685   3.039   1.154   4.362 -0.8283  1.9395  0.0766
  732TIP3   OH223686   4.882   6.765  15.212 -0.6102 -0.6398 -0.2647
  732TIP3    H123687   4.818   6.790  15.146  0.8172  1.7265 -0.8891
  732TIP3    H223688   4.847   6.800  15.294 -0.4904 -0.0094 -0.4776
  733TIP3   OH223689   3.841   0.055   5.837  0.1802 -0.8479  0.2535
  733TIP3    H123690   3.794   0.107   5.902  0.2275 -1.0071  0.4165
  733TIP3    H223691   3.933   0.060   5.864  0.2082 -0.8626  0.1617
  734TIP3   OH223692   1.414   0.702  16.761 -0.5102  0.7607  0.3902
  734TIP3    H123693   1.355   0.661  16.824 -0.5812  0.1580 -0.0593
  734TIP3    H223694   1.393   0.659  16.678 -0.7438  1.8765 -0.1371
  735TIP3   OH223695   5.478   4.030   2.431  0.3639 -0.3077  0.4136
  735TIP3    H123696   5.474   4.125   2.419  1.3812 -0.2225  0.6450
  735TIP3    H223697   5.511   4.018   2.520  0.5783 -0.8676  0.2664
  736TIP3   OH223698   3.280   1.658   0.254  0.5234  0.1348 -0.4043
  736TIP3    H123699   3.365   1.642   0.214  2.2117  1.2140  2.4114
  736TIP3    H223700   3.276   1.596   0.327 -1.2382 -0.0568 -0.6224
  737TIP3   OH223701   2.189   6.324   4.770  0.5436  0.2564  0.4675
  737TIP3    H123702   2.218   6.262   4.703  0.2687  1.2350 -0.5969
  737TIP3    H223703   2.269   6.359   4.807  0.7564  1.1810 -0.7835
  738TIP3   OH223704   0.298   6.287   3.732  0.1306 -0.3945  0.1455
  738TIP3    H123705   0.384   6.302   3.695 -0.2792  0.2355 -0.5812
  738TIP3    H223706   0.306   6.203   3.778 -0.2147 -3.3359 -4.4487
  739TIP3   OH223707   4.347   5.253   3.976 -0.0088  0.2499 -0.8632
  739TIP3    H123708   4.422   5.217   3.929  0.0242  0.1281 -0.7164
  739TIP3    H223709   4.349   5.347   3.957  0.3551  0.2915 -0.6139
  740TIP3   OH223710   2.021   0.762   2.917 -0.1185 -0.1638 -0.0938
  740TIP3    H123711   1.958   0.773   2.987 -0.5566  0.3593 -0.5602
  740TIP3    H223712   2.068   0.681   2.939  0.2329  0.3708  1.1540
  741TIP3   OH223713   0.994   5.618   4.231 -0.5974 -0.1157  0.4389
  741TIP3    H123714   0.910   5.584   4.261  0.0798 -1.9410  0.4107
  741TIP3    H223715   1.052   5.542   4.231  0.9912  1.0442  0.1980
  742TIP3   OH223716   5.522   3.137   5.007 -0.2517  0.2777 -0.5030
  742TIP3    H123717   5.492   3.214   4.959  0.5954 -0.3853 -2.1760
  742TIP3    H223718   5.610   3.160   5.038 -0.5578  0.4836  0.2350
  743TIP3   OH223719   4.477   0.861  11.581  0.0916 -0.6334 -0.7131
  743TIP3    H123720   4.393   0.895  11.548 -0.0378 -0.0639  0.1661
  743TIP3    H223721   4.460   0.844  11.674  1.2547  0.5088 -0.2714
  744TIP3   OH223722   4.899   3.898  14.370 -0.0894  0.0007 -0.2125
  744TIP3    H123723   4.956   3.920  14.443  3.6205 -3.7201 -1.5500
  744TIP3    H223724   4.816   3.871  14.410  0.9509  0.4068  2.3530
  745TIP3   OH223725   0.967   5.196  11.195 -0.2946  0.2192  0.2302
  745TIP3    H123726   1.012   5.116  11.166 -0.9701  0.1566 -0.6700
  745TIP3    H223727   0.994   5.263  11.133 -0.7982  0.3773  0.1793
  746TIP3   OH223728   0.739   6.324   1.722  0.3972  0.2597  0.1895
  746TIP3    H123729   0.647   6.327   1.749  0.1404  0.5075 -0.6693
  746TIP3    H223730   0.788   6.325   1.804 -0.3946 -2.5960  0.8133
  747TIP3   OH223731   5.916   0.506   5.341 -0.1535 -0.0974  0.2400
  747TIP3    H123732   5.933   0.581   5.284 -1.6428 -0.1653 -0.3499
  747TIP3    H223733   6.003   0.474   5.365  0.5078  0.8643 -0.7617
  748TIP3   OH223734   5.034   2.828   4.629 -0.2799 -0.1476  0.5018
  748TIP3    H123735   5.076   2.889   4.690 -0.4617  2.2511 -1.5641
  748TIP3    H223736   5.018   2.881   4.550 -1.4970 -2.6315 -1.0519
  749TIP3   OH223737   6.605   1.353   3.948  0.5359  0.4356  0.3558
  749TIP3    H123738   6.585   1.315   4.034 -0.4368  1.0407  0.4223
  749TIP3    H223739   6.624   1.278   3.892  0.0481 -0.0490  0.8228
  750TIP3   OH223740   3.457   4.342   5.696 -0.1062  0.6602  0.0352
  750TIP3    H123741   3.467   4.403   5.623  1.5705 -1.9956 -2.1773
  750TIP3    H223742   3.383   4.286   5.670  0.4022 -0.2120  0.4156
  751TIP3   OH223743   2.454   0.834   1.454  0.1521 -0.2399  0.0080
  751TIP3    H123744   2.440   0.772   1.526  0.8744  0.3974  0.7163
  751TIP3    H223745   2.546   0.857   1.460 -0.2644  1.4947  0.2452
  752TIP3   OH223746   0.120   0.483   1.543  0.1964 -0.0427 -0.0645
  752TIP3    H123747   0.149   0.483   1.452 -1.0450  0.2311 -0.4753
  752TIP3    H223748   0.172   0.415   1.585  0.0028 -0.9347 -1.2399
  753TIP3   OH223749   0.691   4.297  16.100 -0.1555  0.1689  0.3971
  753TIP3    H123750   0.652   4.289  16.013  2.6622  0.2052 -0.9736
  753TIP3    H223751   0.762   4.233  16.101  0.2186  0.5447  2.4846
  754TIP3   OH223752   1.163   3.338  16.843 -0.2303  0.4007  0.1024
  754TIP3    H123753   1.135   3.342  16.751  1.1860  0.1702 -0.3627
  754TIP3    H223754   1.215   3.417  16.856 -0.0700  0.2190  0.5845
  755TIP3   OH223755   4.231   6.662   5.412 -0.4607  0.3663 -0.1069
  755TIP3    H123756   4.164   6.729   5.429  0.0118  0.7938  0.1020
  755TIP3    H223757   4.220   6.640   5.319 -0.9363  0.3804 -0.0561
  756TIP3   OH223758   6.447   5.405  15.608 -0.3403  0.4375  0.1763
  756TIP3    H123759   6.424   5.417  15.516  0.3462  2.0526  0.1857
  756TIP3    H223760   6.400   5.326  15.634 -1.7284  0.7760 -1.1583
  757TIP3   OH223761   3.710   5.356   3.448 -0.0422 -0.9509 -0.6779
  757TIP3    H123762   3.803   5.336   3.459  0.7316  1.7209 -1.6375
  757TIP3    H223763   3.685   5.312   3.367  0.8999 -0.2190 -1.3914
  758TIP3   OH223764   0.181   6.566  17.157 -0.3082  0.3010 -0.1327
  758TIP3    H123765   0.206   6.520  17.076  1.6730 -0.0575  0.6315
  758TIP3    H223766   0.110   6.514  17.192  0.5475 -1.0653 -0.3344
  759TIP3   OH223767   1.074   3.601  13.232  0.0033  0.0886 -0.9356
  759TIP3    H123768   1.007   3.666  13.215 -0.7291 -0.6439 -0.8869
  759TIP3    H223769   1.028   3.527  13.270  0.7796 -0.5673 -1.2241
  760TIP3   OH223770   6.660   0.239  15.688 -0.2427  0.4490 -0.3543
  760TIP3    H123771   6.571   0.262  15.712 -0.6160 -0.4551 -0.8189
  760TIP3    H223772   6.714   0.276  15.758 -0.9369  1.3212 -0.2603
  761TIP3   OH223773   4.222   4.383  10.819 -0.4751  0.3318  0.1642
  761TIP3    H123774   4.155   4.422  10.875 -0.7694 -0.0082  0.0505
  761TIP3    H223775   4.297   4.371  10.878 -0.5232  0.6847  0.3000
  762TIP3   OH223776   0.358   4.316  15.092 -0.0563  0.3791  0.0709
  762TIP3    H123777   0.318   4.249  15.147 -0.7225  1.0926  0.4650
  762TIP3    H223778   0.388   4.383  15.154  0.6642  0.4201 -0.3121
  763TIP3   OH223779   2.552   2.196  10.209  0.3974 -0.2005 -0.6331
  763TIP3    H123780   2.517   2.147  10.283  0.6362 -0.5326 -0.7352
  763TIP3    H223781   2.476   2.239  10.170  0.3467  0.3777  0.0983
  764TIP3   OH223782   6.183   3.055  14.174 -0.2313 -0.0209  0.0179
  764TIP3    H123783   6.109   3.094  14.219 -1.0326  0.1499 -1.3887
  764TIP3    H223784   6.249   3.042  14.242 -1.8352 -0.9338  1.4657
  765TIP3   OH223785   6.263   4.441  14.449 -0.5126 -0.1640 -0.0454
  765TIP3    H123786   6.345   4.410  14.487 -0.4179 -2.1912 -1.7640
  765TIP3    H223787   6.195   4.393  14.497 -0.5175 -0.8092 -0.6850
  766TIP3   OH223788   4.442   5.223  11.543 -0.4854  0.6625 -0.2006
  766TIP3    H123789   4.404   5.224  11.454 -0.3309 -0.0140 -0.2756
  766TIP3    H223790   4.372   5.187  11.598 -0.0312 -0.4223 -0.3104
  767TIP3   OH223791   6.497   6.058  13.490 -0.0073  0.6335  0.5118
  767TIP3    H123792   6.497   6.144  13.533 -0.6845  1.4760 -1.0901
  767TIP3    H223793   6.450   6.001  13.551  0.9572  1.2140  1.8765
  768TIP3   OH223794   4.354   4.177  11.415  0.1753  0.1166 -0.0126
  768TIP3    H123795   4.273   4.171  11.466 -0.5912  1.7618 -0.9463
  768TIP3    H223796   4.424   4.174  11.480 -0.7250  0.5773  1.0060
  769TIP3   OH223797   0.839   5.843   5.470 -0.5363  0.2362 -0.2816
  769TIP3    H123798   0.785   5.816   5.396  1.1509 -2.3225 -0.7249
  769TIP3    H223799   0.923   5.869   5.431 -0.1111  0.2983  0.6342
  770TIP3   OH223800   5.411   6.719  13.948 -0.6458  0.3868 -0.4503
  770TIP3    H123801   5.448   6.718  13.860  1.3470  0.4146  0.3285
  770TIP3    H223802   5.370   6.633  13.957 -1.5034  0.6463 -1.6226
  771TIP3   OH223803   6.437   6.496   5.715 -0.3152 -0.3761  0.0468
  771TIP3    H123804   6.411   6.533   5.800 -2.2021 -0.7038 -0.3419
  771TIP3    H223805   6.380   6.540   5.652  1.5690  0.4011 -1.1764
  772TIP3   OH223806   5.959   5.943  11.153  0.1598 -0.2973 -0.4625
  772TIP3    H123807   6.029   6.003  11.125  0.2352 -1.3797 -2.7617
  772TIP3    H223808   5.878   5.993  11.142  0.3893  0.2531  0.2301
  773TIP3   OH223809   0.269   2.665   0.549  0.1048  0.1863 -0.2280
  773TIP3    H123810   0.363   2.655   0.533  0.1283 -0.4777  0.2608
  773TIP3    H223811   0.259   2.647   0.643 -0.8782 -2.8071 -0.7912
  774TIP3   OH223812   0.196   6.436   4.590 -0.6988 -0.0691  0.5083
  774TIP3    H123813   0.287   6.408   4.585 -0.8430 -0.8488  1.8595
  774TIP3    H223814   0.195   6.505   4.656 -0.7690  1.4290 -1.0007
  775TIP3   OH223815   1.186   0.368  13.911  0.1302  0.2515  0.3875
  775TIP3    H123816   1.118   0.430  13.938  1.3645  1.7000  0.3348
  775TIP3    H223817   1.260   0.388  13.968  1.0641 -0.1253 -0.6558
  776TIP3   OH223818   4.624   6.115  14.935  0.1708 -0.0945 -0.1178
  776TIP3    H123819   4.704   6.066  14.952  0.9730  0.5536 -1.8418
  776TIP3    H223820   4.581   6.067  14.864 -0.9812 -0.4234  0.7720
  777TIP3   OH223821   2.412   4.854   1.807  0.0986  0.1960 -0.5978
  777TIP3    H123822   2.481   4.916   1.833  1.2257 -0.5174 -1.7596
  777TIP3    H223823   2.452   4.768   1.817 -1.3558 -0.3773  0.7162
  778TIP3   OH223824   1.222   3.866  15.267  0.4875  0.2165 -0.3834
  778TIP3    H123825   1.265   3.800  15.321  0.9114  0.5707 -0.2789
  778TIP3    H223826   1.146   3.821  15.229  0.7430 -0.3115 -0.2755
  779TIP3   OH223827   6.544   2.237  15.246 -0.0848  0.0954 -0.9899
  779TIP3    H123828   6.616   2.289  15.281 -1.2690  0.4732  1.0855
  779TIP3    H223829   6.512   2.287  15.171 -0.5596  1.8998  0.3487
  780TIP3   OH223830   4.285   1.596   1.165  0.6391  0.2868 -0.2710
  780TIP3    H123831   4.263   1.508   1.197  0.8727  0.6859  1.0467
  780TIP3    H223832   4.237   1.655   1.223  1.7604  1.0692 -0.1275
  781TIP3   OH223833   1.695   4.147  15.844 -0.1579 -0.2963  0.0470
  781TIP3    H123834   1.768   4.184  15.796 -1.7980  2.5036 -0.5166
  781TIP3    H223835   1.653   4.087  15.783 -0.4033  0.8633 -0.9625
  782TIP3   OH223836   4.453   0.587  12.899 -0.4125 -0.2170  0.2100
  782TIP3    H123837   4.384   0.565  12.838 -0.0094 -1.3510  0.1415
  782TIP3    H223838   4.409   0.633  12.971 -1.1547 -0.5227 -0.0496
  783TIP3   OH223839   5.317   0.197  17.119  0.4321  0.0017 -0.4700
  783TIP3    H123840   5.270   0.275  17.150 -0.2833 -0.4726 -0.3291
  783TIP3    H223841   5.253   0.151  17.065  0.7295 -0.6674 -0.2609
  784TIP3   OH223842   1.173   3.776  12.356 -0.7219  0.2716  0.1011
  784TIP3    H123843   1.242   3.726  12.400 -0.7052 -0.3724 -0.6501
  784TIP3    H223844   1.140   3.835  12.424 -1.9530 -1.9452  1.5432
  785TIP3   OH223845   0.245   2.268  14.217 -0.0645  0.5743 -0.4119
  785TIP3    H123846   0.277   2.278  14.127  0.1102 -0.3474 -0.4663
  785TIP3    H223847   0.151   2.279  14.211 -0.1187 -0.0524 -0.8115
  786TIP3   OH223848   0.844   1.037   4.145  0.1248  0.0816 -0.0707
  786TIP3    H123849   0.802   0.961   4.104  1.4050  0.7151 -2.8295
  786TIP3    H223850   0.838   1.106   4.079  1.6840  1.4472  1.1216
  787TIP3   OH223851   2.836   6.820   0.362  0.2983  0.4868  0.2395
  787TIP3    H123852   2.856   6.894   0.419  0.2721  0.6618  0.0261
  787TIP3    H223853   2.790   6.860   0.287  0.0729  0.2255  0.2372
  788TIP3   OH223854   5.540   1.646  12.023 -0.1809  0.2509  0.4282
  788TIP3    H123855   5.532   1.551  12.035 -0.0236  0.1330 -0.3691
  788TIP3    H223856   5.623   1.668  12.067  0.7726 -0.2933 -1.0393
  789TIP3   OH223857   0.997   0.626   5.348 -0.5124  0.7377  0.6569
  789TIP3    H123858   1.074   0.571   5.362 -1.4503 -0.5822  0.8592
  789TIP3    H223859   1.016   0.707   5.395  1.2168  0.9133 -0.2513
  790TIP3   OH223860   6.413   6.235   6.709  0.0999 -0.0198  0.1273
  790TIP3    H123861   6.343   6.229   6.775  1.7777 -1.5384  1.9058
  790TIP3    H223862   6.450   6.146   6.706 -0.5784 -0.3245 -3.7398
  791TIP3   OH223863   4.054   1.250   0.437  0.3768 -0.3099 -0.6939
  791TIP3    H123864   4.070   1.160   0.411  0.5418 -0.4237 -0.2105
  791TIP3    H223865   4.122   1.268   0.502  0.8922  0.4413 -1.4108
  792TIP3   OH223866   4.779   0.015   4.178  0.0123 -0.0688  0.0148
  792TIP3    H123867   4.795   0.108   4.163 -1.2050  0.1781  0.2028
  792TIP3    H223868   4.824  -0.004   4.261 -0.8231  0.6719  0.6568
  793TIP3   OH223869   5.915   1.151   2.742 -0.3728 -0.2681  0.3648
  793TIP3    H123870   5.850   1.172   2.808  1.6511 -0.0456  2.4094
  793TIP3    H223871   5.972   1.228   2.740  0.3192 -0.7836 -0.7809
  794TIP3   OH223872   4.962   3.467   2.399 -0.0754  0.0435  0.0449
  794TIP3    H123873   5.028   3.472   2.330  0.2164 -0.4183  0.2913
  794TIP3    H223874   4.943   3.374   2.408  0.1228  0.0731  0.8189
  795TIP3   OH223875   5.973   0.248   6.313  0.4807  0.3493 -0.2097
  795TIP3    H123876   6.000   0.339   6.297  0.1262  0.5809  0.4567
  795TIP3    H223877   6.011   0.227   6.398 -1.7494  0.8457  0.9955
  796TIP3   OH223878   4.934   3.700  10.323 -0.2626  0.4942  0.4207
  796TIP3    H123879   4.944   3.608  10.298 -2.9320  0.1705  0.2704
  796TIP3    H223880   4.906   3.743  10.242 -0.8845  1.0433  0.9200
  797TIP3   OH223881   5.408   2.131   2.598 -0.2391 -0.5270 -0.0264
  797TIP3    H123882   5.326   2.181   2.592  1.2250  2.1825  0.9363
  797TIP3    H223883   5.448   2.142   2.512  1.4141  2.6671  0.9825
  798TIP3   OH223884   3.973   5.513  14.352  0.1051  0.5484  0.9936
  798TIP3    H123885   3.899   5.511  14.291  0.5001 -0.5471  0.5277
  798TIP3    H223886   3.941   5.465  14.429  0.0349  0.8319  1.1408
  799TIP3   OH223887   2.224   0.148  10.918  0.3821 -0.2903 -0.1409
  799TIP3    H123888   2.257   0.100  10.841 -1.4482  0.3704 -1.3990
  799TIP3    H223889   2.183   0.080  10.971 -0.7255 -0.4020 -1.0960
  800TIP3   OH223890   4.090   4.175  12.993  0.0229  0.2334  0.6404
  800TIP3    H123891   4.185   4.163  12.993  0.1201  0.5836  3.0074
  800TIP3    H223892   4.073   4.241  13.060 -1.8753  0.5236 -0.0461
  801TIP3   OH223893   0.635   2.879  15.272  0.0094  0.0116 -0.1172
  801TIP3    H123894   0.612   2.790  15.300  0.0904 -0.0545 -0.2578
  801TIP3    H223895   0.655   2.870  15.179  3.6995 -0.5465  0.5862
  802TIP3   OH223896   1.614   3.754  14.807 -0.5352 -0.1880 -0.7095
  802TIP3    H123897   1.532   3.711  14.831  0.4541 -2.3702 -1.0217
  802TIP3    H223898   1.682   3.689  14.827  1.0350  1.1598 -1.4521
  803TIP3   OH223899   4.542   1.066   5.019  0.4592 -0.1024 -0.5300
  803TIP3    H123900   4.518   1.127   4.950  1.4163 -1.2686 -1.9578
  803TIP3    H223901   4.622   1.103   5.057 -0.2140  0.6756  0.1577
  804TIP3   OH223902   3.121   3.962   1.532 -0.4125 -0.2010 -0.1131
  804TIP3    H123903   3.201   3.957   1.586 -0.4179 -0.5220 -0.1327
  804TIP3    H223904   3.144   3.915   1.452  0.1462  1.6561 -1.1078
  805TIP3   OH223905   0.589   0.872  13.920  0.0842  0.1347  0.1248
  805TIP3    H123906   0.596   0.776  13.913  0.1036  0.0890  0.7184
  805TIP3    H223907   0.606   0.903  13.832  0.0192 -0.4175 -0.0886
  806TIP3   OH223908   4.812   5.137   1.473 -0.3578 -0.6552 -0.0558
  806TIP3    H123909   4.751   5.072   1.510 -0.0129 -0.6115  0.6101
  806TIP3    H223910   4.899   5.105   1.497 -0.2270  0.8184  1.6320
  807TIP3   OH223911   6.675   1.180  16.228 -0.3619  0.7746  0.1494
  807TIP3    H123912   6.650   1.146  16.142  1.1023 -0.1670  0.0566
  807TIP3    H223913   6.740   1.247  16.209 -0.5019  1.0154  0.5084
  808TIP3   OH223914   3.077   5.615  14.143  0.4056  0.3235 -0.3224
  808TIP3    H123915   3.028   5.692  14.111  1.2695  0.6671 -0.8401
  808TIP3    H223916   3.150   5.652  14.191 -0.3535 -0.1938  1.2927
  809TIP3   OH223917   1.544   5.476  13.955 -0.1775 -0.3642 -0.1033
  809TIP3    H123918   1.491   5.462  14.034 -1.0393  0.8008 -0.4459
  809TIP3    H223919   1.554   5.571  13.950  0.9431 -0.4974 -0.7183
  810TIP3   OH223920   3.648   1.966   3.370  0.2483  0.2366  0.2162
  810TIP3    H123921   3.661   1.902   3.440  0.1311  0.9861  0.9244
  810TIP3    H223922   3.557   1.953   3.342  0.0249  0.5333  0.8018
  811TIP3   OH223923   1.216   6.716  13.259  0.7049  0.5855  0.2310
  811TIP3    H123924   1.188   6.758  13.341  2.1957 -1.9471  2.1902
  811TIP3    H223925   1.164   6.636  13.254  2.5593 -0.6894  0.2503
  812TIP3   OH223926   1.529   1.254   2.808 -0.0603 -0.0656  1.2547
  812TIP3    H123927   1.540   1.164   2.777  0.4564 -0.3425  2.1965
  812TIP3    H223928   1.508   1.245   2.901 -0.2112  0.7784  1.3109
  813TIP3   OH223929   2.670   5.214   2.854 -0.3907 -0.3226  0.3944
  813TIP3    H123930   2.636   5.211   2.944  0.2766 -0.7157  0.6407
  813TIP3    H223931   2.633   5.294   2.817 -2.1805 -1.1127  0.4047
  814TIP3   OH223932   5.096   5.934  13.605  1.0024 -0.3281  0.2587
  814TIP3    H123933   5.109   5.852  13.653  3.7367  0.3834  0.9361
  814TIP3    H223934   5.089   6.001  13.673 -1.6242  0.0447 -0.2744
  815TIP3   OH223935   3.296   2.510  15.299 -0.3072 -0.0159 -0.5350
  815TIP3    H123936   3.315   2.578  15.364 -0.6025 -1.5980  1.3126
  815TIP3    H223937   3.226   2.546  15.246 -2.0988  0.2998  1.8811
  816TIP3   OH223938   0.772   1.196   0.219  0.4521  0.0155 -0.1339
  816TIP3    H123939   0.735   1.148   0.293  2.7708 -1.9043 -0.0879
  816TIP3    H223940   0.708   1.186   0.149  0.9883 -3.7217 -0.2737
  817TIP3   OH223941   6.153   2.790  15.620 -0.3961 -0.3010 -0.2301
  817TIP3    H123942   6.168   2.704  15.581 -1.9158 -1.0092  0.6627
  817TIP3    H223943   6.059   2.794  15.636 -0.3480  1.4902 -0.1346
  818TIP3   OH223944   3.876   3.788  16.245  0.7605 -0.4628 -0.1933
  818TIP3    H123945   3.902   3.874  16.276  2.5055 -0.7774 -0.6717
  818TIP3    H223946   3.954   3.733  16.258  0.2713 -1.5305 -1.4779
  819TIP3   OH223947   5.979   5.486  15.416 -0.0133 -0.7856  0.1758
  819TIP3    H123948   5.982   5.515  15.507  0.9289  0.5309 -0.2441
  819TIP3    H223949   5.897   5.523  15.383 -0.0748 -0.7821  0.3286
  820TIP3   OH223950   2.376   0.431   3.183  0.3542 -0.4071 -0.4264
  820TIP3    H123951   2.331   0.366   3.236 -1.4123  1.4851  0.5707
  820TIP3    H223952   2.439   0.471   3.243 -1.0058  1.1068  0.0771
  821TIP3   OH223953   0.321   2.723  10.962 -0.1974 -0.0957  0.0516
  821TIP3    H123954   0.334   2.817  10.974  0.7016  0.1055 -2.0699
  821TIP3    H223955   0.294   2.691  11.048  1.1369  1.8288  1.2561
  822TIP3   OH223956   4.730   2.862   1.531 -0.6295 -0.3014  0.1633
  822TIP3    H123957   4.818   2.831   1.551 -1.3313 -1.6413  1.4904
  822TIP3    H223958   4.693   2.884   1.617 -1.4938  0.5212 -0.4006
  823TIP3   OH223959   1.472   2.372  14.906  0.5037  0.1397  0.6500
  823TIP3    H123960   1.445   2.281  14.895  2.2622 -0.2288 -1.2527
  823TIP3    H223961   1.517   2.373  14.991  1.2242 -1.0006  0.3158
  824TIP3   OH223962   5.339   1.738  12.616  0.0662 -0.3246  0.8083
  824TIP3    H123963   5.323   1.827  12.584 -1.9605 -0.2880  1.7438
  824TIP3    H223964   5.394   1.697  12.549  0.3773  1.3798 -0.0181
  825TIP3   OH223965   4.340   1.077  13.813  0.3492 -0.5014  0.2523
  825TIP3    H123966   4.255   1.119  13.829  0.2611 -0.6571  0.1968
  825TIP3    H223967   4.320   0.983  13.811  0.3828 -0.4961 -0.6211
  826TIP3   OH223968   3.629   5.826   1.848  0.0335 -0.2489  0.6857
  826TIP3    H123969   3.628   5.905   1.902 -1.9797 -0.5632  1.1900
  826TIP3    H223970   3.645   5.858   1.759  0.1737  0.6126  1.0097
  827TIP3   OH223971   4.868   0.001   3.220  0.0739 -0.0737  0.3081
  827TIP3    H123972   4.898   0.057   3.292 -0.4541  0.3356  0.2179
  827TIP3    H223973   4.941  -0.059   3.204  0.6690  0.6113  0.3858
  828TIP3   OH223974   6.357   1.231  16.684  0.1741 -0.0553  0.0323
  828TIP3    H123975   6.298   1.233  16.608 -0.1724 -1.5482  0.2339
  828TIP3    H223976   6.422   1.164  16.663  1.4111  1.0813  0.1240
  829TIP3   OH223977   5.317   2.313   4.639  0.0754  0.2572 -0.3799
  829TIP3    H123978   5.236   2.286   4.595 -0.8545  2.2720 -0.0118
  829TIP3    H223979   5.302   2.294   4.731  0.1174  0.4050 -0.3425
  830TIP3   OH223980   0.456   4.067   5.137 -0.1975  0.5818 -0.3161
  830TIP3    H123981   0.435   4.038   5.049  0.4418  0.9900 -0.6107
  830TIP3    H223982   0.551   4.056   5.144  0.0307  2.3399 -0.3505
  831TIP3   OH223983   5.373   0.990   0.192  0.5999  0.5127  0.0577
  831TIP3    H123984   5.320   1.046   0.249  1.7031 -0.3202  2.0049
  831TIP3    H223985   5.461   0.996   0.228  0.5492 -3.4785  1.2828
  832TIP3   OH223986   1.429   6.762  15.424 -0.0249 -0.5202  0.2129
  832TIP3    H123987   1.452   6.674  15.392 -1.7776 -1.0447  0.3139
  832TIP3    H223988   1.395   6.747  15.512 -0.7756  0.1976  0.0540
  833TIP3   OH223989   4.455   2.750  10.388 -0.0721  0.1894 -0.5857
  833TIP3    H123990   4.504   2.783  10.463 -0.7778 -0.8122  0.3328
  833TIP3    H223991   4.372   2.798  10.389 -0.8322 -1.0976  0.3717
  834TIP3   OH223992   6.575   1.533   5.065  0.3821  0.0447  0.5985
  834TIP3    H123993   6.602   1.625   5.070 -0.5680  0.2749  2.3092
  834TIP3    H223994   6.637   1.493   5.004  1.5431  1.5718  0.7187
  835TIP3   OH223995   4.095   2.866  10.643  0.9911  0.1391  0.1490
  835TIP3    H123996   4.164   2.868  10.709  0.4359 -0.7328  0.7895
  835TIP3    H223997   4.038   2.793  10.670 -0.1974  0.8510 -0.3305
  836TIP3   OH223998   6.428   4.734  15.303 -0.2533  0.8159  0.0631
  836TIP3    H123999   6.499   4.682  15.341  0.2849  2.0943  0.8574
  836TIP3    H224000   6.351   4.712  15.356 -0.3902 -0.2795 -0.5558
  837TIP3   OH224001   0.954   0.030   3.720  0.2688 -0.9659  0.2467
  837TIP3    H124002   1.048   0.021   3.707  0.6553  1.2094  1.1615
  837TIP3    H224003   0.944   0.107   3.776 -2.1054 -0.3113 -0.9289
  838TIP3   OH224004   4.692   4.752   0.927 -0.0096 -0.0169  0.1722
  838TIP3    H124005   4.785   4.771   0.943  0.0291  1.8870 -1.8836
  838TIP3    H224006   4.691   4.705   0.844 -0.8332 -1.2220  0.8321
  839TIP3   OH224007   0.692   2.020   1.025 -0.0471 -0.1774  0.4513
  839TIP3    H124008   0.611   1.984   1.061  0.5490 -0.3728  1.6457
  839TIP3    H224009   0.663   2.085   0.961 -1.1425 -0.5932  0.5090
  840TIP3   OH224010   2.054   5.775   3.052  0.3673 -0.5648  0.0618
  840TIP3    H124011   2.069   5.788   2.958  1.1795 -2.3172 -0.0935
  840TIP3    H224012   1.960   5.763   3.060  0.2544 -0.0615 -0.4827
  841TIP3   OH224013   1.494   2.023   0.467  0.0992 -0.1947  0.0972
  841TIP3    H124014   1.523   2.098   0.415  0.3776 -0.9751 -0.8931
  841TIP3    H224015   1.572   1.969   0.478 -0.0478 -0.2496  0.9880
  842TIP3   OH224016   0.352   4.662   0.046 -0.6724 -0.2293 -0.0415
  842TIP3    H124017   0.306   4.653   0.130 -0.4768 -1.7886 -0.0561
  842TIP3    H224018   0.379   4.753   0.043  1.3289 -0.5815  2.7109
  843TIP3   OH224019   0.976   5.688   1.524  0.0129 -0.1473  0.3389
  843TIP3    H124020   0.919   5.717   1.453  1.6891 -0.0246 -1.0035
  843TIP3    H224021   1.001   5.768   1.569  1.6594  0.1702 -1.0687
  844TIP3   OH224022   4.538   1.527   6.337 -0.1842  0.4128  0.5969
  844TIP3    H124023   4.519   1.433   6.342  1.2751 -0.0334 -1.1399
  844TIP3    H224024   4.626   1.535   6.374  0.5585  0.7304 -1.1420
  845TIP3   OH224025   1.993   5.312  11.690 -0.3000  0.4987 -0.3091
  845TIP3    H124026   1.918   5.254  11.673  0.1696 -0.2618  0.1108
  845TIP3    H224027   1.954   5.393  11.722 -1.0043  0.6407 -1.4878
  846TIP3   OH224028   2.758   5.197  11.690 -0.0190 -0.4552  0.6458
  846TIP3    H124029   2.698   5.236  11.628  0.9347  0.6045  0.3539
  846TIP3    H224030   2.786   5.115  11.649 -0.8633 -0.7060  0.5651
  847TIP3   OH224031   1.205   6.143  16.253  0.5098  0.0064 -0.4928
  847TIP3    H124032   1.213   6.222  16.200  0.3708  0.0190 -0.4935
  847TIP3    H224033   1.129   6.097  16.218  1.0131 -0.4836 -0.9679
  848TIP3   OH224034   0.601   6.304   3.261  0.4854 -0.7420  0.5444
  848TIP3    H124035   0.640   6.374   3.313 -0.8600 -0.3129  1.0244
  848TIP3    H224036   0.600   6.228   3.319 -0.5310 -0.4060  0.9871
  849TIP3   OH224037   1.029   4.343  11.110 -0.1840  0.3189  0.1583
  849TIP3    H124038   0.975   4.283  11.058 -0.0278  0.5078 -0.2251
  849TIP3    H224039   1.086   4.385  11.046  0.4991  0.0429  0.5715
  850TIP3   OH224040   0.452   3.314   4.705  0.2160  0.1679 -0.3358
  850TIP3    H124041   0.472   3.232   4.660 -1.1683  0.0050 -0.6963
  850TIP3    H224042   0.430   3.288   4.795 -1.5530 -0.0424 -0.7951
  851TIP3   OH224043   1.785   4.859  16.258 -0.5293 -0.0152 -0.1323
  851TIP3    H124044   1.726   4.892  16.326 -0.5365 -0.0913 -0.1014
  851TIP3    H224045   1.726   4.823  16.192 -0.6281  2.1073 -1.2924
  852TIP3   OH224046   6.488   1.158   1.149 -0.4835 -0.3777  0.0779
  852TIP3    H124047   6.507   1.099   1.222 -0.1254  0.7056  0.8922
  852TIP3    H224048   6.395   1.144   1.131 -0.3704 -1.2764  0.1665
  853TIP3   OH224049   3.195   5.438   4.111 -0.7100  0.0198  0.2155
  853TIP3    H124050   3.144   5.518   4.127  1.1762  1.2423  0.4819
  853TIP3    H224051   3.203   5.397   4.198 -2.3802 -0.9613 -0.0498
  854TIP3   OH224052   2.923   4.485  16.586 -0.4647  0.7200 -0.1262
  854TIP3    H124053   2.860   4.438  16.532 -0.7104 -1.9772  2.2578
  854TIP3    H224054   3.003   4.488  16.534 -1.2442  0.0166 -1.3990
  855TIP3   OH224055   0.710   1.414  12.610 -0.2733 -0.5530 -0.0986
  855TIP3    H124056   0.697   1.506  12.589 -1.7570 -0.7492 -0.1322
  855TIP3    H224057   0.787   1.388  12.560 -1.7316 -0.1453 -2.6925
  856TIP3   OH224058   5.626   3.931   4.357 -0.2636 -0.1837  0.0724
  856TIP3    H124059   5.627   3.978   4.441  0.2107  0.8219 -0.4860
  856TIP3    H224060   5.663   3.845   4.378  1.0743  0.5047  0.6564
  857TIP3   OH224061   0.087   5.186  11.078  0.4560 -0.4567 -0.2411
  857TIP3    H124062   0.007   5.164  11.030  0.0794 -0.0945  0.2075
  857TIP3    H224063   0.113   5.104  11.119 -0.8252 -0.1819  1.2489
  858TIP3   OH224064   0.173   0.848  17.044 -0.2141 -0.4059  0.2196
  858TIP3    H124065   0.115   0.816  17.113 -0.1349  1.1435  1.0534
  858TIP3    H224066   0.161   0.943  17.046  0.3849 -0.2800 -1.3851
  859TIP3   OH224067   1.631   1.182  12.851 -0.1288  0.3093  0.0335
  859TIP3    H124068   1.570   1.142  12.913 -0.6012  0.5616 -0.2549
  859TIP3    H224069   1.600   1.273  12.843 -0.4658  0.1157 -1.0380
  860TIP3   OH224070   0.000   3.223   0.005  0.1088 -0.5852  0.3928
  860TIP3    H124071  -0.091   3.232  -0.024  0.1273  0.4948  0.6454
  860TIP3    H224072  -0.004   3.162   0.079 -0.8930  1.8936  2.5201
  861TIP3   OH224073   2.018   5.814   4.969  0.2571 -0.6952 -0.6597
  861TIP3    H124074   2.111   5.837   4.978  0.6154 -1.1444 -2.6725
  861TIP3    H224075   2.019   5.728   4.926 -1.1069 -1.1464  0.1605
  862TIP3   OH224076   3.211   4.022  16.967 -0.4656 -0.2310  0.0767
  862TIP3    H124077   3.171   4.109  16.960  0.8994  0.4733  0.7235
  862TIP3    H224078   3.253   4.009  16.882  1.0731  0.6650  0.6595
  863TIP3   OH224079   2.555   4.500  14.246 -0.4026 -0.6541  0.0675
  863TIP3    H124080   2.598   4.440  14.306 -1.4601 -0.8872  0.6129
  863TIP3    H224081   2.562   4.586  14.288 -0.1236 -0.6191 -0.0450
  864TIP3   OH224082   2.736   1.921   4.664  0.5134  0.1006  0.3811
  864TIP3    H124083   2.812   1.974   4.638  1.1757 -0.3001  1.4173
  864TIP3    H224084   2.672   1.986   4.695 -0.6093  0.6579 -2.7848
  865TIP3   OH224085   5.669   2.511   0.872 -0.0375 -0.0264 -0.0103
  865TIP3    H124086   5.611   2.438   0.849  0.9162 -0.8042 -0.0204
  865TIP3    H224087   5.652   2.577   0.806 -2.0009  0.3923  0.8605
  866TIP3   OH224088   5.047   3.318   4.934 -0.0547  0.0166  0.3097
  866TIP3    H124089   5.126   3.278   4.968  0.3418 -0.8992 -1.5570
  866TIP3    H224090   5.056   3.313   4.839 -1.3145  1.9825  0.0219
  867TIP3   OH224091   5.795   5.301  13.094  0.3547  0.2084  0.8335
  867TIP3    H124092   5.847   5.224  13.072 -0.3625 -0.0522 -0.0151
  867TIP3    H224093   5.738   5.314  13.018  1.1046  2.1305  0.5244
  868TIP3   OH224094   3.392   1.077  12.722  0.1757 -0.5121 -0.1804
  868TIP3    H124095   3.326   1.146  12.708  0.5428  0.0719  0.8527
  868TIP3    H224096   3.349   1.016  12.783  1.0886  0.6529  1.7031
  869TIP3   OH224097   4.684   5.658  11.633 -0.3869 -0.1322 -0.4396
  869TIP3    H124098   4.687   5.751  11.657 -0.5263 -0.1283 -0.4381
  869TIP3    H224099   4.594   5.643  11.603 -0.3948 -0.2894 -0.3445
  870TIP3   OH224100   1.270   0.590   0.152  0.3038  0.4569 -0.6021
  870TIP3    H124101   1.198   0.627   0.101 -0.3150  1.6763  1.0419
  870TIP3    H224102   1.227   0.534   0.217  1.0252 -0.5596 -0.9781
  871TIP3   OH224103   5.310   2.008   4.832 -0.3274  0.4108 -0.4458
  871TIP3    H124104   5.313   2.056   4.915 -1.7373 -1.1986  0.6048
  871TIP3    H224105   5.401   1.979   4.819 -0.3388 -0.6641  1.4199
  872TIP3   OH224106   1.510   1.500  12.525  0.1653 -0.2814 -0.2122
  872TIP3    H124107   1.578   1.439  12.498  0.8089 -0.2990  1.3362
  872TIP3    H224108   1.510   1.496  12.620  1.4692  3.4029  0.1133
  873TIP3   OH224109   0.916   4.648   0.470 -0.0030  0.2272  0.6643
  873TIP3    H124110   0.903   4.616   0.380  0.6670 -1.1438  1.0209
  873TIP3    H224111   0.841   4.703   0.487 -0.0937  0.5954 -0.7809
  874TIP3   OH224112   4.761   0.780  11.760 -0.1331 -0.0263  0.0176
  874TIP3    H124113   4.763   0.809  11.669  1.6447  1.0318  0.3483
  874TIP3    H224114   4.749   0.861  11.810  1.4885 -0.2363  0.8065
  875TIP3   OH224115   6.354   2.100  14.340 -0.1324  0.3279 -0.2642
  875TIP3    H124116   6.369   2.155  14.263 -0.2372 -0.1672 -0.6392
  875TIP3    H224117   6.264   2.070  14.331  0.2964 -0.8710 -0.6884
  876TIP3   OH224118   4.758   6.842  14.723  0.3149  0.3418  0.0352
  876TIP3    H124119   4.751   6.876  14.634 -0.1238  0.4616  0.1118
  876TIP3    H224120   4.706   6.762  14.723  0.8549 -0.0158  0.0136
  877TIP3   OH224121   6.063   0.733  14.139 -0.0843 -0.2255 -0.0349
  877TIP3    H124122   5.997   0.748  14.072 -0.2777 -0.3131  0.1370
  877TIP3    H224123   6.125   0.805  14.128 -1.3003  1.0711  1.1613
  878TIP3   OH224124   4.802   2.286  15.241  0.2279 -0.1344 -0.0136
  878TIP3    H124125   4.842   2.252  15.321 -1.5004 -1.0376  0.5329
  878TIP3    H224126   4.708   2.269  15.253 -0.4751  2.5899 -0.8327
  879TIP3   OH224127   0.366   5.883  11.618  0.6111  0.1670 -0.0271
  879TIP3    H124128   0.295   5.913  11.561  1.0984 -0.3943 -0.9522
  879TIP3    H224129   0.438   5.944  11.603  1.1802 -0.6978 -1.0005
  880TIP3   OH224130   1.607   5.189   4.693  0.3619 -0.1870 -0.3007
  880TIP3    H124131   1.686   5.178   4.640 -0.1579  0.5891 -1.2651
  880TIP3    H224132   1.589   5.283   4.689 -1.3087 -0.5070 -1.1519
  881TIP3   OH224133   0.018   4.130   4.674 -0.0425  0.3512 -0.1850
  881TIP3    H124134   0.027   4.221   4.645 -3.1547  0.6639 -0.5279
  881TIP3    H224135   0.010   4.136   4.769 -1.0046  0.5569 -0.2671
  882TIP3   OH224136   0.038   1.018  13.654 -0.4764  0.4847 -0.3328
  882TIP3    H124137   0.098   1.091  13.637  0.2840  0.2814  1.2778
  882TIP3    H224138   0.095   0.940  13.654 -1.0711  0.0424 -0.7336
  883TIP3   OH224139   5.041   2.947  11.997 -0.0905  0.2063  0.0230
  883TIP3    H124140   5.129   2.958  12.034 -0.6168  1.4865  0.9374
  883TIP3    H224141   5.057   2.928  11.905  1.1211  2.6536 -0.3513
  884TIP3   OH224142   2.735   1.678   5.424 -0.4739  0.3612  0.2226
  884TIP3    H124143   2.735   1.629   5.341 -0.6148 -0.3595  0.6355
  884TIP3    H224144   2.645   1.708   5.433 -1.2248 -1.9911  1.4745
  885TIP3   OH224145   3.621   4.158   0.739  0.1733 -0.3789 -0.4620
  885TIP3    H124146   3.654   4.084   0.791 -0.0941  0.2119  0.5663
  885TIP3    H224147   3.593   4.222   0.804  0.9212  0.8701 -1.3382
  886TIP3   OH224148   2.527   5.946   6.210 -0.0372 -0.4624  0.2893
  886TIP3    H124149   2.533   5.896   6.128  0.9185 -0.3033  0.2448
  886TIP3    H224150   2.608   5.923   6.257  0.5305  1.1864  0.1722
  887TIP3   OH224151   6.749   3.635  16.277  0.2498  0.2930  0.3901
  887TIP3    H124152   6.777   3.560  16.225 -1.6812 -0.3299  0.2076
  887TIP3    H224153   6.757   3.606  16.368  1.4492  0.6121  0.4161
  888TIP3   OH224154   0.701   2.690  10.589 -0.1787  0.9854 -0.1617
  888TIP3    H124155   0.623   2.736  10.620 -0.8177 -1.1428  1.6057
  888TIP3    H224156   0.726   2.633  10.661  0.9665 -0.9382 -1.9753
  889TIP3   OH224157   0.262   2.478   2.147 -0.1979  0.4907 -0.0633
  889TIP3    H124158   0.335   2.540   2.144  0.3466 -0.1568 -0.7533
  889TIP3    H224159   0.294   2.402   2.098 -1.0486 -0.1194  0.3074
  890TIP3   OH224160   0.102   0.647   1.779  0.1368 -0.3387  0.1714
  890TIP3    H124161   0.118   0.601   1.697  0.4636  0.3638 -0.1619
  890TIP3    H224162   0.014   0.620   1.805 -0.5604  0.5612 -1.1631
  891TIP3   OH224163   4.555   2.619  10.038  0.0684  0.2322  0.3342
  891TIP3    H124164   4.489   2.577  10.093 -0.7432 -0.1740 -0.9089
  891TIP3    H224165   4.527   2.711  10.033 -0.8141 -0.0572 -0.6933
  892TIP3   OH224166   2.044   5.491  14.377 -0.3358  0.2272 -0.5877
  892TIP3    H124167   2.086   5.417  14.333 -0.6453 -0.1434 -0.2630
  892TIP3    H224168   2.028   5.460  14.466 -0.2016  0.7878 -0.3607
  893TIP3   OH224169   0.075   1.386   1.946 -0.2572  0.5610 -0.5067
  893TIP3    H124170  -0.012   1.347   1.942 -0.3257  0.7890 -1.4669
  893TIP3    H224171   0.078   1.446   1.871  0.2205  1.6087  0.3201
  894TIP3   OH224172   4.890   3.868   1.555 -0.2655 -0.2264 -0.3626
  894TIP3    H124173   4.805   3.842   1.521 -0.1681 -0.9329 -0.0746
  894TIP3    H224174   4.952   3.807   1.515  0.1108  0.2757 -0.5652
  895TIP3   OH224175   4.159   4.452   2.454 -0.1996  0.2606 -0.5024
  895TIP3    H124176   4.187   4.453   2.545 -1.2940 -1.3785 -0.0934
  895TIP3    H224177   4.145   4.359   2.434  0.0092  0.5844 -2.3397
  896TIP3   OH224178   2.632   3.147   0.074 -0.6510 -0.0672  0.4355
  896TIP3    H124179   2.685   3.076   0.039 -0.6159  0.9255 -1.6959
  896TIP3    H224180   2.695   3.213   0.103 -0.5910 -1.5785  4.3441
  897TIP3   OH224181   4.023   6.698  14.728  0.2824  0.1444 -0.2728
  897TIP3    H124182   3.967   6.681  14.804 -0.1523 -2.6107 -1.1326
  897TIP3    H224183   4.039   6.793  14.732 -1.0129  0.3545  2.3315
  898TIP3   OH224184   0.349   6.353  12.359  0.1156 -0.2455 -0.0346
  898TIP3    H124185   0.423   6.411  12.340  0.5587 -0.7173  0.1963
  898TIP3    H224186   0.386   6.265  12.352 -0.5964 -0.5066 -0.5929
  899TIP3   OH224187   6.542   1.731   2.574  0.3054  0.6741  0.1657
  899TIP3    H124188   6.468   1.728   2.514  1.7062  0.3781 -1.6162
  899TIP3    H224189   6.512   1.682   2.651 -0.5718 -1.3954 -1.4098
  900TIP3   OH224190   3.845   5.560  15.301 -0.4579 -0.3651 -0.0005
  900TIP3    H124191   3.889   5.582  15.219 -0.8907 -1.0187 -0.4161
  900TIP3    H224192   3.758   5.597  15.292  0.9505  4.1649  2.2813
  901TIP3   OH224193   2.942   4.468   0.658 -1.0191  0.0373 -0.2613
  901TIP3    H124194   2.933   4.380   0.694  1.4040  0.0127  0.4641
  901TIP3    H224195   3.005   4.512   0.716 -2.7917  2.5793 -0.0691
  902TIP3   OH224196   3.746   5.788   5.115  0.2777 -0.5291 -0.7995
  902TIP3    H124197   3.661   5.802   5.074  1.0611 -1.1431 -2.7949
  902TIP3    H224198   3.770   5.873   5.152 -1.8800 -0.7474  1.3171
  903TIP3   OH224199   0.551   4.948  13.860  0.8258 -0.0305  0.0734
  903TIP3    H124200   0.481   4.997  13.818  1.5231  1.9770  1.1055
  903TIP3    H224201   0.519   4.858  13.864 -0.5070  0.3028 -1.9240
  904TIP3   OH224202   5.776   5.235   2.971 -0.2185  0.4537  0.2687
  904TIP3    H124203   5.719   5.306   2.940 -0.0365  0.3685 -0.2750
  904TIP3    H224204   5.837   5.279   3.030 -1.8095  0.2869  2.1220
  905TIP3   OH224205   4.946   5.435  13.237 -0.4019  0.0555 -0.0160
  905TIP3    H124206   4.995   5.356  13.215 -0.6572 -0.0031 -0.3972
  905TIP3    H224207   5.002   5.483  13.297 -1.3219 -1.6740  2.3623
  906TIP3   OH224208   4.600   4.559   3.959 -0.2665 -0.0289 -0.3604
  906TIP3    H124209   4.653   4.481   3.942  0.3048  0.4800 -1.0072
  906TIP3    H224210   4.579   4.554   4.052 -0.2565 -0.9590 -0.3908
  907TIP3   OH224211   2.372   3.877  15.841  0.6019 -0.5020 -0.6828
  907TIP3    H124212   2.420   3.825  15.776 -0.5672 -0.0254 -1.9645
  907TIP3    H224213   2.281   3.852  15.829  0.2363  0.4981 -0.0557
  908TIP3   OH224214   3.948   6.356   1.120  0.5688  0.4005  0.7581
  908TIP3    H124215   3.865   6.321   1.154  0.4508  0.6659  0.7452
  908TIP3    H224216   3.922   6.411   1.046  0.9925 -2.3040 -1.5658
  909TIP3   OH224217   5.718   3.451   2.862  0.9941  0.8120 -0.4651
  909TIP3    H124218   5.787   3.386   2.846  1.7585  1.5213 -0.1294
  909TIP3    H224219   5.642   3.399   2.889  0.9456 -0.1010 -2.1660
  910TIP3   OH224220   4.916   4.995   1.918  0.3063 -0.0480  0.2429
  910TIP3    H124221   4.917   4.942   1.838  0.5594 -0.5141  0.5495
  910TIP3    H224222   4.875   5.077   1.891 -0.9451 -0.7362 -0.0187
  911TIP3   OH224223   4.353   5.105   5.767 -0.3892 -0.1977  0.1380
  911TIP3    H124224   4.264   5.139   5.762 -0.8284 -1.0647  1.4672
  911TIP3    H224225   4.367   5.088   5.860  1.2183  0.0296 -0.0372
  912TIP3   OH224226   5.360   6.021   1.096  0.2760  0.2175  0.1970
  912TIP3    H124227   5.455   6.017   1.085  0.0447 -0.8162 -1.7483
  912TIP3    H224228   5.345   5.984   1.183  1.5976 -0.2876  0.2407
  913TIP3   OH224229   3.545   4.422   3.777  0.2768 -0.4403 -0.0075
  913TIP3    H124230   3.481   4.351   3.771  0.1661 -0.3104 -0.4297
  913TIP3    H224231   3.498   4.499   3.743  0.8327 -0.4664 -0.8596
  914TIP3   OH224232   4.261   0.434   1.519  0.5429  0.3484 -0.2243
  914TIP3    H124233   4.297   0.503   1.462  1.0847 -1.1251 -1.7379
  914TIP3    H224234   4.176   0.414   1.480  0.0201  0.6956  0.7032
  915TIP3   OH224235   2.578   2.115   2.655  0.7310  0.0393  0.3840
  915TIP3    H124236   2.576   2.176   2.728 -1.5908 -1.2252  1.4666
  915TIP3    H224237   2.508   2.145   2.596 -0.6250 -1.6416  1.0620
  916TIP3   OH224238   3.910   0.580  15.059  0.0996  0.1179 -0.4426
  916TIP3    H124239   3.962   0.499  15.064 -0.4333 -0.2473 -0.7006
  916TIP3    H224240   3.958   0.643  15.112 -0.2772 -0.8138  1.0598
  917TIP3   OH224241   0.672   1.103  12.344 -0.2649  0.1183 -0.1426
  917TIP3    H124242   0.675   1.008  12.346 -1.0114  0.0855 -0.1066
  917TIP3    H224243   0.579   1.124  12.332 -0.0345  0.8254 -0.8287
  918TIP3   OH224244   1.852   0.815   0.560  0.2693 -0.3137 -0.1928
  918TIP3    H124245   1.857   0.811   0.656  0.5261 -1.1054 -0.2288
  918TIP3    H224246   1.846   0.908   0.540  0.9063 -0.0951  0.5645
  919TIP3   OH224247   4.809   0.861   0.940  0.6815 -0.2410  0.2949
  919TIP3    H124248   4.877   0.870   1.007 -0.1757  0.2054  1.1378
  919TIP3    H224249   4.727   0.871   0.989  0.0407  0.1713 -0.8474
  920TIP3   OH224250   3.897   0.467  16.373  0.2021  1.2685  0.0827
  920TIP3    H124251   3.921   0.474  16.466  0.5095  1.5482 -0.0159
  920TIP3    H224252   3.802   0.477  16.371 -0.2518 -1.8910  0.7178
  921TIP3   OH224253   2.399   4.611  12.875  0.2988  0.0294 -0.1878
  921TIP3    H124254   2.356   4.527  12.889 -0.6392  0.4991 -0.1954
  921TIP3    H224255   2.405   4.620  12.780 -0.7317  0.5148 -0.2242
  922TIP3   OH224256   1.822   4.407  11.998 -0.3643  0.0452 -0.3727
  922TIP3    H124257   1.751   4.438  12.055  1.2855  0.6437  1.4618
  922TIP3    H224258   1.812   4.458  11.917 -1.5044  0.7150  0.1619
  923TIP3   OH224259   1.904   1.225  15.887 -0.0598  0.0213  0.0982
  923TIP3    H124260   1.938   1.136  15.881  1.3961  0.5662 -0.1552
  923TIP3    H224261   1.858   1.228  15.971  1.3072 -0.5185  0.8884
  924TIP3   OH224262   4.361   0.740  13.113  0.5077 -0.5655  0.0145
  924TIP3    H124263   4.287   0.801  13.123 -0.3410 -1.6966  0.8382
  924TIP3    H224264   4.436   0.789  13.145 -0.7171 -1.0681  4.2613
  925TIP3   OH224265   1.089   6.496  15.137 -0.0465 -0.0079 -0.1032
  925TIP3    H124266   1.006   6.484  15.183  0.3339  0.6815  0.7968
  925TIP3    H224267   1.074   6.572  15.081  0.5723  1.4565  1.6099
  926TIP3   OH224268   6.646   1.485  13.668 -0.1780 -0.5080  0.0520
  926TIP3    H124269   6.654   1.470  13.763 -0.2685  1.4785  0.4230
  926TIP3    H224270   6.552   1.477  13.651 -0.2800  0.0701  0.3231
  927TIP3   OH224271   6.305   2.328  14.162 -0.8550 -0.0580 -0.2281
  927TIP3    H124272   6.215   2.358  14.156 -0.4716  1.2430  0.2534
  927TIP3    H224273   6.343   2.379  14.234  0.2466 -0.6342 -0.3766
  928TIP3   OH224274   3.466   5.295   3.870  0.1800 -0.2154 -0.0647
  928TIP3    H124275   3.549   5.340   3.861 -0.5757  1.3497  0.3516
  928TIP3    H224276   3.489   5.209   3.904  1.6824 -0.1768 -0.8948
  929TIP3   OH224277   1.012   0.709   5.641  0.3684  0.1285 -0.4281
  929TIP3    H124278   1.106   0.689   5.638  0.2250 -0.4503 -1.6036
  929TIP3    H224279   0.973   0.637   5.690  0.6308  0.8436  0.8814
  930TIP3   OH224280   4.674   5.154  13.827  0.2042  0.0866 -0.3716
  930TIP3    H124281   4.617   5.079  13.845 -0.1190  0.4990  0.3485
  930TIP3    H224282   4.615   5.229  13.825  0.8966  0.8059  2.2195
  931TIP3   OH224283   1.904   2.345   6.467 -0.1216  0.3251  0.3947
  931TIP3    H124284   1.893   2.365   6.560  0.6279 -0.0765  0.5813
  931TIP3    H224285   1.985   2.390   6.442  0.6638 -1.0338  0.4015
  932TIP3   OH224286   6.012   5.866  12.804  0.1356 -0.0582  0.8389
  932TIP3    H124287   6.095   5.870  12.851 -0.5198  0.4802  2.0137
  932TIP3    H224288   5.949   5.835  12.870 -0.7437  0.3290  0.2050
  933TIP3   OH224289   6.607   6.597   0.192  0.1974 -0.1097 -0.3336
  933TIP3    H124290   6.676   6.638   0.244 -0.2843  0.8516 -0.4403
  933TIP3    H224291   6.563   6.538   0.254  1.5539 -1.3020 -0.4524
  934TIP3   OH224292   2.199   3.816  15.434  0.3921 -0.6467 -0.2600
  934TIP3    H124293   2.283   3.773  15.416  0.3971 -0.0924 -1.6585
  934TIP3    H224294   2.151   3.752  15.487  1.0570 -1.6569 -0.8338
  935TIP3   OH224295   6.296   5.855  12.112 -0.1412 -0.2648 -0.4392
  935TIP3    H124296   6.379   5.807  12.110 -0.1942 -0.3446 -2.0120
  935TIP3    H224297   6.321   5.944  12.139  0.8080  0.2486 -2.7924
  936TIP3   OH224298   5.030   4.347   3.034 -0.3774 -0.2743 -0.2391
  936TIP3    H124299   5.108   4.362   2.981  0.7122  0.3850  1.4340
  936TIP3    H224300   5.028   4.252   3.046 -0.7665 -0.4526 -1.5987
  937TIP3   OH224301   1.440   5.818   2.920 -0.0014  0.5545  0.0026
  937TIP3    H124302   1.347   5.841   2.919  0.0575  0.8049 -0.5388
  937TIP3    H224303   1.482   5.890   2.871  0.3811  0.0650 -0.3943
  938TIP3   OH224304   2.414   1.269   4.870 -0.1292 -0.2372  0.1623
  938TIP3    H124305   2.506   1.291   4.887  0.0528 -0.7395 -0.1401
  938TIP3    H224306   2.374   1.352   4.844  0.3574 -0.1049 -0.1845
  939TIP3   OH224307   0.462   2.801  16.182  0.1154 -0.3117  0.3098
  939TIP3    H124308   0.498   2.872  16.129  0.1108 -0.9489 -0.5753
  939TIP3    H224309   0.370   2.796  16.156  0.0105 -0.3653  0.6834
  940TIP3   OH224310   5.304   1.916  16.313  0.2995 -0.4825 -0.8480
  940TIP3    H124311   5.267   1.985  16.369 -2.7161 -0.9839 -2.0388
  940TIP3    H224312   5.324   1.961  16.231 -0.5128 -0.7662 -1.2078
  941TIP3   OH224313   5.021   0.631   3.137  0.2843 -0.0395  0.1880
  941TIP3    H124314   5.075   0.608   3.212  1.6618  1.6313 -0.2168
  941TIP3    H224315   5.067   0.705   3.096 -2.0653  1.1757 -0.4504
  942TIP3   OH224316   4.130   5.890   3.363  0.2892  0.4798 -0.1908
  942TIP3    H124317   4.186   5.930   3.297  0.4386  2.0480  0.8268
  942TIP3    H224318   4.179   5.900   3.445  0.1393 -1.4687  0.1843
  943TIP3   OH224319   0.869   2.588   3.055 -0.0411 -0.1280  0.2122
  943TIP3    H124320   0.888   2.498   3.028  0.8381  0.1634 -0.1882
  943TIP3    H224321   0.800   2.580   3.120  1.7391 -1.3436  2.0765
  944TIP3   OH224322   4.107   1.120   4.383 -0.5676  0.2664  0.3295
  944TIP3    H124323   4.164   1.073   4.444 -0.1097  0.0529 -0.2569
  944TIP3    H224324   4.023   1.126   4.429 -0.5165 -0.7602  0.5826
  945TIP3   OH224325   2.112   5.059   5.806 -0.0880  0.5779 -0.1093
  945TIP3    H124326   2.199   5.075   5.770 -0.7103 -0.5509 -2.3075
  945TIP3    H224327   2.092   5.138   5.857  1.4865  1.6432 -1.0516
  946TIP3   OH224328   3.843   0.876  12.164 -0.1381  0.0953  0.8761
  946TIP3    H124329   3.936   0.897  12.158  0.7818 -3.5976 -1.1002
  946TIP3    H224330   3.835   0.819  12.241 -0.4660 -0.5875  0.3580
  947TIP3   OH224331   6.468   1.409  16.334  0.0499 -0.2238  0.3472
  947TIP3    H124332   6.429   1.338  16.282  0.6515 -0.9111  0.7986
  947TIP3    H224333   6.556   1.420  16.298  0.8060 -1.3216  1.7352
  948TIP3   OH224334   1.573   2.349   0.742  0.0090 -0.1020  0.1351
  948TIP3    H124335   1.594   2.304   0.824 -0.2002 -0.9904 -0.2794
  948TIP3    H224336   1.656   2.383   0.711  0.0656  0.3802  0.7922
  949TIP3   OH224337   5.626   0.431  13.423  0.2206  0.4549 -0.4351
  949TIP3    H124338   5.717   0.413  13.446  0.0095  1.1693  1.1158
  949TIP3    H224339   5.623   0.423  13.328  1.5336 -1.1651 -0.3887
  950TIP3   OH224340   2.801   3.942  15.879 -0.0557 -0.7025 -0.4821
  950TIP3    H124341   2.818   3.881  15.951  0.2258 -1.8304 -1.4782
  950TIP3    H224342   2.805   4.028  15.920  1.0315 -1.2719  0.6899
  951TIP3   OH224343   3.955   0.024   1.384  0.0258 -0.2349  0.6456
  951TIP3    H124344   3.967   0.115   1.357 -0.8177 -0.2614  0.1436
  951TIP3    H224345   3.860   0.014   1.394  0.1497 -0.9054  1.2576
  952TIP3   OH224346   3.381   5.491   0.283  0.4318 -0.0334  0.1827
  952TIP3    H124347   3.461   5.517   0.328  0.1289  1.5812 -0.1587
  952TIP3    H224348   3.312   5.502   0.349  0.2491  0.4317 -0.0795
  953TIP3   OH224349   3.520   5.236   5.819 -0.4442  0.0756  0.2211
  953TIP3    H124350   3.519   5.291   5.741  0.2784  0.2510  0.3332
  953TIP3    H224351   3.467   5.284   5.882 -1.4776 -0.3176 -0.3176
  954TIP3   OH224352   0.581   3.651   1.285  0.0492  0.5585  0.2074
  954TIP3    H124353   0.517   3.692   1.343 -1.9004 -0.7483 -0.9361
  954TIP3    H224354   0.596   3.716   1.216 -0.8007  0.5052 -0.0344
  955TIP3   OH224355   3.812   6.621  12.056  0.4024 -0.1386 -0.1610
  955TIP3    H124356   3.760   6.654  11.983  0.2014 -0.9486 -0.3835
  955TIP3    H224357   3.758   6.554  12.097  0.7935 -0.1701  0.3162
  956TIP3   OH224358   3.184   3.819   5.448  0.4455 -0.6847  0.2000
  956TIP3    H124359   3.123   3.753   5.414  0.8151  0.2368 -2.4217
  956TIP3    H224360   3.131   3.872   5.507 -1.2534 -0.1601 -1.6839
  957TIP3   OH224361   2.309   2.970   3.436  0.3677 -0.2131 -0.2392
  957TIP3    H124362   2.326   2.997   3.526 -0.7899  0.1348 -0.1103
  957TIP3    H224363   2.280   3.049   3.392 -1.2027 -0.8238 -0.3518
  958TIP3   OH224364   3.060   4.983   0.566  0.5990 -0.2267 -0.3001
  958TIP3    H124365   3.092   4.899   0.532 -0.5985 -0.2408 -1.5024
  958TIP3    H224366   3.028   4.963   0.654  1.3224 -0.7843 -0.1519
  959TIP3   OH224367   5.092   3.885   3.712 -0.6835  0.0257  0.3125
  959TIP3    H124368   5.098   3.947   3.785 -0.4465 -0.5115  0.7558
  959TIP3    H224369   5.181   3.880   3.677 -0.8067  0.3237 -0.0554
  960TIP3   OH224370   0.006   2.794  11.919  0.2859  0.4177  0.3295
  960TIP3    H124371   0.076   2.807  11.983 -0.2988  0.3530  1.0072
  960TIP3    H224372   0.002   2.699  11.907 -0.2964  0.3458  1.0151
  961TIP3   OH224373   1.424   0.794  14.903  0.1633  0.9675  0.6801
  961TIP3    H124374   1.505   0.804  14.953 -0.7968  0.3060  2.4876
  961TIP3    H224375   1.359   0.844  14.954 -1.0914 -0.6210  0.7178
  962TIP3   OH224376   4.844   1.747  12.776  0.1976 -0.1284 -0.0688
  962TIP3    H124377   4.810   1.676  12.830  0.7176  0.2392  0.7532
  962TIP3    H224378   4.845   1.823  12.833  0.0735  0.4477 -0.8110
  963TIP3   OH224379   4.536   5.671   0.668 -0.1543 -0.4286  0.0490
  963TIP3    H124380   4.455   5.691   0.714  0.7739 -0.7844  1.9323
  963TIP3    H224381   4.509   5.657   0.577 -2.0756  0.1890  0.4747
  964TIP3   OH224382   6.319   3.957  15.568  0.4427  0.2776 -0.3635
  964TIP3    H124383   6.224   3.955  15.579  0.7615 -0.2496  3.9536
  964TIP3    H224384   6.341   3.874  15.526 -1.0260  1.2724 -3.3574
  965TIP3   OH224385   3.441   6.346  13.533  0.3626  0.4163  0.2610
  965TIP3    H124386   3.406   6.429  13.500  1.5270  1.3032  1.1590
  965TIP3    H224387   3.532   6.345  13.504  0.4371 -0.4218  0.4904
  966TIP3   OH224388   6.063   4.827   4.367  0.6270  0.6698  0.2081
  966TIP3    H124389   6.096   4.761   4.428  0.8917 -0.2653 -0.9235
  966TIP3    H224390   6.074   4.910   4.414  1.2539  0.0223  1.2485
  967TIP3   OH224391   2.807   0.243   0.437 -0.3486  0.2557 -0.2500
  967TIP3    H124392   2.735   0.277   0.385 -1.5363 -0.4690  0.8503
  967TIP3    H224393   2.795   0.283   0.523  0.2841 -0.2371  0.0752
  968TIP3   OH224394   5.057   0.067  13.250 -0.2265 -0.1268 -0.5253
  968TIP3    H124395   5.142   0.096  13.283 -0.2899 -0.3064 -0.1933
  968TIP3    H224396   4.998   0.074  13.326 -1.0246  2.0789 -1.2713
  969TIP3   OH224397   3.023   6.302   3.200  0.0563  0.2783 -0.0467
  969TIP3    H124398   2.978   6.235   3.251 -0.2651  0.8879  0.4932
  969TIP3    H224399   3.115   6.293   3.225  0.0771 -0.2404 -0.3058
  970TIP3   OH224400   6.190   3.606  14.557  0.4989  0.0560 -0.2280
  970TIP3    H124401   6.236   3.655  14.625 -0.3760  1.1814 -0.4143
  970TIP3    H224402   6.105   3.587  14.595  0.0777  0.5191 -0.9109
  971TIP3   OH224403   0.961   0.007  12.391  0.3900  0.2366 -0.5128
  971TIP3    H124404   0.936   0.084  12.442 -0.5406 -0.5347  0.2402
  971TIP3    H224405   1.055  -0.002  12.406  0.3879  0.8489 -0.0809
  972TIP3   OH224406   2.554   6.735   5.896 -0.6475  0.7652 -0.1600
  972TIP3    H124407   2.624   6.714   5.957 -0.5935  0.3603 -0.3631
  972TIP3    H224408   2.477   6.691   5.931 -0.2148 -1.0462 -1.3818
  973TIP3   OH224409   3.122   4.806   3.369 -0.0393 -0.3453  0.2644
  973TIP3    H124410   3.073   4.781   3.291 -0.3351  0.5800  0.1489
  973TIP3    H224411   3.055   4.827   3.434  0.1806  0.8598  0.1258
  974TIP3   OH224412   0.775   1.769   4.857 -0.2662 -0.5497 -0.0229
  974TIP3    H124413   0.811   1.696   4.908 -0.9973 -0.7608  0.2072
  974TIP3    H224414   0.728   1.822   4.921  0.3002  0.1662 -0.1815
  975TIP3   OH224415   1.664   3.204   4.535  1.0036  0.0577 -0.7443
  975TIP3    H124416   1.586   3.257   4.517 -1.0416 -2.7589 -0.8236
  975TIP3    H224417   1.661   3.191   4.630  1.5232  0.1275 -0.7202
  976TIP3   OH224418   1.744   2.993  14.062 -0.4028  0.2793  0.0555
  976TIP3    H124419   1.659   3.034  14.078 -0.0716  0.5254  1.3525
  976TIP3    H224420   1.725   2.900  14.058 -0.8317  0.3820 -0.4663
  977TIP3   OH224421   3.281   1.799  12.106 -0.0890  0.0630  0.4511
  977TIP3    H124422   3.297   1.706  12.092 -3.0966 -0.2485 -1.8693
  977TIP3    H224423   3.321   1.842  12.030 -0.6107  0.3964  0.3555
  978TIP3   OH224424   0.190   1.082   3.093  0.2412 -0.8031  0.1024
  978TIP3    H124425   0.163   1.040   3.011  0.3991 -2.2802  0.7697
  978TIP3    H224426   0.196   1.010   3.156  0.7007  0.2174  1.2727
  979TIP3   OH224427   2.570   1.991  11.131  0.3316 -0.0366 -0.4773
  979TIP3    H124428   2.603   2.006  11.042  3.5060 -1.0397  0.3932
  979TIP3    H224429   2.571   1.896  11.141  0.3586  0.0790  0.7459
  980TIP3   OH224430   3.265   2.197   4.913  0.4712  0.7322  0.6132
  980TIP3    H124431   3.309   2.140   4.850 -1.0272 -0.2612  0.4131
  980TIP3    H224432   3.242   2.275   4.863  0.9224  0.7421  0.4158
  981TIP3   OH224433   1.831   4.829  14.004  0.0928  0.5158  0.4185
  981TIP3    H124434   1.821   4.903  13.943 -0.7973  1.4309  1.6216
  981TIP3    H224435   1.801   4.753  13.954 -1.2124  1.3384 -0.1138
  982TIP3   OH224436   0.280   3.543  11.298  0.0153  0.3499  0.0012
  982TIP3    H124437   0.222   3.496  11.238 -2.0572  1.6489  0.8662
  982TIP3    H224438   0.307   3.621  11.250  1.4949 -0.4599 -0.5588
  983TIP3   OH224439   6.570   3.725   5.914 -0.4751 -0.1154  0.1092
  983TIP3    H124440   6.562   3.782   5.838 -0.0064  1.5944  1.2924
  983TIP3    H224441   6.513   3.650   5.894 -1.4118  0.9342 -1.3243
  984TIP3   OH224442   1.216   4.423  17.135  0.5909  0.9497  0.9550
  984TIP3    H124443   1.195   4.364  17.063  2.7327 -0.3066  1.2733
  984TIP3    H224444   1.187   4.375  17.213  0.6450  1.1520  1.0991
  985TIP3   OH224445   1.973   2.289   1.827  0.2139 -0.0119 -0.4474
  985TIP3    H124446   1.908   2.347   1.787  0.0272 -0.3299 -0.6037
  985TIP3    H224447   1.938   2.201   1.815  1.1070 -0.2627 -1.3497
  986TIP3   OH224448   3.539   0.973   2.458  0.0943  0.0386  0.3736
  986TIP3    H124449   3.612   0.910   2.461  0.1539  0.1444  1.7537
  986TIP3    H224450   3.525   0.988   2.365  3.5373  1.9838 -0.0042
  987TIP3   OH224451   5.128   1.619   3.123 -0.0222 -0.2486  0.3667
  987TIP3    H124452   5.071   1.696   3.125  0.5665  0.3149 -2.0301
  987TIP3    H224453   5.116   1.579   3.209 -0.3667  2.4891  1.7018
  988TIP3   OH224454   4.346   3.688   6.557  0.3298  0.2889 -0.4894
  988TIP3    H124455   4.405   3.717   6.488 -0.2681  0.2736 -1.0178
  988TIP3    H224456   4.384   3.607   6.589  0.5732  0.2551 -0.8567
  989TIP3   OH224457   5.576   1.575   1.752 -0.1771  0.6763  0.5569
  989TIP3    H124458   5.582   1.559   1.846 -0.4412 -1.5719  0.2339
  989TIP3    H224459   5.640   1.516   1.713 -0.3923  1.2526 -0.7171
  990TIP3   OH224460   5.400   5.509   3.816 -0.2144 -0.4237  0.0314
  990TIP3    H124461   5.342   5.456   3.761  0.3005 -0.0439 -0.9071
  990TIP3    H224462   5.429   5.450   3.885 -0.7745 -0.9536 -0.1791
  991TIP3   OH224463   2.446   3.614  13.816  0.3845  0.5845 -0.1144
  991TIP3    H124464   2.399   3.606  13.899  0.0768  1.4897 -0.1803
  991TIP3    H224465   2.440   3.708  13.795 -1.9471  0.0042 -2.5454
  992TIP3   OH224466   6.495   1.423  15.662  0.1438 -0.2900 -0.1389
  992TIP3    H124467   6.466   1.332  15.659 -0.7818 -0.0419  0.7105
  992TIP3    H224468   6.544   1.429  15.745 -0.0643  0.0533 -0.0376
  993TIP3   OH224469   1.193   6.375  12.059  0.1657  0.2626  0.4244
  993TIP3    H124470   1.208   6.357  11.966  2.5236  2.3396  0.3038
  993TIP3    H224471   1.187   6.470  12.064 -0.3804  0.1569  2.3817
  994TIP3   OH224472   6.762   0.907   1.928  0.1765 -0.2494 -0.4780
  994TIP3    H124473   6.853   0.884   1.944  0.1007  0.2997  0.8861
  994TIP3    H224474   6.718   0.823   1.915  0.3295 -0.7934  2.0756
  995TIP3   OH224475   3.259   0.471  12.741 -0.4069  0.4752  0.7427
  995TIP3    H124476   3.335   0.524  12.767 -0.1806  1.2216 -1.2883
  995TIP3    H224477   3.297   0.392  12.703 -0.6434  0.7585 -0.0907
  996TIP3   OH224478   2.996   5.391  12.925  0.4516  0.7925 -0.0590
  996TIP3    H124479   2.991   5.383  13.021  0.5342  0.7095 -0.0609
  996TIP3    H224480   3.015   5.302  12.895  0.4831  0.8301 -0.1487
  997TIP3   OH224481   1.414   4.375  12.982  0.2484 -0.2959  0.3545
  997TIP3    H124482   1.330   4.361  12.939 -0.7653  0.4198  2.0307
  997TIP3    H224483   1.454   4.447  12.934  0.8271 -1.8563 -1.6717
  998TIP3   OH224484   1.566   6.485  16.667  0.0985 -0.2625  0.6705
  998TIP3    H124485   1.596   6.397  16.645 -3.5239 -1.3360 -0.5802
  998TIP3    H224486   1.583   6.536  16.588  0.1213 -0.4261  0.5694
  999TIP3   OH224487   0.013   1.653   3.551 -0.0659 -0.1517 -0.1540
  999TIP3    H124488   0.006   1.608   3.635 -0.0290 -0.7519 -0.4640
  999TIP3    H224489   0.089   1.613   3.508 -1.1993 -1.2157 -1.2578
 1000TIP3   OH224490   6.246   5.939   2.157 -0.2112  0.2284 -0.4650
 1000TIP3    H124491   6.250   5.985   2.241 -0.7639  0.1852 -0.4094
 1000TIP3    H224492   6.337   5.936   2.127 -0.0721  0.6860 -0.1065
 1001TIP3   OH224493   3.190   6.684   0.941 -0.0502  0.6148  0.1568
 1001TIP3    H124494   3.135   6.756   0.971 -0.6473  0.6943 -1.0686
 1001TIP3    H224495   3.134   6.633   0.882  0.2862 -0.9918  1.1434
 1002TIP3   OH224496   4.071   1.149  13.535  0.6006 -0.3937  0.2076
 1002TIP3    H124497   4.105   1.152  13.624 -0.3709  0.6242  0.5702
 1002TIP3    H224498   4.056   1.056  13.517  1.6908 -0.6828  0.7433
 1003TIP3   OH224499   2.555   6.772  14.393  0.7911 -0.0248 -0.0139
 1003TIP3    H124500   2.528   6.681  14.404  1.5023 -0.4394 -1.4019
 1003TIP3    H224501   2.648   6.773  14.414  0.5652  0.6126  1.0153
 1004TIP3   OH224502   2.660   1.283  12.355  0.0141 -0.1040 -0.0684
 1004TIP3    H124503   2.721   1.320  12.420 -1.1157  1.5814  0.0975
 1004TIP3    H224504   2.577   1.276  12.401 -0.5119 -0.0400 -0.9851
 1005TIP3   OH224505   6.186   6.057  13.197  0.7528 -0.2903  0.0014
 1005TIP3    H124506   6.245   6.125  13.229  1.5193 -0.3169 -1.2647
 1005TIP3    H224507   6.099   6.084  13.227  1.3292  0.0169  1.4753
 1006TIP3   OH224508   0.123   5.765  12.559 -0.1836 -0.7149  0.3579
 1006TIP3    H124509   0.131   5.806  12.645 -1.1398 -1.1234  0.6541
 1006TIP3    H224510   0.212   5.769  12.522 -0.0523  0.7279  0.7716
 1007TIP3   OH224511   2.255   1.130  15.584 -0.6440  0.1297  0.1600
 1007TIP3    H124512   2.277   1.069  15.655  0.5870  0.0885 -0.2281
 1007TIP3    H224513   2.286   1.087  15.504 -1.1233  0.6074 -0.2966
 1008TIP3   OH224514   1.084   1.540   3.262 -0.1972 -0.0561 -0.3327
 1008TIP3    H124515   1.160   1.579   3.304  0.7526 -0.6221 -1.4739
 1008TIP3    H224516   1.092   1.565   3.170 -0.6325 -1.2899 -0.7247
 1009TIP3   OH224517   3.432   6.807   5.306  0.1684  0.0062  0.6324
 1009TIP3    H124518   3.415   6.760   5.225  1.1042  0.8051 -0.0600
 1009TIP3    H224519   3.460   6.740   5.368 -0.9993 -0.6770  0.4452
 1010TIP3   OH224520   0.785   4.454   6.237 -0.2056  0.5691 -0.5712
 1010TIP3    H124521   0.776   4.376   6.183  0.5789 -2.1166  2.8136
 1010TIP3    H224522   0.696   4.488   6.248 -0.4096  0.9930 -3.0988
 1011TIP3   OH224523   4.935   3.428   0.698  0.3729  0.8273 -0.2676
 1011TIP3    H124524   4.903   3.514   0.724 -0.8818  1.1974 -2.7481
 1011TIP3    H224525   4.857   3.372   0.696  0.8428  0.1621 -0.5766
 1012TIP3   OH224526   3.693   4.783  12.621  0.2129  0.4808  0.1584
 1012TIP3    H124527   3.704   4.743  12.535  2.2110  1.8203 -0.2747
 1012TIP3    H224528   3.619   4.736  12.660 -0.2327 -0.6948 -1.9529
 1013TIP3   OH224529   6.412   6.708   2.716 -0.0832  0.1542  0.3327
 1013TIP3    H124530   6.387   6.635   2.773 -0.3648  0.6477  0.8499
 1013TIP3    H224531   6.336   6.721   2.659 -0.5229  0.8157  1.0455
 1014TIP3   OH224532   4.439   3.592  15.428  0.5013 -0.3798 -0.3507
 1014TIP3    H124533   4.372   3.524  15.432  1.6376 -1.4942  0.0883
 1014TIP3    H224534   4.418   3.650  15.501  0.1531 -0.8514 -0.0679
 1015TIP3   OH224535   4.224   2.255  15.526  0.3035 -0.2702  0.4047
 1015TIP3    H124536   4.260   2.216  15.606  0.8489 -1.6600 -0.4778
 1015TIP3    H224537   4.131   2.236  15.530  0.5622 -1.8040 -0.0322
 1016TIP3   OH224538   3.662   0.295   5.285 -0.1718 -0.5270 -0.0647
 1016TIP3    H124539   3.647   0.341   5.368  0.0161 -0.7078  0.0708
 1016TIP3    H224540   3.590   0.323   5.229  0.0518  0.0931 -0.0518
 1017TIP3   OH224541   4.222   0.730   3.162 -0.4177  0.3489  0.2965
 1017TIP3    H124542   4.143   0.765   3.201 -2.1157 -0.9327 -1.7497
 1017TIP3    H224543   4.254   0.665   3.226 -1.8331 -0.1166  0.5634
 1018TIP3   OH224544   6.171   6.604  16.899  0.3643  0.4660  0.5361
 1018TIP3    H124545   6.197   6.524  16.946  0.7247  1.6637  2.4706
 1018TIP3    H224546   6.250   6.657  16.896  0.7296 -0.0542 -2.6865
 1019TIP3   OH224547   0.514   4.358   3.137  0.0988  0.0944 -0.3219
 1019TIP3    H124548   0.519   4.372   3.231 -1.8230 -0.0539 -0.1498
 1019TIP3    H224549   0.454   4.426   3.105  1.4805  0.7790 -1.6257
 1020TIP3   OH224550   5.830   6.732   1.554 -0.0312 -0.4434 -0.5830
 1020TIP3    H124551   5.817   6.642   1.584 -3.7252  0.9258  2.8519
 1020TIP3    H224552   5.859   6.779   1.632 -3.3670  2.1461 -0.6872
 1021TIP3   OH224553   4.950   6.147  14.078  0.5451 -0.5335  0.6877
 1021TIP3    H124554   4.881   6.084  14.057  0.1281 -0.7009  2.4247
 1021TIP3    H224555   5.031   6.103  14.051  0.0671 -0.7718 -0.3990
 1022TIP3   OH224556   1.338   2.881   1.772  0.9052 -0.0158  0.5111
 1022TIP3    H124557   1.277   2.953   1.790 -0.2331 -1.2110  1.7223
 1022TIP3    H224558   1.363   2.849   1.859  0.7961 -1.5418  0.0177
 1023TIP3   OH224559   1.239   3.305   5.581  0.0093 -0.4289 -0.5441
 1023TIP3    H124560   1.172   3.350   5.631  1.0073 -0.1763  0.6185
 1023TIP3    H224561   1.267   3.369   5.516  0.2455  0.0528  0.0185
 1024TIP3   OH224562   2.448   3.711  14.836 -0.1880 -0.1980  0.5787
 1024TIP3    H124563   2.457   3.806  14.842 -0.7226 -0.1126  0.0317
 1024TIP3    H224564   2.538   3.678  14.846 -0.1397  0.2899  1.9870
 1025TIP3   OH224565   5.883   5.690   5.646 -0.5014  0.1770 -0.2465
 1025TIP3    H124566   5.845   5.674   5.732 -1.6610 -1.0214 -0.9343
 1025TIP3    H224567   5.977   5.694   5.662 -0.6680 -0.3774  1.0288
 1026TIP3   OH224568   0.448   0.203  11.447  0.2740  0.0866 -0.1321
 1026TIP3    H124569   0.455   0.268  11.378 -0.6731 -0.3818 -0.6784
 1026TIP3    H224570   0.539   0.187  11.474  0.6667  0.2135 -1.3156
 1027TIP3   OH224571   1.711   0.212   0.986 -0.1438 -0.4248 -0.0404
 1027TIP3    H124572   1.699   0.272   1.060 -0.1676  2.0744 -1.9709
 1027TIP3    H224573   1.670   0.255   0.912 -0.1168 -2.8542 -1.5923
 1028TIP3   OH224574   3.439   3.144  16.414 -0.7778  0.7773 -0.0015
 1028TIP3    H124575   3.420   3.083  16.343  0.2826 -0.7335  0.9534
 1028TIP3    H224576   3.498   3.209  16.376  0.9516 -0.8332 -0.1886
 1029TIP3   OH224577   0.090   3.737  14.453 -0.2172  0.2027 -0.3483
 1029TIP3    H124578   0.173   3.756  14.410  1.2102  0.6856  2.3928
 1029TIP3    H224579   0.069   3.815  14.503 -1.6946 -0.3749  0.0184
 1030TIP3   OH224580   1.399   0.303   1.028 -0.1579  1.2349 -0.3939
 1030TIP3    H124581   1.330   0.370   1.029 -1.8460 -0.3926  0.9561
 1030TIP3    H224582   1.469   0.340   1.081 -1.0380  1.9636  0.3035
 1031TIP3   OH224583   2.646   6.797  12.305  0.1341  0.1591 -0.3991
 1031TIP3    H124584   2.738   6.816  12.287  0.0541  1.7628  0.7576
 1031TIP3    H224585   2.615   6.872  12.354 -2.0817  0.1196 -1.6402
 1032TIP3   OH224586   4.011   3.942   3.383 -0.3104  0.0792 -0.5874
 1032TIP3    H124587   4.091   3.989   3.406 -0.0859 -0.9496  0.8548
 1032TIP3    H224588   3.979   3.986   3.304 -0.1523  2.6711  0.6886
 1033TIP3   OH224589   6.683   2.710  16.905  0.5031 -0.2086  0.6031
 1033TIP3    H124590   6.724   2.718  16.819 -1.0342 -1.0735 -0.2338
 1033TIP3    H224591   6.634   2.791  16.916  1.8331  0.5483  1.3387
 1034TIP3   OH224592   0.491   2.753   3.904  0.5488 -0.1736 -0.1260
 1034TIP3    H124593   0.429   2.733   3.834 -0.0932  1.6284 -0.1050
 1034TIP3    H224594   0.557   2.683   3.898  1.7893  1.0777 -4.0361
 1035TIP3   OH224595   1.793   4.493   4.254  1.0572 -0.6818 -0.3382
 1035TIP3    H124596   1.721   4.520   4.197  0.5849  0.0165  0.5793
 1035TIP3    H224597   1.806   4.567   4.313  0.8266 -1.7994  1.1684
 1036TIP3   OH224598   4.621   6.639   0.667  0.1155 -0.1306 -0.0243
 1036TIP3    H124599   4.662   6.588   0.598  0.4862 -0.6575  0.5750
 1036TIP3    H224600   4.563   6.700   0.621  1.0614  0.1752 -0.8494
 1037TIP3   OH224601   2.638   4.360   4.761  0.1779 -0.0174 -0.0837
 1037TIP3    H124602   2.598   4.283   4.802  0.8006 -1.0547 -1.3406
 1037TIP3    H224603   2.731   4.354   4.785  0.5889 -0.7545 -1.7418
 1038TIP3   OH224604   4.811   3.912   4.217 -0.2391  0.0388  0.3128
 1038TIP3    H124605   4.811   3.819   4.239 -1.7568  0.2154  1.1538
 1038TIP3    H224606   4.719   3.939   4.223 -0.1036  1.1866 -1.7288
 1039TIP3   OH224607   5.508   4.156  14.896 -0.4075  0.3748  0.1268
 1039TIP3    H124608   5.465   4.082  14.938 -0.0364 -0.2028 -0.4817
 1039TIP3    H224609   5.486   4.147  14.803  1.4681 -0.2766 -0.3029
 1040TIP3   OH224610   3.754   4.241  12.094 -0.6953  0.5991  0.0326
 1040TIP3    H124611   3.810   4.317  12.080  1.5182 -0.8518  0.4025
 1040TIP3    H224612   3.710   4.227  12.010 -0.3309  1.6602 -0.3496
 1041TIP3   OH224613   1.370   1.821   6.116 -0.4223 -0.0585 -0.4035
 1041TIP3    H124614   1.435   1.785   6.056  0.0550 -0.4384  0.3379
 1041TIP3    H224615   1.298   1.848   6.058  0.1229 -0.1949 -1.1710
 1042TIP3   OH224616   6.642   3.293  13.725 -0.4765 -0.4835 -0.6414
 1042TIP3    H124617   6.667   3.347  13.800 -0.7434 -2.3651  0.8417
 1042TIP3    H224618   6.562   3.334  13.692  0.9662  1.8536 -1.5424
 1043TIP3   OH224619   2.722   0.134   2.845  0.7776  0.0775 -0.6471
 1043TIP3    H124620   2.721   0.211   2.902  0.8667 -0.0164 -0.5167
 1043TIP3    H224621   2.632   0.124   2.816  0.2386 -1.2359  1.3255
 1044TIP3   OH224622   3.256   4.099  16.264 -0.0999 -0.3590  0.0618
 1044TIP3    H124623   3.338   4.059  16.236  2.3384  2.4903  2.5196
 1044TIP3    H224624   3.241   4.062  16.351 -0.7121  0.1580  0.1754
 1045TIP3   OH224625   5.061   4.646  14.666  0.0706  0.4434 -0.1538
 1045TIP3    H124626   5.136   4.588  14.676  0.3713  1.0721  1.9078
 1045TIP3    H224627   5.011   4.610  14.593  2.7306  0.4241 -2.0834
 1046TIP3   OH224628   5.481   5.393   1.652 -0.1921  0.3442  0.3426
 1046TIP3    H124629   5.558   5.347   1.686 -1.3070 -2.2636 -0.4116
 1046TIP3    H224630   5.472   5.360   1.562 -2.5443  0.0613  0.6281
 1047TIP3   OH224631   4.618   0.311  12.955 -0.3878 -0.4894 -0.3203
 1047TIP3    H124632   4.659   0.241  13.006 -0.1399 -0.1090  0.0008
 1047TIP3    H224633   4.611   0.384  13.016  0.0715  0.0313 -0.8824
 1048TIP3   OH224634   2.665   3.936   0.961 -0.2568 -0.1852  0.1052
 1048TIP3    H124635   2.680   3.841   0.965  1.3206 -0.1088 -2.1511
 1048TIP3    H224636   2.575   3.947   0.991  0.0451 -2.1859  2.0391
 1049TIP3   OH224637   5.972   2.334  12.400 -0.4215 -0.1201 -0.3970
 1049TIP3    H124638   6.039   2.344  12.467 -1.4348 -1.7089  0.9416
 1049TIP3    H224639   5.998   2.255  12.352  0.3839  1.0938 -2.0496
 1050TIP3   OH224640   6.451   2.597   1.284 -0.3584  0.1333  0.1194
 1050TIP3    H124641   6.461   2.613   1.377 -1.2801  2.4587 -0.1106
 1050TIP3    H224642   6.414   2.509   1.279 -2.1466  0.6885  2.0908
 1051TIP3   OH224643   2.322   1.391   0.359 -0.7738  0.7054  0.2930
 1051TIP3    H124644   2.352   1.458   0.419  0.4433 -0.2582  0.8044
 1051TIP3    H224645   2.318   1.311   0.412 -2.3032  0.3630 -0.2618
 1052TIP3   OH224646   5.323   0.296   1.635 -0.0912 -0.3467  0.1725
 1052TIP3    H124647   5.232   0.293   1.664 -0.3172  0.4200 -0.4421
 1052TIP3    H224648   5.318   0.322   1.543  0.7513 -0.2438  0.1512
 1053TIP3   OH224649   1.446   2.401  15.425 -0.4433  0.5027  0.1307
 1053TIP3    H124650   1.503   2.389  15.501 -1.6068  0.0008  0.9519
 1053TIP3    H224651   1.418   2.313  15.402 -0.2526  0.6701 -0.7839
 1054TIP3   OH224652   5.100   5.017   2.946  0.3875  0.8978  0.0873
 1054TIP3    H124653   5.058   4.939   2.983  0.0416  1.1923  0.3282
 1054TIP3    H224654   5.120   4.993   2.855 -2.1110  1.4019 -0.6652
 1055TIP3   OH224655   6.566   4.685   4.446 -0.3876 -0.1295  0.3911
 1055TIP3    H124656   6.639   4.664   4.389 -1.8584 -0.6156 -1.4301
 1055TIP3    H224657   6.531   4.599   4.472 -3.0476 -0.1403 -2.5713
 1056TIP3   OH224658   4.860   0.971  16.062 -0.3655  0.2516 -0.2817
 1056TIP3    H124659   4.920   1.012  16.125  1.0358  1.1221 -2.0799
 1056TIP3    H224660   4.778   1.019  16.072  0.6058  2.1234 -0.8214
 1057TIP3   OH224661   2.001   5.763   3.703  0.5737  0.5058 -0.0917
 1057TIP3    H124662   2.035   5.721   3.625  0.5182  2.0483 -0.9969
 1057TIP3    H224663   2.077   5.802   3.746  0.3230  1.8765 -0.8137
 1058TIP3   OH224664   6.563   5.376  10.974 -0.9417 -0.6894 -0.0745
 1058TIP3    H124665   6.501   5.403  10.907 -0.0638 -0.5277 -0.8405
 1058TIP3    H224666   6.648   5.409  10.944 -0.2178 -2.2310  0.1579
 1059TIP3   OH224667   4.326   1.913   4.098 -0.0680 -0.1326  0.2814
 1059TIP3    H124668   4.257   1.847   4.100 -0.6959  0.5107  0.1149
 1059TIP3    H224669   4.365   1.909   4.185 -0.4061 -0.3985  0.4239
 1060TIP3   OH224670   0.431   0.561   0.329 -0.1833  0.1689  0.1538
 1060TIP3    H124671   0.510   0.508   0.335 -1.4462 -1.7196  1.2144
 1060TIP3    H224672   0.389   0.532   0.248  0.6997  1.9958 -1.0313
 1061TIP3   OH224673   1.294   3.126   2.792 -0.4849 -0.5364  0.1041
 1061TIP3    H124674   1.352   3.057   2.759  2.2834  1.4030  0.6314
 1061TIP3    H224675   1.220   3.124   2.731 -0.3495 -3.6249 -0.1603
 1062TIP3   OH224676   6.749   2.208   5.650 -0.6118 -0.1589 -0.1396
 1062TIP3    H124677   6.689   2.262   5.599  0.2996  2.4317  1.3621
 1062TIP3    H224678   6.809   2.171   5.586 -1.6955  0.0028 -1.2865
 1063TIP3   OH224679   6.622   2.384   3.564  0.4269 -0.3598 -0.4214
 1063TIP3    H124680   6.706   2.381   3.519  0.0860 -0.2775 -1.0806
 1063TIP3    H224681   6.644   2.379   3.657  1.1369 -0.6704 -0.5990
 1064TIP3   OH224682   3.437   2.987   1.226 -0.1352 -0.4794  0.3264
 1064TIP3    H124683   3.412   2.949   1.141  0.2471 -1.6882  0.7361
 1064TIP3    H224684   3.445   3.080   1.208 -1.1375 -0.5623 -0.7164
 1065TIP3   OH224685   3.687   2.438  14.869  0.5764  0.3714  0.5585
 1065TIP3    H124686   3.774   2.474  14.848  0.8571 -1.0223 -0.8577
 1065TIP3    H224687   3.703   2.377  14.941  1.0847 -1.0262 -0.6883
 1066TIP3   OH224688   5.009   3.526   4.566 -0.4108 -0.1575  0.4103
 1066TIP3    H124689   4.947   3.584   4.610 -1.4145 -0.9927  0.1518
 1066TIP3    H224690   4.953   3.466   4.515  0.6552 -0.2021 -0.7528
 1067TIP3   OH224691   1.475   3.585   1.715  0.1162  0.3926  0.0639
 1067TIP3    H124692   1.568   3.600   1.700  0.1132 -0.2350 -0.6588
 1067TIP3    H224693   1.472   3.537   1.799  0.4044  0.8133  0.3173
 1068TIP3   OH224694   1.388   3.333   2.553  0.1554  0.0868 -0.4744
 1068TIP3    H124695   1.330   3.386   2.608  1.7507  0.1461  1.2423
 1068TIP3    H224696   1.475   3.373   2.564  0.7170 -0.5628 -2.2206
 1069TIP3   OH224697   0.956   0.580   2.479  0.4303  0.5914 -0.4685
 1069TIP3    H124698   0.868   0.597   2.513  1.5209  2.0979  1.8630
 1069TIP3    H224699   0.952   0.489   2.448 -1.5391  0.1065  0.9993
 1070TIP3   OH224700   5.119   0.063  16.990  0.0467  0.0548  0.0976
 1070TIP3    H124701   5.065  -0.015  16.981 -0.4541  0.2884  1.0060
 1070TIP3    H224702   5.137   0.090  16.900 -1.3555 -0.0204 -0.2290
 1071TIP3   OH224703   5.505   0.127   1.765 -0.2556 -0.3424  0.1496
 1071TIP3    H124704   5.568   0.181   1.814 -0.2683 -1.7825  1.8392
 1071TIP3    H224705   5.438   0.190   1.737  1.0311  0.9376 -0.2099
 1072TIP3   OH224706   3.066   4.355   3.526 -0.0380 -0.1072 -0.0166
 1072TIP3    H124707   3.079   4.261   3.514 -0.7884 -0.1819 -0.2971
 1072TIP3    H224708   3.048   4.388   3.438  0.4875  0.3424  0.0450
 1073TIP3   OH224709   3.456   1.545   0.029  0.1193 -0.0487  0.3642
 1073TIP3    H124710   3.453   1.480   0.100 -1.4184 -0.0626  0.3186
 1073TIP3    H224711   3.508   1.503  -0.040  0.9733 -0.3462  1.1743
 1074TIP3   OH224712   1.412   5.351  16.075 -0.3325  0.3129  0.3529
 1074TIP3    H124713   1.327   5.343  16.117  0.0135 -0.8213  0.8705
 1074TIP3    H224714   1.469   5.292  16.124  0.5514  0.4112 -0.5192
 1075TIP3   OH224715   4.863   1.367  11.549 -0.0730 -0.1262  0.6209
 1075TIP3    H124716   4.907   1.446  11.516  0.0466 -0.9604 -1.3530
 1075TIP3    H224717   4.775   1.371  11.511  0.2599 -1.4174 -0.3786
 1076TIP3   OH224718   0.895   4.605  10.815  0.0714 -0.2401 -0.3525
 1076TIP3    H124719   0.871   4.652  10.735 -2.9468 -0.0418  0.5296
 1076TIP3    H224720   0.974   4.649  10.846 -0.9125  2.3174 -1.1942
 1077TIP3   OH224721   3.388   6.046  13.390 -0.6466 -0.1017  0.1329
 1077TIP3    H124722   3.441   5.991  13.332 -0.1003 -0.1552  0.6666
 1077TIP3    H224723   3.451   6.085  13.450 -1.2653 -0.5684  1.1162
 1078TIP3   OH224724   2.307   2.822  11.691 -0.8805  0.4947 -0.3208
 1078TIP3    H124725   2.338   2.824  11.601 -0.1399 -2.2593 -0.2094
 1078TIP3    H224726   2.264   2.736  11.700  0.0958  0.1904  2.2356
 1079TIP3   OH224727   4.333   5.267  12.871  0.1708  0.2731 -0.2345
 1079TIP3    H124728   4.279   5.242  12.946  0.6125 -0.2204 -0.0723
 1079TIP3    H224729   4.354   5.359  12.886 -1.0536  0.6308 -0.5743
 1080TIP3   OH224730   2.088   1.595   2.715 -0.5652 -0.5130  0.1707
 1080TIP3    H124731   2.091   1.499   2.715  2.9139 -0.5767 -1.9731
 1080TIP3    H224732   2.033   1.617   2.640  0.5941 -0.9458 -0.8432
 1081TIP3   OH224733   3.799   6.068  16.158 -0.5315  0.6117  0.2307
 1081TIP3    H124734   3.705   6.075  16.176 -0.5932 -0.5134  0.3778
 1081TIP3    H224735   3.836   6.029  16.237  0.1550  1.5044  0.3781
 1082TIP3   OH224736   0.997   3.376  15.468  0.7413  0.1168  0.8038
 1082TIP3    H124737   0.938   3.309  15.433 -0.6024  0.6180  1.9939
 1082TIP3    H224738   0.949   3.414  15.542  2.5488  0.5983  1.7985
 1083TIP3   OH224739   6.292   0.179   1.688 -0.0663 -0.4699 -0.3019
 1083TIP3    H124740   6.370   0.181   1.743 -1.4489  0.8930  1.7199
 1083TIP3    H224741   6.326   0.169   1.599  2.3674 -0.2958  0.5416
 1084TIP3   OH224742   0.901   3.569   0.625  0.3503 -0.5616  0.3817
 1084TIP3    H124743   0.839   3.531   0.687  1.8994 -0.7915  1.8580
 1084TIP3    H224744   0.849   3.586   0.546 -1.9006  0.5801  2.0067
 1085TIP3   OH224745   2.018   2.476   5.220 -0.1753  0.3131 -0.3223
 1085TIP3    H124746   2.044   2.451   5.131  0.4620  0.9203 -0.3099
 1085TIP3    H224747   2.098   2.466   5.272 -1.0615 -2.4091  0.7262
 1086TIP3   OH224748   1.928   2.119   4.591  0.5094 -0.1391  0.2549
 1086TIP3    H124749   1.903   2.118   4.498 -0.5008  1.0958  0.4889
 1086TIP3    H224750   2.023   2.132   4.589  0.5654 -0.5719 -0.6066
 1087TIP3   OH224751   0.481   3.707  16.598  0.0529 -0.0428 -0.3305
 1087TIP3    H124752   0.422   3.675  16.665  0.4675  1.2403  0.6835
 1087TIP3    H224753   0.444   3.675  16.515 -0.4788 -1.6133  0.4852
 1088TIP3   OH224754   4.315   6.423   2.984 -0.8086  0.1180 -0.4087
 1088TIP3    H124755   4.365   6.480   3.043  1.3146 -1.0776 -0.9607
 1088TIP3    H224756   4.343   6.335   3.007  0.2386 -0.3918 -3.2963
 1089TIP3   OH224757   6.644   0.175   3.539 -0.2998  0.5493 -0.1322
 1089TIP3    H124758   6.622   0.266   3.521 -1.3764  0.3002 -0.1505
 1089TIP3    H224759   6.565   0.138   3.577 -0.8496 -1.0643 -2.5952
 1090TIP3   OH224760   6.416   5.669   6.223  0.2494 -0.0777 -0.0330
 1090TIP3    H124761   6.485   5.717   6.269 -0.5211  0.5920  0.4540
 1090TIP3    H224762   6.360   5.635   6.293  0.7194 -1.6288 -0.3667
 1091TIP3   OH224763   4.616   0.544   2.841 -0.2253  0.2344 -0.0784
 1091TIP3    H124764   4.557   0.518   2.912  2.1980 -3.5685  0.8877
 1091TIP3    H224765   4.680   0.601   2.882  0.8890 -1.5720  0.8418
 1092TIP3   OH224766   0.305   4.231   4.807 -0.4026 -0.4585 -0.3441
 1092TIP3    H124767   0.293   4.319   4.842 -0.2772 -0.9505  0.9722
 1092TIP3    H224768   0.276   4.172   4.877 -1.9975 -1.4754 -1.7570
 1093TIP3   OH224769   5.990   5.521   4.007 -0.2091  0.2908  0.5213
 1093TIP3    H124770   5.928   5.507   4.078 -2.1728 -1.3974 -1.3966
 1093TIP3    H224771   6.048   5.445   4.010 -0.9275 -0.3006 -0.2613
 1094TIP3   OH224772   2.029   5.330  13.830 -0.1536  0.5959 -0.2092
 1094TIP3    H124773   2.040   5.366  13.743 -0.1204  1.2037  0.0450
 1094TIP3    H224774   1.986   5.245  13.816  1.9310 -0.3904 -0.9873
 1095TIP3   OH224775   3.431   0.238  12.071 -0.2531  0.4414  0.4040
 1095TIP3    H124776   3.477   0.301  12.017  0.4087 -0.0402  0.3997
 1095TIP3    H224777   3.497   0.206  12.132 -0.9922  1.0240  1.5615
 1096TIP3   OH224778   2.496   3.039  12.950 -0.7322 -0.0915 -0.3610
 1096TIP3    H124779   2.445   2.960  12.965 -1.3603  0.3599 -0.0626
 1096TIP3    H224780   2.579   3.023  12.994 -0.4105 -1.0287 -1.2563
 1097TIP3   OH224781   2.716   2.900  17.014 -0.1533  0.1580  0.0924
 1097TIP3    H124782   2.742   2.901  17.106 -0.8940  0.3622  0.3068
 1097TIP3    H224783   2.798   2.892  16.965  0.2051 -0.5000  0.7849
 1098TIP3   OH224784   6.224   5.450  11.277 -0.5484  0.7449 -0.1410
 1098TIP3    H124785   6.235   5.408  11.192  1.2089  1.4999 -0.3229
 1098TIP3    H224786   6.170   5.527  11.258 -0.7307  0.5408 -0.4556
 1099TIP3   OH224787   3.232   1.469   5.963  0.1413 -0.2199  0.3220
 1099TIP3    H124788   3.275   1.541   5.916  2.3841 -0.9173  1.1538
 1099TIP3    H224789   3.230   1.499   6.054 -1.9771  0.1237  0.2046
 1100TIP3   OH224790   1.104   5.135   5.045 -0.8929 -0.4205  0.4708
 1100TIP3    H124791   1.136   5.093   4.964  0.9321  1.9023 -0.1283
 1100TIP3    H224792   1.145   5.085   5.115 -0.6134 -1.0516 -0.1233
 1101TIP3   OH224793   3.983   0.299  15.258 -0.3536  0.1821  0.4115
 1101TIP3    H124794   4.056   0.238  15.267 -1.4075 -1.1288  0.3925
 1101TIP3    H224795   3.930   0.286  15.336 -0.7323  0.8941  0.2841
 1102TIP3   OH224796   4.385   3.810  16.304 -0.0637  0.1134  0.3262
 1102TIP3    H124797   4.434   3.839  16.227 -2.9323 -1.3921 -2.2510
 1102TIP3    H224798   4.307   3.865  16.306 -1.7775 -2.1568 -0.0813
 1103TIP3   OH224799   1.809   2.083   5.508  0.3122  0.0362 -0.9115
 1103TIP3    H124800   1.890   2.036   5.485  1.6402  1.7084  0.0846
 1103TIP3    H224801   1.807   2.158   5.448  0.2340  0.7303 -0.0610
 1104TIP3   OH224802   2.970   2.206   5.408 -0.0678  0.4873  0.2448
 1104TIP3    H124803   2.908   2.142   5.375  0.6489 -0.8003  1.3177
 1104TIP3    H224804   3.046   2.155   5.436  0.1049  1.6630  2.1088
 1105TIP3   OH224805   2.574   0.517  15.184 -0.1796 -0.1279 -0.7258
 1105TIP3    H124806   2.588   0.453  15.115  1.4007 -0.3062 -0.2956
 1105TIP3    H224807   2.516   0.474  15.246  1.7454 -1.6781  0.1318
 1106TIP3   OH224808   0.734   0.025  13.727  0.0848 -0.0234  0.2947
 1106TIP3    H124809   0.760   0.085  13.657 -1.6438  0.8973  0.3707
 1106TIP3    H224810   0.799   0.039  13.796 -0.7137  2.4632  0.6623
 1107TIP3   OH224811   1.786   2.480   5.388  0.1591  0.5209 -0.3969
 1107TIP3    H124812   1.869   2.479   5.339  1.3385  0.5472  1.5161
 1107TIP3    H224813   1.812   2.482   5.480 -1.9655  2.0068  0.2577
 1108TIP3   OH224814   3.723   6.482   4.959 -0.4125 -0.4569  0.0993
 1108TIP3    H124815   3.659   6.412   4.971 -0.4188 -0.4585  0.0575
 1108TIP3    H224816   3.678   6.560   4.991 -0.1635 -0.5827  0.7786
 1109TIP3   OH224817   2.393   0.970   0.261  0.3918 -0.3777 -0.1473
 1109TIP3    H124818   2.305   0.933   0.269  0.4054 -0.1513  1.4569
 1109TIP3    H224819   2.391   1.049   0.315  2.1239 -1.4477  1.6314
 1110TIP3   OH224820   6.535   6.518   3.936 -0.1273  0.0352 -0.0828
 1110TIP3    H124821   6.524   6.443   3.994 -0.7763  0.5063  0.4237
 1110TIP3    H224822   6.549   6.592   3.995 -2.4832  0.8306 -0.3807
 1111TIP3   OH224823   2.770   1.864  15.930  0.0697  0.2892  0.1188
 1111TIP3    H124824   2.820   1.894  16.006  0.1141 -0.7453  0.5175
 1111TIP3    H224825   2.836   1.850  15.862  0.1831  0.0250  0.2830
 1112TIP3   OH224826   1.794   4.374  16.059 -0.4537 -0.1336 -0.0772
 1112TIP3    H124827   1.848   4.330  15.993  0.4581  0.2287  0.4082
 1112TIP3    H224828   1.817   4.467  16.051 -1.2575  0.0711 -0.0807
 1113TIP3   OH224829   1.889   0.923   4.302  0.0579 -0.0300 -0.5611
 1113TIP3    H124830   1.898   0.829   4.321 -0.6087  0.4646  3.0752
 1113TIP3    H224831   1.795   0.935   4.287  0.0590  0.1359 -0.4392
 1114TIP3   OH224832   1.232   0.527   5.395  0.4075 -0.5290 -0.8271
 1114TIP3    H124833   1.251   0.577   5.474  0.8562 -0.3438 -1.0503
 1114TIP3    H224834   1.289   0.451   5.400 -1.6959 -2.1568  0.5425
 1115TIP3   OH224835   4.706   4.376   2.355  0.1214  0.4858 -0.4124
 1115TIP3    H124836   4.738   4.463   2.377 -0.0042 -0.1028  2.5627
 1115TIP3    H224837   4.780   4.318   2.372  0.0778 -0.0520 -1.9429
 1116TIP3   OH224838   2.657   2.769  11.443 -0.2484  0.1646 -0.0218
 1116TIP3    H124839   2.638   2.771  11.349 -0.2085  2.4646 -0.0504
 1116TIP3    H224840   2.654   2.861  11.469 -3.0328 -0.5618  2.8086
 1117TIP3   OH224841   4.560   0.146  14.872  0.0960 -0.1625 -0.3354
 1117TIP3    H124842   4.567   0.199  14.951 -0.6529  0.5133 -0.7045
 1117TIP3    H224843   4.506   0.199  14.813  0.4383 -0.7625 -1.2031
 1118TIP3   OH224844   2.988   2.527   5.408 -0.3320 -0.1427 -0.6863
 1118TIP3    H124845   2.901   2.564   5.417 -0.1323  0.2337 -0.2884
 1118TIP3    H224846   2.975   2.432   5.415 -0.8352 -0.1608 -1.6767
 1119TIP3   OH224847   4.512   4.451  17.188  0.2269  0.3859  0.7224
 1119TIP3    H124848   4.588   4.450  17.245  0.2314  1.7123  0.7553
 1119TIP3    H224849   4.458   4.523  17.220 -1.1897 -0.6947  0.8691
 1120TIP3   OH224850   3.357   5.502  16.156  0.1325  0.0954  0.3147
 1120TIP3    H124851   3.360   5.480  16.249  0.6813 -1.0896  0.0437
 1120TIP3    H224852   3.326   5.592  16.153 -1.3173 -0.3265  1.5661
 1121TIP3   OH224853   1.761   2.917  10.702  0.0565 -0.1813  0.7836
 1121TIP3    H124854   1.786   3.007  10.722  3.1443 -0.9466  0.9779
 1121TIP3    H224855   1.687   2.925  10.642  0.4352  2.4968  0.5640
 1122TIP3   OH224856   3.738   1.134  11.979 -0.4945  0.3536 -0.0259
 1122TIP3    H124857   3.832   1.150  11.975 -0.5501  0.8443  0.5074
 1122TIP3    H224858   3.730   1.044  12.010 -0.1897 -0.1828 -1.4459
 1123TIP3   OH224859   0.111   6.827  15.299  0.2397 -0.2825  0.1733
 1123TIP3    H124860   0.171   6.894  15.265  0.4194 -0.5559 -0.0471
 1123TIP3    H224861   0.024   6.865  15.288  0.3292 -0.1621 -0.1316
 1124TIP3   OH224862   4.682   0.345  15.053 -0.0510 -0.3134  0.5645
 1124TIP3    H124863   4.626   0.421  15.033 -1.0874 -1.1271  0.2839
 1124TIP3    H224864   4.722   0.367  15.137  0.6439  1.0797 -0.0888
 1125TIP3   OH224865   3.428   3.617   1.439  0.3716 -0.4573 -0.4034
 1125TIP3    H124866   3.466   3.637   1.524 -0.1046  1.8872 -0.6869
 1125TIP3    H224867   3.460   3.686   1.381 -1.0986 -0.7308 -1.5945
 1126TIP3   OH224868   1.633   6.667  14.734 -0.5802  0.5237  0.8037
 1126TIP3    H124869   1.599   6.709  14.655  0.6401  0.0742  0.0180
 1126TIP3    H224870   1.640   6.574  14.712  3.7612  0.8535 -0.1713
 1127TIP3   OH224871   2.557   4.222  11.576 -0.4162 -0.0013  0.0163
 1127TIP3    H124872   2.596   4.136  11.562 -1.4057 -0.2500 -1.4219
 1127TIP3    H224873   2.501   4.236  11.499 -0.1707  1.9765  0.1384
 1128TIP3   OH224874   1.204   6.715   1.529 -0.5030  0.8702 -0.6591
 1128TIP3    H124875   1.226   6.626   1.502 -0.2173  1.4097 -2.2951
 1128TIP3    H224876   1.114   6.728   1.500 -0.6672  1.0155 -0.1147
 1129TIP3   OH224877   0.050   3.734  11.337 -0.2735  0.0815  0.1068
 1129TIP3    H124878  -0.006   3.751  11.261 -0.3173 -1.3596 -0.2132
 1129TIP3    H224879   0.102   3.658  11.313  1.3385  0.9455  0.6840
 1130TIP3   OH224880   6.529   5.410  12.726 -0.2216  0.0348  0.7766
 1130TIP3    H124881   6.446   5.438  12.764 -0.7926  0.2111 -0.5383
 1130TIP3    H224882   6.578   5.491  12.712 -1.0629  0.2796 -1.1683
 1131TIP3   OH224883   0.340   2.098   2.461  0.5816 -0.5937  0.1800
 1131TIP3    H124884   0.259   2.074   2.505  1.8190 -1.7034  1.9883
 1131TIP3    H224885   0.366   2.019   2.413  0.8346 -0.4054  0.0045
 1132TIP3   OH224886   6.319   2.350  12.675 -0.1359  0.0019 -0.0051
 1132TIP3    H124887   6.267   2.378  12.600 -0.1274 -1.5381 -0.6427
 1132TIP3    H224888   6.351   2.263  12.650 -0.7569 -0.8832  2.0969
 1133TIP3   OH224889   0.330   3.303   0.137  0.7623  0.1510  0.3493
 1133TIP3    H124890   0.242   3.316   0.099  0.6970 -0.1264  0.4031
 1133TIP3    H224891   0.389   3.344   0.074  0.6502 -0.2716 -0.0397
 1134TIP3   OH224892   4.532   4.333   4.283  0.3812 -0.0027 -0.6804
 1134TIP3    H124893   4.439   4.344   4.299  0.5792  0.2900  0.3362
 1134TIP3    H224894   4.545   4.239   4.274  0.4243 -0.3639  2.2260
 1135TIP3   OH224895   5.694   6.676  16.016  1.1031  0.5237  0.0838
 1135TIP3    H124896   5.716   6.763  15.981  0.2138  1.2619  1.2791
 1135TIP3    H224897   5.774   6.646  16.059  0.9819  1.4282  0.9710
 1136TIP3   OH224898   5.661   4.984   4.929 -0.8542  0.3084 -0.0400
 1136TIP3    H124899   5.626   5.039   4.858  0.7896  0.7896 -0.5281
 1136TIP3    H224900   5.751   5.014   4.940 -1.2478  0.6954  2.7401
 1137TIP3   OH224901   4.419   0.486   0.385 -0.3777  0.2452 -0.4079
 1137TIP3    H124902   4.420   0.460   0.292 -1.0012 -0.2298 -0.2896
 1137TIP3    H224903   4.383   0.574   0.385 -0.5466  0.1778 -0.6018
 1138TIP3   OH224904   3.555   6.828  16.225  0.3935 -0.5066 -0.4997
 1138TIP3    H124905   3.587   6.918  16.228 -0.3659 -0.2417  0.2539
 1138TIP3    H224906   3.634   6.775  16.213  1.0166  0.1828  0.3466
 1139TIP3   OH224907   2.914   2.912  12.440  0.2188 -0.0068 -0.4722
 1139TIP3    H124908   2.988   2.876  12.392 -0.3114 -1.0688 -0.5117
 1139TIP3    H224909   2.940   3.002  12.459  2.0123 -0.6873  0.5466
 1140TIP3   OH224910   2.778   5.595   5.423  0.2583  0.3188 -0.5738
 1140TIP3    H124911   2.829   5.577   5.344 -0.9132  1.9045 -1.7615
 1140TIP3    H224912   2.832   5.656   5.473  0.9910 -0.6689 -0.1131
 1141TIP3   OH224913   5.614   1.551   3.646 -0.3014  0.2517  1.0895
 1141TIP3    H124914   5.526   1.526   3.617  1.2939 -1.3039 -3.2934
 1141TIP3    H224915   5.618   1.646   3.630 -0.3534 -0.1442 -1.7885
 1142TIP3   OH224916   1.794   0.238  12.680 -0.1321  0.5845  0.5569
 1142TIP3    H124917   1.726   0.201  12.624  0.5059 -0.7823  0.6380
 1142TIP3    H224918   1.790   0.185  12.760  1.4205  0.0637  0.3194
 1143TIP3   OH224919   1.126   5.641  13.479 -0.3777  0.8962  0.2385
 1143TIP3    H124920   1.100   5.577  13.413  1.9909  0.2291 -0.1432
 1143TIP3    H224921   1.145   5.589  13.557 -0.3918  1.3568  0.5497
 1144TIP3   OH224922   2.881   5.368   4.342 -0.5018  0.2379 -0.3695
 1144TIP3    H124923   2.831   5.293   4.373 -0.5498 -1.0055 -3.1086
 1144TIP3    H224924   2.909   5.343   4.254  4.6749  0.9623  0.7348
 1145TIP3   OH224925   6.318   5.426   4.669  0.2627  0.4445 -0.1243
 1145TIP3    H124926   6.382   5.431   4.599  0.4993 -0.0762  0.0502
 1145TIP3    H224927   6.367   5.395   4.745 -0.3713 -0.8907 -0.2315
 1146TIP3   OH224928   5.833   6.256   1.671 -0.3173  0.1141 -0.8018
 1146TIP3    H124929   5.871   6.238   1.758 -0.5455  0.7581 -0.5661
 1146TIP3    H224930   5.773   6.183   1.657 -0.2331 -0.0297 -0.4419
 1147TIP3   OH224931   2.669   0.101   0.194  0.5173  0.3504 -0.1986
 1147TIP3    H124932   2.655   0.193   0.174  0.2467  0.2142 -0.6365
 1147TIP3    H224933   2.607   0.054   0.139  1.0877 -0.1283 -0.4518
 1148TIP3   OH224934   1.032   3.348  12.347 -0.1613 -0.5074 -0.1749
 1148TIP3    H124935   1.116   3.387  12.326 -0.7982  1.9223  1.3859
 1148TIP3    H224936   1.007   3.300  12.268  3.3434 -2.6947 -0.1691
 1149TIP3   OH224937   4.724   2.109  14.240 -0.6308  0.0027 -0.0501
 1149TIP3    H124938   4.659   2.097  14.309  1.4254 -3.9177  1.5391
 1149TIP3    H224939   4.793   2.162  14.281 -0.6100 -0.0487 -0.0180
 1150TIP3   OH224940   4.013   2.908  10.961  0.2794 -0.5506 -0.2135
 1150TIP3    H124941   4.002   2.818  10.931 -1.3520 -0.5655  0.3195
 1150TIP3    H224942   3.924   2.939  10.978  0.8038  1.1600 -0.3559
 1151TIP3   OH224943   1.898   2.929   6.379 -0.2123 -0.3133  0.1693
 1151TIP3    H124944   1.935   2.992   6.441  1.7657 -0.4148 -0.8483
 1151TIP3    H224945   1.837   2.877   6.432  0.6434  0.2662  1.7914
 1152TIP3   OH224946   0.716   3.592   6.577 -0.1492 -0.0536 -0.4433
 1152TIP3    H124947   0.719   3.618   6.669 -1.6736 -0.5248 -0.2369
 1152TIP3    H224948   0.728   3.675   6.530 -0.9763  0.4635  0.2004
 1153TIP3   OH224949   3.082   4.748   4.833 -0.5463  0.5695 -0.2192
 1153TIP3    H124950   2.993   4.741   4.866  0.2959  1.6487  2.5212
 1153TIP3    H224951   3.110   4.836   4.857  1.1786  0.3765 -1.3105
 1154TIP3   OH224952   1.122   1.487   1.486  0.1261  0.4736 -1.0335
 1154TIP3    H124953   1.126   1.463   1.393 -1.2951  1.2855 -1.3316
 1154TIP3    H224954   1.051   1.434   1.521 -0.6009  1.5458 -0.8553
 1155TIP3   OH224955   4.784   5.570  16.842  0.2584 -0.5106  0.0641
 1155TIP3    H124956   4.760   5.508  16.773 -0.5492  0.5754 -0.6752
 1155TIP3    H224957   4.726   5.548  16.915 -0.5429 -0.1721 -0.4563
 1156TIP3   OH224958   6.311   0.072  12.696 -0.0288 -0.9013  0.2073
 1156TIP3    H124959   6.365  -0.005  12.678 -0.9880 -1.6644  0.4587
 1156TIP3    H224960   6.261   0.048  12.774 -0.1521  0.0854  0.4405
 1157TIP3   OH224961   1.565   3.556   1.993 -0.7022  0.0013  0.0218
 1157TIP3    H124962   1.581   3.636   2.044  0.0401  0.0072 -0.1977
 1157TIP3    H224963   1.533   3.493   2.057  2.9704 -0.9375  1.2283
 1158TIP3   OH224964   1.347   3.993   1.596  0.5176 -0.2489  0.1873
 1158TIP3    H124965   1.410   3.986   1.668 -1.1706 -2.0586  1.6076
 1158TIP3    H224966   1.321   3.903   1.578 -0.9941  0.3769 -0.9786
 1159TIP3   OH224967   2.265   0.032  15.258  0.0052  0.1837 -0.4686
 1159TIP3    H124968   2.299  -0.056  15.276  2.1522  1.5041  3.0657
 1159TIP3    H224969   2.176   0.017  15.226 -0.6201 -3.2795  2.2172
 1160TIP3   OH224970   0.195   0.886   1.596 -0.9137 -0.3058 -0.1020
 1160TIP3    H124971   0.280   0.918   1.625 -1.6530  0.4039  1.4261
 1160TIP3    H224972   0.196   0.792   1.618 -1.1194  0.0343  1.5210
 1161TIP3   OH224973   3.124   4.482   3.938 -0.7203 -0.1177  0.0679
 1161TIP3    H124974   3.099   4.534   3.861 -1.7642  1.3054  1.2904
 1161TIP3    H224975   3.189   4.536   3.983 -2.7185  0.8270  2.0177
 1162TIP3   OH224976   2.490   2.082   0.755 -0.3602  0.1589 -0.8875
 1162TIP3    H124977   2.483   2.126   0.839 -0.3606  1.2035 -1.4115
 1162TIP3    H224978   2.551   2.010   0.770 -0.4958  0.2254  0.0366
 1163TIP3   OH224979   1.298   0.973   5.457 -0.1372  0.2103 -0.2487
 1163TIP3    H124980   1.341   1.025   5.525  0.8879  0.3109 -0.9437
 1163TIP3    H224981   1.327   0.884   5.473 -1.2361 -0.0354  0.4453
 1164TIP3   OH224982   4.406   3.889  12.746 -0.4576  0.0505  0.0476
 1164TIP3    H124983   4.403   3.824  12.675  2.2398  1.1139 -1.1961
 1164TIP3    H224984   4.489   3.935  12.732 -0.9643  1.9084  2.5392
 1165TIP3   OH224985   4.798   4.162  14.274  0.5908 -0.4811 -0.2088
 1165TIP3    H124986   4.890   4.169  14.247  0.4218  0.4478 -0.5847
 1165TIP3    H224987   4.799   4.186  14.367  0.6353  0.2755 -0.3969
 1166TIP3   OH224988   1.718   5.361  13.474 -0.4382 -0.5641 -0.2789
 1166TIP3    H124989   1.804   5.370  13.515  0.2356 -0.0852 -1.6864
 1166TIP3    H224990   1.687   5.275  13.499  0.1432 -0.4608  0.8242
 1167TIP3   OH224991   2.987   3.763  10.421 -0.4295  0.2046 -0.5508
 1167TIP3    H124992   2.997   3.858  10.412  1.2053  0.4255  2.4426
 1167TIP3    H224993   3.073   3.728  10.400 -1.3284 -0.8580 -2.8707
 1168TIP3   OH224994   3.027   2.854   4.366 -0.2037 -0.0163 -0.0109
 1168TIP3    H124995   3.044   2.764   4.395 -1.3965 -0.1620  0.2742
 1168TIP3    H224996   3.028   2.905   4.447 -0.1047  0.1398 -0.1115
 1169TIP3   OH224997   4.176   5.140  13.429  0.4193  0.5803  0.3068
 1169TIP3    H124998   4.194   5.202  13.358 -1.2719  0.9317  0.1548
 1169TIP3    H224999   4.081   5.139  13.437  0.5331 -0.1082  2.0007
 1170TIP3   OH225000   6.301   5.511  12.858 -0.2951  0.4143  0.0304
 1170TIP3    H125001   6.347   5.587  12.894  1.3011  0.9059 -2.7441
 1170TIP3    H225002   6.210   5.524  12.885  0.7001  0.5268  3.9050
 1171TIP3   OH225003   1.555   2.908  11.892  0.6453  0.2335  0.0098
 1171TIP3    H125004   1.643   2.944  11.883  2.3942 -3.2369  1.5685
 1171TIP3    H225005   1.549   2.840  11.825 -0.3695 -0.4024  0.7060
 1172TIP3   OH225006   4.370   1.283  12.758  0.1855 -0.0068  0.6972
 1172TIP3    H125007   4.460   1.271  12.789 -0.3892 -0.4746  2.2402
 1172TIP3    H225008   4.316   1.232  12.818 -0.9682 -1.3678 -1.3598
 1173TIP3   OH225009   0.862   4.457  13.942 -0.4859 -0.1374 -0.0038
 1173TIP3    H125010   0.948   4.417  13.952 -0.4394 -0.6261 -1.9607
 1173TIP3    H225011   0.851   4.467  13.848 -2.3999  0.3252  0.2292
 1174TIP3   OH225012   0.587   4.326  10.637  0.3309 -0.1692 -0.1165
 1174TIP3    H125013   0.502   4.303  10.674  0.0619  1.3559  0.2797
 1174TIP3    H225014   0.574   4.319  10.542 -1.0852  2.4918 -0.2409
 1175TIP3   OH225015   1.892   0.002   0.816 -0.1884  0.3201  0.2538
 1175TIP3    H125016   1.884   0.097   0.823  2.4549  0.5897  0.7564
 1175TIP3    H225017   1.932  -0.025   0.899 -0.6550 -1.2249  0.0248
 1176TIP3   OH225018   4.258   5.150  10.475  0.7519 -0.1157  0.0624
 1176TIP3    H125019   4.258   5.240  10.507  0.2049  0.8993 -2.5380
 1176TIP3    H225020   4.183   5.145  10.416  0.0989 -2.6330  0.9703
 1177TIP3   OH225021   6.519   6.325  13.606  0.8556  0.2466 -0.4616
 1177TIP3    H125022   6.595   6.279  13.644 -0.9573 -3.2187 -0.6796
 1177TIP3    H225023   6.465   6.347  13.682 -0.2617 -1.9159 -0.5706
 1178TIP3   OH225024   2.754   0.615  14.143  0.4392  0.1272 -0.2268
 1178TIP3    H125025   2.708   0.671  14.207  0.4974  1.1869 -1.0908
 1178TIP3    H225026   2.804   0.554  14.197 -0.9730 -0.2417  0.7455
 1179TIP3   OH225027   6.622   1.160  12.582  0.1868 -0.8492 -0.0220
 1179TIP3    H125028   6.611   1.145  12.676 -1.0696 -0.7554 -0.1331
 1179TIP3    H225029   6.666   1.245  12.577 -0.8694 -0.2493  0.4853
 1180TIP3   OH225030   3.409   3.019  15.844  0.2840 -0.5701  0.0947
 1180TIP3    H125031   3.367   2.933  15.848  1.1842 -1.0650 -0.5359
 1180TIP3    H225032   3.337   3.081  15.838 -0.4089 -1.2173  1.2558
 1181TIP3   OH225033   4.964   1.318   3.567  0.0209 -0.1926  0.0120
 1181TIP3    H125034   4.991   1.244   3.513 -0.9801 -0.3266 -0.3344
 1181TIP3    H225035   4.963   1.282   3.656 -1.1232 -0.8311 -0.2274
 1182TIP3   OH225036   3.937   5.955  15.220  0.8260  0.2374 -0.7641
 1182TIP3    H125037   3.970   5.927  15.305 -0.2158  0.2173 -0.3625
 1182TIP3    H225038   3.966   5.886  15.160  1.1599  0.0098 -0.3504
 1183TIP3   OH225039   5.374   4.296   4.576 -0.2170 -0.7728 -0.7413
 1183TIP3    H125040   5.371   4.347   4.495 -0.7429 -0.8797 -0.7950
 1183TIP3    H225041   5.315   4.222   4.560  1.4231 -2.0702 -1.1068
 1184TIP3   OH225042   6.643   6.078  12.614  0.3231  0.1213  0.3886
 1184TIP3    H125043   6.598   6.158  12.643  0.7248 -0.0032  1.4142
 1184TIP3    H225044   6.725   6.109  12.576  0.2641  0.2258  0.3449
 1185TIP3   OH225045   5.275   4.067   4.059  0.3810  0.1713 -0.6403
 1185TIP3    H125046   5.325   4.148   4.054 -0.0925  0.4853 -0.3498
 1185TIP3    H225047   5.337   4.004   4.098  0.5515  0.5532 -0.2839
 1186TIP3   OH225048   5.744   3.856   2.856  0.1900 -0.7415 -0.5275
 1186TIP3    H125049   5.818   3.865   2.796  0.6346 -0.9175 -0.0112
 1186TIP3    H225050   5.698   3.778   2.825  1.8649 -2.3714  0.8586
 1187TIP3   OH225051   5.535   1.030   1.013 -0.5563  0.2914 -0.1894
 1187TIP3    H125052   5.504   0.965   0.949  0.6745  1.2463 -1.8260
 1187TIP3    H225053   5.617   0.994   1.045 -1.5088 -0.5288  1.4780
 1188TIP3   OH225054   2.072   4.192   3.673 -0.4006 -0.1101  0.0309
 1188TIP3    H125055   2.023   4.131   3.619  2.2167 -2.4815  0.0879
 1188TIP3    H225056   2.082   4.147   3.758 -0.0005  1.2288  0.7253
 1189TIP3   OH225057   1.478   5.268   0.576 -0.4089 -0.4308  0.6209
 1189TIP3    H125058   1.383   5.267   0.570 -0.3490 -0.8849 -0.7591
 1189TIP3    H225059   1.500   5.185   0.620 -0.6242 -0.8673 -0.0693
 1190TIP3   OH225060   1.625   6.468  11.339 -0.2988 -0.1062  0.1433
 1190TIP3    H125061   1.690   6.480  11.269  0.5830 -0.5101  0.8692
 1190TIP3    H225062   1.541   6.466  11.294  0.2906 -0.7827 -0.9604
 1191TIP3   OH225063   3.281   3.213  17.048  0.4182 -0.0019 -0.6048
 1191TIP3    H125064   3.364   3.199  17.094 -0.0094 -0.6990 -0.0294
 1191TIP3    H225065   3.227   3.139  17.073  0.0913 -0.3064 -2.0950
 1192TIP3   OH225066   1.827   1.158  16.763  0.4066 -0.7618  0.2601
 1192TIP3    H125067   1.902   1.202  16.803  0.1164  1.0687 -1.0764
 1192TIP3    H225068   1.866   1.093  16.705  0.9447 -0.4905  0.3071
 1193TIP3   OH225069   2.373   2.857   0.114  0.0944  0.3548  0.2071
 1193TIP3    H125070   2.381   2.783   0.053  1.8161  1.4701 -1.0248
 1193TIP3    H225071   2.450   2.849   0.171 -0.3780  0.5089  0.8754
 1194TIP3   OH225072   2.622   6.230  17.100  0.1540  0.1521 -0.2596
 1194TIP3    H125073   2.628   6.148  17.149 -0.7099 -0.2598 -0.8150
 1194TIP3    H225074   2.534   6.262  17.119  0.6835  1.2745  0.4285
 1195TIP3   OH225075   5.781   3.955  14.491 -0.6781 -0.4157  0.7156
 1195TIP3    H125076   5.808   3.866  14.469 -0.6458 -0.8263  2.3171
 1195TIP3    H225077   5.713   3.976  14.427 -0.5252 -1.4887  0.1790
 1196TIP3   OH225078   0.723   1.871  14.231 -0.2682  0.4428 -0.3382
 1196TIP3    H125079   0.715   1.776  14.229  1.0705  0.2700  0.8160
 1196TIP3    H225080   0.753   1.895  14.143  3.2815 -0.6817  0.4186
 1197TIP3   OH225081   0.439   5.658  11.758 -0.2353  0.3186  0.6684
 1197TIP3    H125082   0.426   5.733  11.700  1.3878 -1.0870 -1.6964
 1197TIP3    H225083   0.502   5.689  11.824  1.3541  0.7659 -0.9890
 1198TIP3   OH225084   4.411   3.611  16.487 -0.0451  0.1125 -0.4650
 1198TIP3    H125085   4.392   3.523  16.456 -1.5929  0.5166 -0.7324
 1198TIP3    H225086   4.420   3.664  16.407  0.4558  0.2838 -0.2995
 1199TIP3   OH225087   6.162   6.593   0.074  0.5671 -0.5583  0.1655
 1199TIP3    H125088   6.251   6.620   0.050  1.3738  0.1477  3.4375
 1199TIP3    H225089   6.174   6.537   0.151 -1.8354 -0.2249  0.8631
 1200TIP3   OH225090   0.156   5.940  16.560  0.4210 -0.2011 -0.6478
 1200TIP3    H125091   0.243   5.964  16.531  0.4499 -0.0615 -0.4500
 1200TIP3    H225092   0.108   6.023  16.562  0.6045 -0.1033  0.3242
 1201TIP3   OH225093   1.262   6.503   3.610  0.1612 -0.3392  0.2477
 1201TIP3    H125094   1.172   6.498   3.577  0.2822  1.2618 -0.4008
 1201TIP3    H225095   1.258   6.458   3.695 -1.6446  1.0636  0.9986
 1202TIP3   OH225096   2.108   2.505   6.378 -0.1426  0.5284  0.3313
 1202TIP3    H125097   2.186   2.551   6.409 -1.6390  1.3466  3.1479
 1202TIP3    H225098   2.136   2.465   6.295  2.8521  1.8527  0.5692
 1203TIP3   OH225099   3.527   1.564  14.955 -0.1331  0.3343 -0.5774
 1203TIP3    H125100   3.507   1.624  15.027 -0.1019 -0.4264  0.0771
 1203TIP3    H225101   3.476   1.598  14.881 -0.2358  1.0723 -0.1815
 1204TIP3   OH225102   1.412   6.040   2.698  0.4815  0.1298 -0.2077
 1204TIP3    H125103   1.436   6.111   2.756  0.6991  1.8459 -2.2606
 1204TIP3    H225104   1.319   6.054   2.679  0.3906 -0.4585 -0.2331
 1205TIP3   OH225105   4.336   2.467   3.719 -0.5131  0.1323  0.0477
 1205TIP3    H125106   4.352   2.394   3.779 -0.0925 -0.6396 -0.9735
 1205TIP3    H225107   4.419   2.516   3.718  0.0108 -0.7191 -1.0205
 1206TIP3   OH225108   5.022   4.926   4.033  0.1130 -0.2443 -0.1419
 1206TIP3    H125109   4.943   4.876   4.013  0.9856 -1.6824 -0.1331
 1206TIP3    H225110   4.999   4.977   4.111 -0.5257 -1.3653  0.4250
 1207TIP3   OH225111   3.739   2.250  12.478  0.1892 -0.6591  0.6778
 1207TIP3    H125112   3.713   2.240  12.569 -1.2040  0.8207  0.4906
 1207TIP3    H225113   3.729   2.162  12.440  0.4096 -1.1963  1.8387
 1208TIP3   OH225114   3.951   3.371  13.646 -0.4037 -0.3967  0.4176
 1208TIP3    H125115   3.907   3.452  13.621  0.2558 -0.8613 -2.5656
 1208TIP3    H225116   3.888   3.302  13.623 -0.0252 -0.8369  0.6924
 1209TIP3   OH225117   4.977   3.094   4.256 -0.1077  0.0409  0.6785
 1209TIP3    H125118   4.980   3.019   4.196 -0.5147 -1.8368  2.8559
 1209TIP3    H225119   4.899   3.142   4.230 -1.2726 -1.7084  0.7237
 1210TIP3   OH225120   0.634   6.065   5.367  0.1899  0.0975  0.7562
 1210TIP3    H125121   0.557   6.100   5.413 -0.0785 -2.2440  2.2078
 1210TIP3    H225122   0.695   6.041   5.436  2.5168  2.2724 -0.3816
 1211TIP3   OH225123   3.726   1.892   4.643 -0.0174  0.0053  0.0415
 1211TIP3    H125124   3.733   1.974   4.691 -0.9664 -0.4910  1.0609
 1211TIP3    H225125   3.632   1.875   4.637  0.1575 -0.9110 -0.3223
 1212TIP3   OH225126   0.494   5.204  15.705  0.0106 -0.4910  0.1058
 1212TIP3    H125127   0.579   5.247  15.696 -0.1702 -0.0122  0.6412
 1212TIP3    H225128   0.465   5.189  15.615  0.5828 -0.4979 -0.0770
 1213TIP3   OH225129   6.404   0.280  15.807  0.5776  0.2269 -0.0075
 1213TIP3    H125130   6.381   0.204  15.859 -0.8886  0.4094 -0.3504
 1213TIP3    H225131   6.369   0.355  15.855  0.8371  0.5676 -0.3326
 1214TIP3   OH225132   2.469   2.780  14.225 -0.0976  0.1630  0.4108
 1214TIP3    H125133   2.384   2.739  14.215 -1.2218  2.4101  0.2202
 1214TIP3    H225134   2.473   2.845  14.155 -0.1154  3.0983  2.9351
 1215TIP3   OH225135   4.247   5.370  16.552 -0.3720 -0.3195  0.0524
 1215TIP3    H125136   4.280   5.460  16.559 -1.0597  0.2799 -2.9148
 1215TIP3    H225137   4.323   5.318  16.528 -0.6693  0.3865 -2.8555
 1216TIP3   OH225138   1.773   1.539  13.879  0.2382 -0.2848  0.2050
 1216TIP3    H125139   1.715   1.487  13.934 -0.6156 -0.2597 -0.6466
 1216TIP3    H225140   1.837   1.476  13.846  0.8111 -0.2812  1.2835
 1217TIP3   OH225141   0.319   2.304   0.933 -0.0438  0.0007  0.4000
 1217TIP3    H125142   0.360   2.309   1.020  0.9145  1.0987 -0.0911
 1217TIP3    H225143   0.337   2.389   0.893  0.5744 -0.9003 -1.3368
 1218TIP3   OH225144   2.316   3.591  16.744  0.5640  0.0331  0.5607
 1218TIP3    H125145   2.348   3.668  16.792  0.8548 -0.8927  1.9147
 1218TIP3    H225146   2.367   3.590  16.664  1.4303  0.5797  1.0886
 1219TIP3   OH225147   6.689   3.501   1.951 -0.5604 -0.0642  0.3715
 1219TIP3    H125148   6.600   3.466   1.951 -0.3878 -0.5208  1.2425
 1219TIP3    H225149   6.709   3.517   2.044  0.0026  0.7152  0.1318
 1220TIP3   OH225150   2.442   4.219  13.792 -0.4760  0.2578 -0.2530
 1220TIP3    H125151   2.479   4.131  13.804 -2.6997 -0.8286 -0.7115
 1220TIP3    H225152   2.517   4.278  13.800  0.9896 -1.6121  0.8042
 1221TIP3   OH225153   5.161   0.019   5.745 -0.0683 -0.0305 -0.2318
 1221TIP3    H125154   5.216  -0.053   5.715 -0.3467 -0.7295  0.8645
 1221TIP3    H225155   5.088   0.022   5.683 -0.1477 -0.8283 -0.1867
 1222TIP3   OH225156   4.890   5.737   1.565 -0.0132  0.1103 -0.0761
 1222TIP3    H125157   4.981   5.750   1.540 -0.1099 -0.0046 -0.4993
 1222TIP3    H225158   4.841   5.791   1.503 -0.2899 -0.5878 -0.4851
 1223TIP3   OH225159   6.753   5.954   0.979 -0.0019 -0.2850  0.2094
 1223TIP3    H125160   6.753   6.001   0.896  1.3969 -0.7185 -0.0761
 1223TIP3    H225161   6.747   5.861   0.953 -0.8805 -0.3562  0.6613
 1224TIP3   OH225162   2.884   5.576  15.811 -0.0259  0.3975  0.1786
 1224TIP3    H125163   2.835   5.596  15.732 -1.7315 -0.4054  0.9715
 1224TIP3    H225164   2.944   5.506  15.786  0.4424  1.1151 -0.7239
 1225TIP3   OH225165   6.258   4.534   4.285 -0.1164  0.4189  0.4251
 1225TIP3    H125166   6.272   4.629   4.280 -1.4307  0.6068 -0.2637
 1225TIP3    H225167   6.304   4.500   4.208 -0.3413  0.5995  0.2069
 1226TIP3   OH225168   4.323   0.513   5.489 -0.1301 -0.9120  0.4524
 1226TIP3    H125169   4.393   0.449   5.496  0.8543 -0.0223 -0.8064
 1226TIP3    H225170   4.268   0.481   5.418  0.0776 -0.6267  0.1619
 1227TIP3   OH225171   5.613   1.830  10.825  0.1139 -0.2136  0.0391
 1227TIP3    H125172   5.678   1.760  10.823  0.1918 -0.1310 -0.6232
 1227TIP3    H225173   5.655   1.903  10.779  0.6490  0.8223  2.0673
 1228TIP3   OH225174   1.800   6.201  13.386 -0.0926 -0.2990 -0.7041
 1228TIP3    H125175   1.862   6.134  13.357 -2.7841 -0.6474 -7.3820
 1228TIP3    H225176   1.734   6.152  13.435  0.3126 -1.6554 -1.4459
 1229TIP3   OH225177   5.233   5.564  13.933  0.0610  0.8118 -0.0710
 1229TIP3    H125178   5.138   5.552  13.928  0.0755  0.6629 -0.0049
 1229TIP3    H225179   5.245   5.648  13.977 -0.0268 -0.2229  2.0250
 1230TIP3   OH225180   2.348   5.592   1.388 -0.1865  0.4444  0.7303
 1230TIP3    H125181   2.305   5.530   1.448 -1.7607  0.9008  0.1257
 1230TIP3    H225182   2.394   5.536   1.325 -2.5829 -0.2338 -0.5461
 1231TIP3   OH225183   6.540   0.207  13.645 -0.1587 -0.0019  0.3801
 1231TIP3    H125184   6.512   0.192  13.735  0.8997  1.6089  1.0178
 1231TIP3    H225185   6.513   0.297  13.626  0.2341 -0.0905 -0.6595
 1232TIP3   OH225186   4.279   2.744  15.647 -0.7792 -0.1597  0.4379
 1232TIP3    H125187   4.311   2.664  15.688 -1.7950 -1.7516 -1.6786
 1232TIP3    H225188   4.193   2.759  15.687 -0.1873  0.4519  1.5179
 1233TIP3   OH225189   0.147   2.338  12.386  0.0618 -0.3537 -0.4696
 1233TIP3    H125190   0.074   2.298  12.434  1.5227 -0.9448  1.3928
 1233TIP3    H225191   0.224   2.319  12.440  1.6690 -0.0765 -2.5332
 1234TIP3   OH225192   4.522   3.240   0.283  0.6758 -0.0842 -0.1321
 1234TIP3    H125193   4.578   3.257   0.359 -0.0400 -0.4759  0.4987
 1234TIP3    H225194   4.562   3.164   0.240  0.9079 -0.0549  0.0289
 1235TIP3   OH225195   3.883   6.778  13.659  0.2108 -0.5152 -0.7328
 1235TIP3    H125196   3.968   6.734  13.669  0.1372 -0.4887  0.0560
 1235TIP3    H225197   3.905   6.870  13.650  0.2337 -0.4188  0.2328
 1236TIP3   OH225198   2.983   2.246  16.804 -0.0495 -0.0636  0.0994
 1236TIP3    H125199   3.079   2.248  16.795 -0.1242 -1.4455 -1.5193
 1236TIP3    H225200   2.968   2.199  16.886  0.6816 -2.2249 -0.9452
 1237TIP3   OH225201   2.970   1.737   0.153 -0.4117 -0.0739  0.2322
 1237TIP3    H125202   3.006   1.770   0.235 -0.0311  0.3086 -0.0794
 1237TIP3    H225203   2.931   1.653   0.175 -2.8823  1.2939  1.3881
 1238TIP3   OH225204   3.893   5.468  12.103 -0.0080 -0.2044  0.1839
 1238TIP3    H125205   3.849   5.383  12.096  1.0132 -0.8427  1.1568
 1238TIP3    H225206   3.941   5.476  12.021 -0.0282 -0.6255  0.1265
 1239TIP3   OH225207   5.041   3.132  15.692  0.0131 -0.0022 -0.2457
 1239TIP3    H125208   4.954   3.151  15.726  0.2819  2.1150 -0.5946
 1239TIP3    H225209   5.026   3.068  15.622 -1.5806  1.8985 -1.7753
 1240TIP3   OH225210   4.714   5.688  16.043  0.0934 -0.1935 -0.1485
 1240TIP3    H125211   4.806   5.714  16.048 -0.0107 -0.1135  2.1581
 1240TIP3    H225212   4.713   5.615  15.981  1.4908  0.5752 -1.1382
 1241TIP3   OH225213   0.216   0.868   1.315  0.0148  0.0341 -0.4594
 1241TIP3    H125214   0.190   0.879   1.406  0.2953 -0.8312 -0.2718
 1241TIP3    H225215   0.133   0.864   1.267 -0.1629 -0.7836 -0.0904
 1242TIP3   OH225216   5.020   0.384   1.319 -0.4071  0.3649 -0.1638
 1242TIP3    H125217   5.105   0.420   1.294 -0.4629  0.3672 -0.3577
 1242TIP3    H225218   4.968   0.389   1.239 -0.1700 -0.8789 -0.4203
 1243TIP3   OH225219   1.559   1.167  11.777 -0.0782  0.0464  0.5658
 1243TIP3    H125220   1.549   1.146  11.870  0.6519  0.5883  0.7768
 1243TIP3    H225221   1.544   1.084  11.732  1.0485 -0.5695  1.2647
 1244TIP3   OH225222   6.674   0.793   0.418  0.1639 -0.4894 -0.4530
 1244TIP3    H125223   6.635   0.880   0.425  0.6665 -0.3059  0.1401
 1244TIP3    H225224   6.626   0.740   0.481  0.0557 -0.5750 -0.6048
 1245TIP3   OH225225   0.419   6.703  16.426  0.4682  0.6989  0.2022
 1245TIP3    H125226   0.337   6.734  16.464  0.0379 -1.9384  1.6548
 1245TIP3    H225227   0.485   6.721  16.494  0.6122  0.4696  0.1237
 1246TIP3   OH225228   3.827   6.177  14.647 -0.3547  0.1605  0.5707
 1246TIP3    H125229   3.841   6.242  14.716  0.2229  0.8605 -0.1789
 1246TIP3    H225230   3.874   6.212  14.571  0.8643 -1.6523  0.4326
 1247TIP3   OH225231   3.659   4.929   3.201 -0.3941 -0.0277  0.0530
 1247TIP3    H125232   3.603   5.005   3.213 -0.6974 -0.3815  0.9193
 1247TIP3    H225233   3.711   4.924   3.281  1.3319  0.6464 -0.9771
 1248TIP3   OH225234   5.898   5.287  14.299  0.3168  0.3539  0.2455
 1248TIP3    H125235   5.878   5.324  14.213  0.6482  0.0207  0.0271
 1248TIP3    H225236   5.835   5.216  14.310  0.5022  0.1709  0.1283
 1249TIP3   OH225237   3.116   0.944  15.199 -0.7774  0.8492  0.1484
 1249TIP3    H125238   3.140   1.031  15.167  0.4646  0.5397  0.2116
 1249TIP3    H225239   3.120   0.888  15.121 -1.6266  0.8395  0.0970
 1250TIP3   OH225240   4.775   1.062  16.997 -0.1541 -0.3446  0.1084
 1250TIP3    H125241   4.761   0.971  17.021 -0.6475 -0.5644 -0.9656
 1250TIP3    H225242   4.869   1.069  16.981 -0.2070 -0.8136 -0.4124
 1251TIP3   OH225243   3.684   3.641  10.935  0.4468 -0.4985 -0.4727
 1251TIP3    H125244   3.642   3.678  10.858  1.4283  0.6713 -0.4617
 1251TIP3    H225245   3.767   3.606  10.903  0.9529  0.1810  0.0826
 1252TIP3   OH225246   0.623   6.381  12.528 -0.3483  0.4163 -0.6510
 1252TIP3    H125247   0.598   6.441  12.458  1.3153  1.4287 -0.4301
 1252TIP3    H225248   0.540   6.357  12.570 -1.0700  2.7699 -0.5709
 1253TIP3   OH225249   1.179   0.342   0.718  0.0074  0.2291  0.1749
 1253TIP3    H125250   1.141   0.419   0.761  0.4161  0.8837 -0.6282
 1253TIP3    H225251   1.200   0.371   0.630  0.1085 -0.8295 -0.1631
 1254TIP3   OH225252   4.260   1.555   3.959  0.2201 -0.2190  0.7096
 1254TIP3    H125253   4.174   1.586   3.988 -0.1306  0.0312 -0.5283
 1254TIP3    H225254   4.309   1.541   4.039 -0.2637  1.6772  1.3724
 1255TIP3   OH225255   0.430   3.962  12.460  0.2707 -0.4741  0.0509
 1255TIP3    H125256   0.471   3.891  12.409  1.3225 -0.1071  0.3467
 1255TIP3    H225257   0.357   3.991  12.407  1.4118 -0.0143 -1.3403
 1256TIP3   OH225258   5.082   0.541  14.034  0.8239 -0.0525 -0.1296
 1256TIP3    H125259   5.030   0.463  14.017  1.9060 -0.8202  0.0441
 1256TIP3    H225260   5.054   0.603  13.966 -0.1809 -0.5003 -0.1403
 1257TIP3   OH225261   5.657   3.345  13.013 -0.1707 -0.5466 -0.2212
 1257TIP3    H125262   5.562   3.340  13.002 -0.3421 -0.2869  1.0720
 1257TIP3    H225263   5.673   3.434  13.042  0.6937  0.0279 -2.2716
 1258TIP3   OH225264   3.921   2.230  13.020  0.4804  0.2161  0.0530
 1258TIP3    H125265   3.827   2.223  13.036  0.1170  1.3891 -1.4021
 1258TIP3    H225266   3.942   2.152  12.968 -0.3247  1.4385 -2.2137
 1259TIP3   OH225267   5.133   2.093   5.559  0.2391  0.0860 -0.1239
 1259TIP3    H125268   5.040   2.099   5.581 -0.0113  2.4574 -1.4506
 1259TIP3    H225269   5.159   2.006   5.589 -2.1439 -0.2768  1.1912
 1260TIP3   OH225270   0.834   1.504  13.428 -0.8276 -0.1473  0.5492
 1260TIP3    H125271   0.923   1.507  13.461 -0.9753 -1.1721  1.0769
 1260TIP3    H225272   0.842   1.468  13.339 -0.7787 -1.0806  0.9169
 1261TIP3   OH225273   6.543   1.601  12.181 -0.1396 -0.1465  0.3445
 1261TIP3    H125274   6.520   1.511  12.202  1.2873 -0.6373 -0.1327
 1261TIP3    H225275   6.516   1.612  12.090  1.8461 -0.8741 -0.3708
 1262TIP3   OH225276   6.320   6.424   0.899  0.0333  0.9751  0.1638
 1262TIP3    H125277   6.344   6.333   0.920  0.8838  0.7789 -1.4677
 1262TIP3    H225278   6.242   6.416   0.843  1.0401  1.1128 -1.3193
 1263TIP3   OH225279   2.076   5.204   3.802  0.0117 -0.1705  0.5250
 1263TIP3    H125280   2.109   5.201   3.892  0.9039  0.3212  0.2313
 1263TIP3    H225281   1.985   5.231   3.811  0.4150  1.0545  1.2327
 1264TIP3   OH225282   1.216   2.209  16.230 -0.0664  0.8718  0.0014
 1264TIP3    H125283   1.292   2.219  16.172  1.0406  1.6818  1.5235
 1264TIP3    H225284   1.156   2.279  16.204 -1.3930 -1.0735 -2.6857
 1265TIP3   OH225285   1.444   6.805  15.900 -0.4660  0.1194 -0.3848
 1265TIP3    H125286   1.527   6.804  15.851 -1.3909 -0.6346 -2.0145
 1265TIP3    H225287   1.413   6.896  15.891 -0.4318  0.0865 -0.8892
 1266TIP3   OH225288   6.097   5.741  12.576 -0.0487  0.8317 -0.2600
 1266TIP3    H125289   6.052   5.786  12.648  0.4993  2.6644 -1.0051
 1266TIP3    H225290   6.189   5.762  12.589  0.1127  0.7494 -1.2118
 1267TIP3   OH225291   0.821   1.816   0.203  0.0481  0.1078  0.0880
 1267TIP3    H125292   0.786   1.771   0.280 -1.3848 -1.0202 -1.1748
 1267TIP3    H225293   0.835   1.747   0.139  1.3786  1.0081 -0.6404
 1268TIP3   OH225294   0.003   2.707   4.740 -0.7975 -0.2378 -0.1744
 1268TIP3    H125295  -0.052   2.741   4.669 -0.0239 -1.3673 -1.3817
 1268TIP3    H225296   0.029   2.619   4.709  0.8196 -0.1492  0.8160
 1269TIP3   OH225297   2.267   4.414   3.757 -0.9363  0.1914 -0.3241
 1269TIP3    H125298   2.184   4.368   3.765  0.0179 -1.6377 -0.5328
 1269TIP3    H225299   2.329   4.348   3.728  0.3929  1.7430 -1.2215
 1270TIP3   OH225300   4.665   6.770  11.246 -0.5680 -0.0647 -0.0705
 1270TIP3    H125301   4.571   6.767  11.226 -0.5012 -2.5386 -0.2931
 1270TIP3    H225302   4.668   6.789  11.339 -1.1221  3.1067 -0.5725
 1271TIP3   OH225303   2.631   3.012  15.946 -0.5448  0.3521 -0.7463
 1271TIP3    H125304   2.537   2.994  15.944 -0.1450 -2.5571  1.3928
 1271TIP3    H225305   2.668   2.955  15.878 -0.1612  0.0707 -0.3079
 1272TIP3   OH225306   6.529   0.074   0.916  0.2787  0.1043  0.5266
 1272TIP3    H125307   6.444   0.029   0.922  1.1309 -1.4021  4.5279
 1272TIP3    H225308   6.508   0.158   0.873 -3.0739 -0.5322  0.6074
 1273TIP3   OH225309   3.679   4.998   1.663  0.2173  0.2609  0.4702
 1273TIP3    H125310   3.608   5.040   1.713 -2.1738 -2.3159 -0.5153
 1273TIP3    H225311   3.729   4.950   1.729 -1.6502 -1.4242  0.7410
 1274TIP3   OH225312   4.716   1.337   4.883 -0.3359  0.3639 -0.2283
 1274TIP3    H125313   4.690   1.366   4.795  1.6844  2.4728 -0.2315
 1274TIP3    H225314   4.778   1.266   4.867 -0.3313  0.4260 -0.4937
 1275TIP3   OH225315   2.011   0.676  15.006 -0.4899  0.0619  0.3232
 1275TIP3    H125316   2.049   0.592  15.033 -0.0912  0.1243 -0.0334
 1275TIP3    H225317   1.918   0.659  14.997 -0.4379 -0.2912  0.4622
 1276TIP3   OH225318   0.645   5.215   3.873 -0.1867  0.4177 -0.1584
 1276TIP3    H125319   0.646   5.120   3.862 -1.1092  0.3506  0.2595
 1276TIP3    H225320   0.575   5.246   3.816 -2.1141  0.4823  2.0948
 1277TIP3   OH225321   3.632   6.401  16.092 -0.3472  0.3500  0.6431
 1277TIP3    H125322   3.669   6.424  16.177 -0.1358  1.4973  0.2534
 1277TIP3    H225323   3.685   6.449  16.028 -1.6181  0.9373 -0.0077
 1278TIP3   OH225324   6.215   4.473  10.710 -0.6444  0.3236  0.0190
 1278TIP3    H125325   6.164   4.394  10.693 -1.2619  0.0532  2.6923
 1278TIP3    H225326   6.299   4.440  10.743 -0.3589  0.7883 -0.2334
 1279TIP3   OH225327   3.701   3.579  16.969 -0.0469 -0.0756 -0.5343
 1279TIP3    H125328   3.759   3.503  16.972  0.5235  0.3484 -0.6979
 1279TIP3    H225329   3.732   3.630  16.894  1.6512  1.9446  1.4075
 1280TIP3   OH225330   2.806   0.060   2.595  0.9892  0.2781  0.5460
 1280TIP3    H125331   2.769   0.065   2.683 -0.4503 -0.4025  0.0259
 1280TIP3    H225332   2.792   0.147   2.558  0.2299  0.1509  0.5063
 1281TIP3   OH225333   2.901   5.671   0.651  0.0649  0.3582 -0.0517
 1281TIP3    H125334   2.818   5.683   0.606  0.3236 -0.5012 -0.7939
 1281TIP3    H225335   2.966   5.715   0.596  0.2981 -0.2063 -0.2444
 1282TIP3   OH225336   0.921   6.528   4.037 -0.0611 -0.2268  0.0356
 1282TIP3    H125337   0.934   6.528   3.942 -0.2532 -2.8995 -0.0492
 1282TIP3    H225338   0.960   6.611   4.066 -0.9453  1.1707 -2.4567
 1283TIP3   OH225339   4.234   1.011  11.902 -0.1697 -0.4222 -0.0965
 1283TIP3    H125340   4.303   0.949  11.878 -1.0890 -1.0920 -1.1216
 1283TIP3    H225341   4.279   1.095  11.912  0.6388 -0.5960 -1.8932
 1284TIP3   OH225342   4.687   1.159   5.523  0.2976  0.0932  0.3571
 1284TIP3    H125343   4.742   1.235   5.503  0.9690 -0.4626  0.0277
 1284TIP3    H225344   4.622   1.192   5.586  0.2792  1.0457 -0.1407
 1285TIP3   OH225345   4.462   6.666   5.580  0.0223  0.3359  0.1754
 1285TIP3    H125346   4.375   6.671   5.541  0.1239  0.2581 -0.0694
 1285TIP3    H225347   4.448   6.671   5.674 -0.1671  1.5729  0.1024
 1286TIP3   OH225348   5.074   3.308   6.074 -0.0185  0.2844  0.1936
 1286TIP3    H125349   5.066   3.236   6.137  2.3523 -0.6587 -0.4486
 1286TIP3    H225350   5.102   3.383   6.127  0.2117 -0.0303  0.5231
 1287TIP3   OH225351   1.097   5.466  17.114 -0.1330  0.2928 -0.1897
 1287TIP3    H125352   1.117   5.404  17.184  0.2562  0.5456 -0.0741
 1287TIP3    H225353   1.178   5.473  17.064 -0.0410  1.0486  0.0627
 1288TIP3   OH225354   2.182   0.389   1.052 -0.9582 -0.4081 -0.1657
 1288TIP3    H125355   2.275   0.395   1.073 -1.1455 -1.2095  1.0032
 1288TIP3    H225356   2.174   0.431   0.967  0.4977 -0.4458 -0.3509
 1289TIP3   OH225357   2.219   4.846   4.456 -0.4279  0.6890 -0.4516
 1289TIP3    H125358   2.179   4.789   4.522  0.6090  1.3141  0.7730
 1289TIP3    H225359   2.173   4.929   4.466  0.5900  1.1713  0.4130
 1290TIP3   OH225360   3.831   4.895  11.020  0.1882  0.0395  0.0508
 1290TIP3    H125361   3.785   4.892  11.103  0.2161 -0.5615  0.0465
 1290TIP3    H225362   3.886   4.816  11.020 -0.8068 -0.6918 -1.1022
 1291TIP3   OH225363   2.648   6.500  12.729 -0.0662  0.2453  0.0844
 1291TIP3    H125364   2.630   6.528  12.639  0.5475  1.6316  0.3710
 1291TIP3    H225365   2.731   6.543  12.751  0.3327 -0.9138  0.9688
 1292TIP3   OH225366   6.455   2.985   1.216 -0.7473  0.5377 -0.1292
 1292TIP3    H125367   6.471   2.897   1.183 -1.0163  0.9234 -1.3528
 1292TIP3    H225368   6.360   2.990   1.225 -0.7538  0.7731 -0.3096
 1293TIP3   OH225369   5.871   5.359   0.864  0.1301  0.8809  0.6799
 1293TIP3    H125370   5.933   5.300   0.822 -0.2111  0.3853  0.8737
 1293TIP3    H225371   5.916   5.444   0.865  0.4147  0.7470 -0.0581
 1294TIP3   OH225372   0.783   0.194  17.031 -0.3983  0.7257  0.4521
 1294TIP3    H125373   0.759   0.110  16.993  2.1824  0.8332 -1.6785
 1294TIP3    H225374   0.772   0.182  17.126 -2.0850 -1.2453  0.0756
 1295TIP3   OH225375   5.695   2.212  15.341 -0.2050 -0.2437 -0.4189
 1295TIP3    H125376   5.693   2.307  15.326  2.2054 -0.5919 -3.9288
 1295TIP3    H225377   5.624   2.178  15.288  0.3992 -0.5661 -1.0266
 1296TIP3   OH225378   1.986   2.371   3.564  0.1673  0.2371  0.0271
 1296TIP3    H125379   1.972   2.361   3.470 -2.1153 -2.9063  0.5282
 1296TIP3    H225380   1.909   2.420   3.594 -0.5177 -1.1053  0.5381
 1297TIP3   OH225381   6.174   2.746   2.896 -0.4582  0.0198  0.3610
 1297TIP3    H125382   6.148   2.661   2.931  1.6597  0.0213  2.1735
 1297TIP3    H225383   6.253   2.770   2.946  3.6848 -0.4326 -4.9952
 1298TIP3   OH225384   1.052   2.841   5.044 -0.0877 -0.2728 -0.2985
 1298TIP3    H125385   1.114   2.907   5.013 -1.8539  1.8287  0.3935
 1298TIP3    H225386   1.059   2.843   5.139  0.9638 -2.3254 -0.2603
 1299TIP3   OH225387   6.682   1.625   2.009  0.2026 -0.0078  0.3569
 1299TIP3    H125388   6.692   1.564   2.081 -2.2551 -0.0010  0.7828
 1299TIP3    H225389   6.772   1.647   1.983  1.1294 -1.8868  1.7783
 1300TIP3   OH225390   1.728   4.800   3.139  0.0043  0.8016 -0.2168
 1300TIP3    H125391   1.647   4.839   3.105  0.0752  0.5632 -0.6608
 1300TIP3    H225392   1.750   4.855   3.215 -0.7430  0.6751  0.1008
 1301TIP3   OH225393   2.304   6.367  14.863 -0.2387 -0.3646 -0.2535
 1301TIP3    H125394   2.229   6.426  14.877  0.1767  0.0927  0.0495
 1301TIP3    H225395   2.302   6.349  14.769 -0.5821 -0.1515 -0.2889
 1302TIP3   OH225396   2.409   5.577  11.160 -0.0091  0.1138  0.3386
 1302TIP3    H125397   2.469   5.527  11.105 -2.2715 -1.0531 -1.2797
 1302TIP3    H225398   2.440   5.667  11.156  0.1181  0.0200 -2.6916
 1303TIP3   OH225399   4.800   5.822   5.742 -0.6682 -0.6778 -0.4723
 1303TIP3    H125400   4.760   5.906   5.719 -1.7486 -0.7038  1.1412
 1303TIP3    H225401   4.732   5.758   5.723 -0.1296 -1.1096 -0.9527
 1304TIP3   OH225402   3.104   0.770   0.328  0.4422 -0.2309 -0.2035
 1304TIP3    H125403   3.115   0.708   0.255 -2.4150 -0.5122 -0.5414
 1304TIP3    H225404   3.155   0.846   0.303  1.4659 -1.2366 -1.3297
 1305TIP3   OH225405   2.403   5.045  12.040  0.0479  0.5879  0.3066
 1305TIP3    H125406   2.493   5.022  12.016 -0.3709 -0.9900  0.1069
 1305TIP3    H225407   2.354   5.037  11.958 -0.4374  0.4684  0.6059
 1306TIP3   OH225408   1.274   6.540   0.434  0.3558  0.0193  0.2172
 1306TIP3    H125409   1.292   6.446   0.441 -0.7625 -0.0936  2.7431
 1306TIP3    H225410   1.354   6.583   0.465  0.2543 -0.1512  0.7162
 1307TIP3   OH225411   0.664   1.811  10.487  0.2335 -0.5889  0.0041
 1307TIP3    H125412   0.693   1.833  10.575  2.2054 -1.3867 -0.3953
 1307TIP3    H225413   0.568   1.816  10.491  0.3374  0.6645  1.8213
 1308TIP3   OH225414   4.324   1.466  16.323 -0.0136 -0.1285 -0.3724
 1308TIP3    H125415   4.386   1.536  16.304 -1.8497  1.4778 -0.8062
 1308TIP3    H225416   4.272   1.498  16.396 -1.1298 -0.8720 -0.8039
 1309TIP3   OH225417   1.384   2.830   5.565 -0.1407 -0.0019  0.3646
 1309TIP3    H125418   1.306   2.879   5.592 -0.7216 -0.5439 -0.2795
 1309TIP3    H225419   1.390   2.758   5.628 -0.8417 -0.6193 -0.2549
 1310TIP3   OH225420   4.208   0.936  14.151 -0.4077  0.6746 -0.2333
 1310TIP3    H125421   4.122   0.968  14.124 -0.3941  1.5662  0.7340
 1310TIP3    H225422   4.221   0.972  14.239  0.5078 -0.3152  0.0562
 1311TIP3   OH225423   5.988   4.126   0.439  0.1798 -0.0779 -0.1870
 1311TIP3    H125424   5.958   4.171   0.518 -0.4067 -0.4044 -0.2142
 1311TIP3    H225425   6.063   4.074   0.469  1.0456  1.1223 -0.2225
 1312TIP3   OH225426   3.127   5.971   5.939 -0.1661 -0.6617  0.5127
 1312TIP3    H125427   3.135   6.052   5.990  0.3745 -0.7067  0.5107
 1312TIP3    H225428   3.199   5.917   5.971 -0.2812 -0.9842  0.2247
 1313TIP3   OH225429   0.495   1.335   4.810  0.2231 -0.0616 -0.1179
 1313TIP3    H125430   0.498   1.260   4.749 -0.6683  1.1841 -1.7668
 1313TIP3    H225431   0.570   1.321   4.868  0.0117 -2.2962 -0.2852
 1314TIP3   OH225432   5.814   5.908   5.497  0.1081 -0.1745 -0.1352
 1314TIP3    H125433   5.772   5.976   5.549  0.4779  0.0160 -0.0786
 1314TIP3    H225434   5.851   5.847   5.561 -0.2045 -0.4192 -0.1861
 1315TIP3   OH225435   3.444   2.086   1.344  0.5615 -0.1640 -0.4678
 1315TIP3    H125436   3.523   2.078   1.397  0.9248 -0.1081 -1.0029
 1315TIP3    H225437   3.457   2.027   1.270 -0.1615 -0.6203 -0.2420
 1316TIP3   OH225438   4.228   1.388   0.254 -0.9966 -0.1254 -0.1753
 1316TIP3    H125439   4.221   1.371   0.160 -2.1903  0.6346 -0.2425
 1316TIP3    H225440   4.173   1.321   0.295 -1.2977  0.1731 -0.0890
 1317TIP3   OH225441   3.670   6.521   5.687  0.0402  0.1111 -0.1210
 1317TIP3    H125442   3.690   6.432   5.659  0.7761  0.6074 -1.2228
 1317TIP3    H225443   3.750   6.570   5.671  0.9638  0.2697  3.8889
 1318TIP3   OH225444   5.625   5.759   3.426  0.0527  1.0467  0.7433
 1318TIP3    H125445   5.555   5.700   3.453  0.1718  0.3728 -0.3534
 1318TIP3    H225446   5.691   5.751   3.495 -0.2761  0.5015  1.0044
 1319TIP3   OH225447   0.242   1.811  11.551  0.3026  0.0201  0.0780
 1319TIP3    H125448   0.161   1.762  11.537 -0.7598  1.5058  0.8127
 1319TIP3    H225449   0.248   1.869  11.475  1.0044 -0.4934 -0.2670
 1320TIP3   OH225450   1.378   3.008  13.503 -0.1024  0.2405 -0.3942
 1320TIP3    H125451   1.414   2.920  13.488  1.0981  0.6170  0.2213
 1320TIP3    H225452   1.454   3.063  13.517 -0.9072  1.1554  0.4691
 1321TIP3   OH225453   3.789   3.641   5.078  0.1499  0.0741  0.2240
 1321TIP3    H125454   3.872   3.651   5.124  0.3068  0.3330 -0.1087
 1321TIP3    H225455   3.803   3.685   4.994  0.0301 -0.8044 -0.2737
 1322TIP3   OH225456   4.827   4.569  11.622 -0.4577 -0.3973 -0.2657
 1322TIP3    H125457   4.816   4.661  11.646 -0.1178 -0.3788 -0.1777
 1322TIP3    H225458   4.743   4.528  11.646  0.4815 -0.7859  2.9002
 1323TIP3   OH225459   6.764   6.443   0.025  0.1858  0.5637  0.3564
 1323TIP3    H125460   6.713   6.508   0.073  1.6449  0.3733  2.3004
 1323TIP3    H225461   6.699   6.394  -0.025 -1.0728  2.8084 -0.3627
 1324TIP3   OH225462   0.577   1.355   3.612 -0.4103 -0.3762  0.0935
 1324TIP3    H125463   0.586   1.369   3.517 -1.3832 -0.1845  0.0137
 1324TIP3    H225464   0.592   1.261   3.623 -1.8050 -0.7057 -0.4874
 1325TIP3   OH225465   0.300   3.395  17.018 -0.3547  0.2912  0.4643
 1325TIP3    H125466   0.245   3.467  17.049  0.5309  0.9961  0.4435
 1325TIP3    H225467   0.361   3.436  16.957 -1.0208 -0.7997 -0.9739
 1326TIP3   OH225468   3.518   2.354   1.044 -1.0142 -0.0465 -0.1283
 1326TIP3    H125469   3.578   2.421   1.011 -2.5554  0.6780 -1.5666
 1326TIP3    H225470   3.552   2.272   1.009  0.4069  0.0390  0.9553
 1327TIP3   OH225471   5.969   1.681  17.119 -0.7195 -0.0176  0.0931
 1327TIP3    H125472   5.977   1.718  17.031 -0.1643 -0.5253 -0.0838
 1327TIP3    H225473   6.050   1.706  17.163 -1.0559  0.3539  0.5157
 1328TIP3   OH225474   6.672   2.989   3.356  0.6158 -0.2246  0.5726
 1328TIP3    H125475   6.758   2.968   3.392  0.3679 -1.8254  0.2781
 1328TIP3    H225476   6.615   2.918   3.387 -0.7094  1.0174  1.1049
 1329TIP3   OH225477   3.173   1.191   4.045 -0.2698  0.2153 -0.4157
 1329TIP3    H125478   3.091   1.195   4.094 -0.1197 -0.3468 -0.1105
 1329TIP3    H225479   3.241   1.206   4.110 -0.0243 -1.2511 -0.2887
 1330TIP3   OH225480   5.793   0.985  15.669 -0.5393 -0.2826 -0.3972
 1330TIP3    H125481   5.758   1.073  15.684  1.2969  0.4098  0.1233
 1330TIP3    H225482   5.719   0.927  15.686 -1.7466  1.1442 -0.5631
 1331TIP3   OH225483   1.809   2.846  15.997  0.3489 -0.0189 -0.0061
 1331TIP3    H125484   1.784   2.808  15.913 -0.5634 -1.4232  0.8504
 1331TIP3    H225485   1.814   2.940  15.980 -1.3095 -0.1106 -1.2811
 1332TIP3   OH225486   0.942   2.338   2.547 -0.1303  0.1751  0.5432
 1332TIP3    H125487   1.037   2.332   2.541 -0.2206 -0.5558 -0.3927
 1332TIP3    H225488   0.910   2.286   2.473 -1.2245  2.2426 -0.5017
 1333TIP3   OH225489   3.151   1.776  13.513 -0.3444  0.3035 -0.1457
 1333TIP3    H125490   3.178   1.703  13.568 -0.8690 -0.4182 -0.8154
 1333TIP3    H225491   3.226   1.835  13.512  1.2199 -1.5760 -1.8667
 1334TIP3   OH225492   6.360   4.498   2.413 -0.3699 -0.7114  0.2099
 1334TIP3    H125493   6.424   4.427   2.402  0.9317  0.4122  0.3137
 1334TIP3    H225494   6.303   4.468   2.483 -0.5248 -2.1227 -0.4741
 1335TIP3   OH225495   3.113   1.390  12.263 -0.2981 -0.1789  0.0489
 1335TIP3    H125496   3.070   1.431  12.188 -0.5214  1.0546  0.8324
 1335TIP3    H225497   3.083   1.440  12.339 -2.2008 -3.0445  1.3518
 1336TIP3   OH225498   0.256   1.542   6.587 -0.2959  0.7529  1.1235
 1336TIP3    H125499   0.174   1.558   6.541  0.2437 -1.8814 -1.0022
 1336TIP3    H225500   0.242   1.459   6.634  0.5656  1.2392  2.3020
 1337TIP3   OH225501   4.831   4.021  12.697 -0.0762  0.4819  0.1288
 1337TIP3    H125502   4.775   3.999  12.772 -0.1459  0.6770  0.1357
 1337TIP3    H225503   4.918   4.034  12.734 -0.3236  1.6413  0.3349
 1338TIP3   OH225504   6.494   2.239  14.708 -0.0982  0.1100 -0.4767
 1338TIP3    H125505   6.492   2.165  14.769 -0.3783 -0.5099 -1.2293
 1338TIP3    H225506   6.403   2.269  14.703 -0.0977  0.0794 -0.6843
 1339TIP3   OH225507   3.059   2.389   1.680 -0.3619 -0.5188 -0.0711
 1339TIP3    H125508   3.099   2.317   1.631  0.2101 -0.1650 -0.1444
 1339TIP3    H225509   3.051   2.356   1.769  0.4688 -0.4760  0.0344
 1340TIP3   OH225510   5.235   0.885  14.837 -0.5340  0.6047  0.1607
 1340TIP3    H125511   5.280   0.800  14.837 -1.2560  0.2155 -0.5093
 1340TIP3    H225512   5.289   0.940  14.894  1.9786  0.7749 -2.1979
 1341TIP3   OH225513   1.115   5.996  15.669  0.1811 -0.1390  0.4117
 1341TIP3    H125514   1.142   6.042  15.749 -1.6500  1.0462  0.4156
 1341TIP3    H225515   1.165   6.038  15.600  2.2531 -1.5922  0.9403
 1342TIP3   OH225516   3.233   0.249  16.310 -0.3709 -0.5248  0.0090
 1342TIP3    H125517   3.176   0.246  16.233 -0.8155 -0.6322  0.3366
 1342TIP3    H225518   3.208   0.172  16.361 -0.7898  0.0910  0.7546
 1343TIP3   OH225519   5.434   3.653   3.560  0.0750  0.0819  0.7634
 1343TIP3    H125520   5.386   3.713   3.503 -1.4244  1.1655  3.0127
 1343TIP3    H225521   5.496   3.710   3.608 -0.8663 -0.2070  2.4048
 1344TIP3   OH225522   1.198   4.982  12.102  0.1380  0.3456  0.2883
 1344TIP3    H125523   1.212   5.023  12.188  0.4123  1.9930 -0.5099
 1344TIP3    H225524   1.105   4.962  12.100 -0.2418  1.9845  0.2855
 1345TIP3   OH225525   6.729   5.153   5.771  0.3890  0.0410 -0.1833
 1345TIP3    H125526   6.732   5.131   5.864  3.4131  0.9687  0.0556
 1345TIP3    H225527   6.670   5.228   5.765  1.2254  0.8557  1.2420
 1346TIP3   OH225528   2.602   1.133  13.689  0.0191  0.5235  0.1972
 1346TIP3    H125529   2.592   1.059  13.628  0.2203  1.5375 -1.1183
 1346TIP3    H225530   2.515   1.146  13.725 -0.2164  0.1847 -0.2313
 1347TIP3   OH225531   1.176   0.199  10.978  0.1841  0.1081  0.3548
 1347TIP3    H125532   1.222   0.207  11.062  1.0951  0.0672 -0.1371
 1347TIP3    H225533   1.085   0.181  11.003  0.3515  0.5584  1.3379
 1348TIP3   OH225534   4.197   1.983  14.097 -0.1759 -0.0273 -0.0776
 1348TIP3    H125535   4.266   1.960  14.034 -1.2579 -1.8733 -0.6557
 1348TIP3    H225536   4.231   2.060  14.142  1.2866  0.4661 -1.8901
 1349TIP3   OH225537   3.963   2.718   2.126 -1.1711  0.3376  0.0867
 1349TIP3    H125538   3.898   2.757   2.184 -0.1522  0.7508  0.9978
 1349TIP3    H225539   4.045   2.761   2.150  0.2373 -2.9482  1.8160
 1350TIP3   OH225540   5.802   4.263   1.997  0.1170 -0.4791  0.0318
 1350TIP3    H125541   5.852   4.329   2.045 -2.3692  1.2281  0.4694
 1350TIP3    H225542   5.711   4.288   2.011 -0.8255 -2.2688 -2.3397
 1351TIP3   OH225543   5.421   1.135  11.107 -0.2540  0.3266 -0.2921
 1351TIP3    H125544   5.448   1.150  11.016 -1.3733 -1.4627 -0.9597
 1351TIP3    H225545   5.390   1.045  11.109  1.2782 -0.2554  2.2583
 1352TIP3   OH225546   1.557   6.164   0.068  0.1646 -0.2250  0.0909
 1352TIP3    H125547   1.523   6.080   0.038 -2.8970 -0.0139  2.3750
 1352TIP3    H225548   1.607   6.143   0.147  3.0865 -0.1913 -1.6056
 1353TIP3   OH225549   1.687   5.462  14.408 -0.0711  0.4170 -0.3942
 1353TIP3    H125550   1.721   5.517  14.478 -0.5339 -0.0726  0.2302
 1353TIP3    H225551   1.677   5.520  14.333  0.8682  0.8455 -0.1879
 1354TIP3   OH225552   0.807   1.226  11.523  0.1103 -0.0215  0.4057
 1354TIP3    H125553   0.876   1.265  11.470 -0.8464  2.3151  0.7545
 1354TIP3    H225554   0.842   1.226  11.612  0.3569 -0.6147  0.3143
 1355TIP3   OH225555   4.139   1.702   3.714 -0.0594 -0.0700 -0.7022
 1355TIP3    H125556   4.202   1.699   3.786  0.4852 -1.7101 -1.2143
 1355TIP3    H225557   4.183   1.751   3.645 -0.8227  2.0717  0.2385
 1356TIP3   OH225558   0.974   0.923  16.326 -0.1490  0.0033 -0.1822
 1356TIP3    H125559   1.025   0.921  16.245  0.2009 -2.4179  0.0233
 1356TIP3    H225560   1.038   0.945  16.394  0.3839 -1.5325 -0.1322
 1357TIP3   OH225561   5.480   5.614  16.455  0.1866  0.3119 -0.0600
 1357TIP3    H125562   5.453   5.525  16.430  0.9676  0.1973 -0.5278
 1357TIP3    H225563   5.407   5.647  16.507 -0.6526 -0.1676 -0.8925
 1358TIP3   OH225564   6.399   0.778  13.472 -0.1697 -0.1924 -0.3999
 1358TIP3    H125565   6.491   0.794  13.493 -0.3584  1.0810 -0.4348
 1358TIP3    H225566   6.362   0.865  13.457 -1.1020 -0.7484 -1.5665
 1359TIP3   OH225567   4.254   2.815   4.061 -0.5839  0.5839  0.2161
 1359TIP3    H125568   4.287   2.851   4.144  0.0422  0.5772 -0.0286
 1359TIP3    H225569   4.245   2.891   4.004 -0.0473  0.4582 -0.0366
 1360TIP3   OH225570   4.100   3.561   4.345 -0.3724 -0.4467 -0.6667
 1360TIP3    H125571   4.083   3.512   4.264  0.4929 -0.2678 -0.9694
 1360TIP3    H225572   4.020   3.551   4.396 -1.0084 -0.4101 -1.6249
 1361TIP3   OH225573   5.910   0.678   4.969  0.2583  0.6059  0.0981
 1361TIP3    H125574   5.819   0.682   4.938 -0.1944 -0.4465  1.2108
 1361TIP3    H225575   5.958   0.736   4.910 -0.4039 -1.7388 -3.0610
 1362TIP3   OH225576   2.333   1.897  15.337 -0.6051  0.1589  0.0634
 1362TIP3    H125577   2.425   1.871  15.337 -0.7019 -0.5572 -3.0137
 1362TIP3    H225578   2.292   1.836  15.399  0.8310 -0.0006  0.9182
 1363TIP3   OH225579   0.914   2.170   5.602 -0.1275 -0.2120 -0.5541
 1363TIP3    H125580   0.987   2.108   5.610  0.5059  0.2740 -2.0864
 1363TIP3    H225581   0.853   2.127   5.542 -1.0171 -0.5173  0.5421
 1364TIP3   OH225582   3.129   1.766   5.428 -0.1565  0.1372 -0.3665
 1364TIP3    H125583   3.054   1.782   5.486  0.4857  2.9291 -0.1671
 1364TIP3    H225584   3.196   1.729   5.485 -0.3698  0.5084  0.1340
 1365TIP3   OH225585   5.930   2.071  15.284  0.0073  0.4636  0.4397
 1365TIP3    H125586   5.846   2.100  15.321 -0.7141 -1.6429  0.5967
 1365TIP3    H225587   5.924   2.094  15.191 -0.6079  0.6114  0.5123
 1366TIP3   OH225588   1.583   0.453  15.353 -0.5159 -0.5439  0.2687
 1366TIP3    H125589   1.571   0.431  15.261 -0.6885 -0.5589  0.2953
 1366TIP3    H225590   1.671   0.422  15.374  0.7089  1.9960 -0.6728
 1367TIP3   OH225591   1.664   0.784  13.052 -0.4258  0.2004 -0.5531
 1367TIP3    H125592   1.652   0.702  13.003  2.2579  0.0378 -1.0574
 1367TIP3    H225593   1.745   0.821  13.017 -2.4433  4.0787 -1.6577
 1368TIP3   OH225594   6.588   5.084  14.625  0.1398 -0.1026 -0.3522
 1368TIP3    H125595   6.593   5.047  14.713 -0.0584  1.2269  0.2471
 1368TIP3    H225596   6.654   5.036  14.575 -2.3779 -3.7190 -0.6192
 1369TIP3   OH225597   2.780   5.360   0.869  0.7951 -0.1414 -0.7435
 1369TIP3    H125598   2.815   5.396   0.788  2.4511  0.9659  0.4147
 1369TIP3    H225599   2.853   5.361   0.931 -0.6919  0.2012  1.1353
 1370TIP3   OH225600   6.386   3.420  14.674 -0.4487  0.0941  0.6364
 1370TIP3    H125601   6.450   3.449  14.609 -0.4013  2.9698  1.8096
 1370TIP3    H225602   6.315   3.381  14.622  0.6192  0.1633 -0.9498
 1371TIP3   OH225603   3.540   6.496   0.184 -0.4222  0.1105 -0.1410
 1371TIP3    H125604   3.473   6.451   0.133  0.1013 -3.2511  1.7988
 1371TIP3    H225605   3.493   6.533   0.258 -0.3493 -1.5724  0.8037
 1372TIP3   OH225606   6.383   4.683   0.962  0.0696  0.9156 -0.0036
 1372TIP3    H125607   6.397   4.714   1.051 -0.5419  2.0642 -0.2937
 1372TIP3    H225608   6.307   4.624   0.970 -1.5365  2.8580 -0.0983
 1373TIP3   OH225609   5.274   1.134   5.376  0.5560  0.3219  0.2729
 1373TIP3    H125610   5.335   1.161   5.307 -1.7054 -0.7393 -2.3687
 1373TIP3    H225611   5.191   1.173   5.350 -0.8799 -2.0358  1.0586
 1374TIP3   OH225612   4.617   4.381  14.049 -0.3273  0.0032  0.8089
 1374TIP3    H125613   4.618   4.289  14.074  1.7558  0.1022  1.2193
 1374TIP3    H225614   4.657   4.383  13.962  0.5421  0.6131  1.2092
 1375TIP3   OH225615   0.493   3.024  15.995 -0.4050 -0.0519 -0.8371
 1375TIP3    H125616   0.500   3.090  16.064 -0.7799 -0.0896 -0.7618
 1375TIP3    H225617   0.399   3.009  15.986 -0.2860 -1.3425 -0.1359
 1376TIP3   OH225618   6.520   2.770   3.391  0.7576  0.1617 -0.0214
 1376TIP3    H125619   6.478   2.708   3.332  2.1031 -0.0807 -0.7730
 1376TIP3    H225620   6.516   2.729   3.477 -1.5641  0.6787  0.1870
 1377TIP3   OH225621   6.180   6.043  15.407  0.5570  0.1394 -0.4603
 1377TIP3    H125622   6.161   6.077  15.495 -0.4851  2.0461 -1.3771
 1377TIP3    H225623   6.276   6.042  15.402  0.6297  0.0993  0.6553
 1378TIP3   OH225624   2.415   4.386   4.592  0.1901 -0.5111 -0.5267
 1378TIP3    H125625   2.504   4.374   4.627  0.5137  0.0169 -1.1350
 1378TIP3    H225626   2.413   4.331   4.514  0.7641  1.1223 -1.7811
 1379TIP3   OH225627   2.790   5.855  13.914 -0.3582  0.5758  0.4398
 1379TIP3    H125628   2.808   5.947  13.933 -0.5781  1.1192 -1.7374
 1379TIP3    H225629   2.873   5.821  13.880 -0.1634 -0.1872  1.5868
 1380TIP3   OH225630   1.096   2.615  12.038  0.0722  0.5889  0.2996
 1380TIP3    H125631   1.101   2.709  12.056  0.0078  0.9949 -1.5948
 1380TIP3    H225632   1.157   2.600  11.966 -0.5720 -0.6533 -0.0358
 1381TIP3   OH225633   6.502   0.875  13.862 -0.3743 -0.3203  0.1785
 1381TIP3    H125634   6.579   0.818  13.866 -0.2980 -0.1789  0.6741
 1381TIP3    H225635   6.521   0.935  13.790 -1.2810 -2.1262 -1.6762
 1382TIP3   OH225636   5.517   3.059  11.141 -0.9826 -0.3440 -0.2091
 1382TIP3    H125637   5.504   3.127  11.075 -0.4960 -0.1312 -0.0916
 1382TIP3    H225638   5.545   2.982  11.091  0.6111  0.1735 -0.1463
 1383TIP3   OH225639   3.387   6.264  14.754 -0.1983 -0.0630  0.0285
 1383TIP3    H125640   3.451   6.227  14.815 -0.8601  0.5088  1.1069
 1383TIP3    H225641   3.411   6.228  14.669  0.0955 -1.7624  0.7936
 1384TIP3   OH225642   1.301   1.462   5.038 -0.1799 -0.2235  0.2182
 1384TIP3    H125643   1.278   1.509   4.958  1.4344 -0.6057 -0.5064
 1384TIP3    H225644   1.348   1.527   5.091 -2.0621  0.3130  1.3291
 1385TIP3   OH225645   1.033   0.615  16.392  0.1324  0.7253 -0.0163
 1385TIP3    H125646   0.971   0.592  16.461  0.8464  1.3989  0.8660
 1385TIP3    H225647   1.048   0.709  16.402  2.3400  0.3589  0.6942
 1386TIP3   OH225648   6.023   5.536   2.426 -0.7998  0.4841 -0.3532
 1386TIP3    H125649   6.024   5.603   2.357 -0.3176  1.1738  0.3154
 1386TIP3    H225650   6.026   5.585   2.508 -2.1776 -0.2989  0.1992
 1387TIP3   OH225651   3.428   3.380   2.724 -0.2682 -0.2089 -0.5439
 1387TIP3    H125652   3.448   3.286   2.729  2.4288  0.0820 -3.0265
 1387TIP3    H225653   3.508   3.423   2.754 -1.0791  1.3198 -0.4735
 1388TIP3   OH225654   2.684   3.962   0.196 -0.0226  0.5834  0.9884
 1388TIP3    H125655   2.639   4.029   0.145  0.0516  0.1608  0.3647
 1388TIP3    H225656   2.614   3.912   0.237 -0.1114  0.3101  0.5099
 1389TIP3   OH225657   5.213   2.494  15.912  0.4320 -0.6518  0.0775
 1389TIP3    H125658   5.302   2.459  15.920  0.2824 -1.0947 -0.2094
 1389TIP3    H225659   5.156   2.423  15.939  0.1026 -0.8419 -1.0801
 1390TIP3   OH225660   3.666   0.709  12.317 -0.0361 -0.6702  0.1392
 1390TIP3    H125661   3.589   0.691  12.371 -1.2290 -1.7724 -1.8206
 1390TIP3    H225662   3.688   0.625  12.278  1.3366 -0.0846 -0.4023
 1391TIP3   OH225663   6.536   0.407   0.514 -0.6763  0.4675 -0.4455
 1391TIP3    H125664   6.550   0.498   0.486  1.4856 -0.3708 -2.4095
 1391TIP3    H225665   6.571   0.404   0.603 -1.3535  1.6786 -0.1136
 1392TIP3   OH225666   5.041   4.151   5.112  0.1795 -0.0948 -0.1426
 1392TIP3    H125667   5.101   4.079   5.132  0.7774 -0.0241 -1.5639
 1392TIP3    H225668   5.098   4.223   5.083 -0.5370  0.2161 -0.8237
 1393TIP3   OH225669   3.829   4.333   6.753  0.4714 -0.7321  0.4366
 1393TIP3    H125670   3.825   4.413   6.804 -2.5828 -0.1993 -0.4266
 1393TIP3    H225671   3.922   4.320   6.735  1.1365  2.0967  1.3752
 1394TIP3   OH225672   0.122   0.113  14.392 -0.1679  0.3797 -0.3554
 1394TIP3    H125673   0.130   0.208  14.396 -3.9589  0.8934 -1.2114
 1394TIP3    H225674   0.111   0.086  14.484 -0.2303  0.9157 -0.2044
 1395TIP3   OH225675   3.338   6.534  14.965  0.6739 -0.3122  0.3982
 1395TIP3    H125676   3.243   6.524  14.966  0.6438 -0.2797 -0.6432
 1395TIP3    H225677   3.372   6.445  14.958  0.5890 -0.2207 -2.5334
 1396TIP3   OH225678   3.707   4.753   3.536  0.0369 -0.0368 -0.3781
 1396TIP3    H125679   3.713   4.693   3.461 -0.1126  0.2512 -0.6259
 1396TIP3    H225680   3.628   4.725   3.582 -0.2120  0.1673 -0.6729
 1397TIP3   OH225681   6.750   1.474   2.995  0.4367  0.0350 -0.6805
 1397TIP3    H125682   6.759   1.424   2.914  0.5356 -0.0873 -0.5932
 1397TIP3    H225683   6.831   1.458   3.043  0.2745 -0.0916 -0.4453
 1398TIP3   OH225684   5.628   0.127   1.291  0.1391  0.2709 -0.0439
 1398TIP3    H125685   5.676   0.187   1.234 -0.0289 -1.4398 -2.1163
 1398TIP3    H225686   5.545   0.111   1.245  0.1716 -1.4895  0.4511
 1399TIP3   OH225687   4.311   5.884   1.255  0.2252  0.1819  0.5851
 1399TIP3    H125688   4.321   5.852   1.344 -1.7095 -1.9751  0.1047
 1399TIP3    H225689   4.219   5.869   1.234  1.2847 -2.7159 -2.9466
 1400TIP3   OH225690   0.726   4.929   3.879  0.3663 -0.5146 -0.2595
 1400TIP3    H125691   0.798   4.927   3.942 -0.1744  1.8100  0.5486
 1400TIP3    H225692   0.648   4.911   3.933  0.1532 -1.3777 -0.8304
 1401TIP3   OH225693   1.551   6.644  13.770 -0.7257  0.3568  0.2364
 1401TIP3    H125694   1.485   6.656  13.702 -0.5181 -0.8068 -0.1940
 1401TIP3    H225695   1.517   6.692  13.846 -0.8781  1.8112 -0.7157
 1402TIP3   OH225696   5.559   1.495  14.383 -0.0404  0.0485 -0.3866
 1402TIP3    H125697   5.505   1.465  14.456  1.4241  0.5520  0.9560
 1402TIP3    H225698   5.502   1.557  14.337 -0.4533  1.0262  1.3279
 1403TIP3   OH225699   3.349   4.501  17.068 -0.0438  0.4009 -0.1216
 1403TIP3    H125700   3.271   4.556  17.072  0.1521  0.6511  0.3557
 1403TIP3    H225701   3.335   4.433  17.134 -0.1980 -0.0160 -0.5726
 1404TIP3   OH225702   3.863   4.444   5.784 -0.0461 -0.1886 -0.2467
 1404TIP3    H125703   3.820   4.528   5.769  0.4486  0.1861  0.3694
 1404TIP3    H225704   3.809   4.381   5.737 -0.8971  0.3569 -0.0312
 1405TIP3   OH225705   2.045   5.304   5.873 -0.2674 -0.2331  0.8649
 1405TIP3    H125706   1.963   5.353   5.864 -0.2378 -0.2511  0.4768
 1405TIP3    H225707   2.108   5.351   5.818  0.4095  0.6826  2.3822
 1406TIP3   OH225708   0.177   6.351  12.864  0.4967  0.2068  0.3165
 1406TIP3    H125709   0.172   6.376  12.957 -0.3664  1.5700 -0.0541
 1406TIP3    H225710   0.093   6.381  12.828  0.6848 -0.6187 -0.8369
 1407TIP3   OH225711   4.475   3.722   3.848 -0.8354  0.2332 -0.2586
 1407TIP3    H125712   4.459   3.627   3.848  1.6736 -0.2569  0.0689
 1407TIP3    H225713   4.511   3.740   3.761 -1.5994  0.9660 -0.4314
 1408TIP3   OH225714   6.573   2.344   5.882 -0.2470 -0.5905  0.1475
 1408TIP3    H125715   6.558   2.259   5.841 -0.6378  0.0613 -1.1188
 1408TIP3    H225716   6.665   2.342   5.907 -1.1583 -3.0775  4.3049
 1409TIP3   OH225717   6.336   0.511  15.957 -0.7544  0.5329 -0.5363
 1409TIP3    H125718   6.428   0.512  15.984 -0.8281 -0.8082 -0.1664
 1409TIP3    H225719   6.288   0.541  16.034 -0.7896 -1.1500  0.1503
 1410TIP3   OH225720   3.276   0.498   0.917 -0.3525 -0.1313  0.7606
 1410TIP3    H125721   3.268   0.494   0.822 -0.9099 -0.5909  0.8215
 1410TIP3    H225722   3.366   0.472   0.935 -0.5374 -1.0538  0.4083
 1411TIP3   OH225723   2.661   4.354   4.434  0.0365 -0.1273  0.0407
 1411TIP3    H125724   2.670   4.259   4.441 -2.8761 -0.4863 -0.1035
 1411TIP3    H225725   2.745   4.383   4.398  1.1457 -2.5674  0.4583
 1412TIP3   OH225726   6.210   0.607   4.409 -0.0629 -0.1587 -0.6687
 1412TIP3    H125727   6.131   0.590   4.459  0.8763 -1.3319  0.4973
 1412TIP3    H225728   6.180   0.617   4.319 -1.7873  1.8634  0.0401
 1413TIP3   OH225729   3.692   4.802  11.613 -0.6024 -0.0736  0.2525
 1413TIP3    H125730   3.775   4.803  11.660  0.7931  0.8075 -2.0238
 1413TIP3    H225731   3.649   4.721  11.641  1.4587 -1.0318  0.8211
 1414TIP3   OH225732   0.231   5.289   0.674 -0.1378 -0.1911 -0.1058
 1414TIP3    H125733   0.184   5.208   0.696 -2.8304  0.9830 -1.0112
 1414TIP3    H225734   0.224   5.342   0.754 -1.5825  0.4599 -0.6214
 1415TIP3   OH225735   0.426   2.764   2.916 -0.4939 -0.6568 -0.1309
 1415TIP3    H125736   0.356   2.735   2.857 -2.3391  1.2716  0.9545
 1415TIP3    H225737   0.499   2.786   2.858 -1.0769 -1.8887 -1.3841
 1416TIP3   OH225738   4.360   4.929  15.855 -0.3988  0.5351 -0.1461
 1416TIP3    H125739   4.314   4.941  15.937 -1.8370  0.8040 -0.9586
 1416TIP3    H225740   4.427   4.997  15.854  0.1121  0.0812  1.0930
 1417TIP3   OH225741   2.876   0.110  11.326  0.0429  0.5573  0.3622
 1417TIP3    H125742   2.802   0.064  11.287 -0.8176  2.0448  0.1682
 1417TIP3    H225743   2.842   0.146  11.408  0.8281  0.4726  0.7415
 1418TIP3   OH225744   2.523   0.893  14.872 -0.2659  0.2274 -0.1060
 1418TIP3    H125745   2.431   0.874  14.889 -0.7086  1.9693 -0.4410
 1418TIP3    H225746   2.569   0.854  14.947 -1.2125 -0.9354 -0.0942
 1419TIP3   OH225747   3.947   3.392   4.848 -0.3239 -0.0512  0.5657
 1419TIP3    H125748   3.960   3.392   4.943  1.0698  0.0044  0.4013
 1419TIP3    H225749   3.897   3.313   4.830  0.9700 -1.0548  1.1837
 1420TIP3   OH225750   2.698   2.472   6.137  0.9828 -0.2809  0.2439
 1420TIP3    H125751   2.713   2.419   6.215  0.0095  0.0502  0.6691
 1420TIP3    H225752   2.773   2.453   6.080  2.1882  0.1690  1.6282
 1421TIP3   OH225753   3.043   4.292   0.938 -0.2142  0.3417 -0.1655
 1421TIP3    H125754   3.089   4.236   1.001  1.0882  1.9778  0.4101
 1421TIP3    H225755   2.956   4.253   0.930  0.2047 -0.9761  1.2228
 1422TIP3   OH225756   4.233   3.429   5.773 -0.1407 -0.7172 -0.6047
 1422TIP3    H125757   4.138   3.418   5.780 -0.0209 -2.8822 -1.4201
 1422TIP3    H225758   4.264   3.436   5.863 -1.1096  0.4978 -0.3581
 1423TIP3   OH225759   0.802   5.743  16.557 -0.1947 -0.0818  0.2750
 1423TIP3    H125760   0.838   5.817  16.508 -2.4617  0.8860 -0.0531
 1423TIP3    H225761   0.784   5.777  16.644 -1.3561 -0.2008  0.0911
 1424TIP3   OH225762   6.512   0.158   6.868 -0.2916  0.4609  0.4342
 1424TIP3    H125763   6.555   0.099   6.805 -1.4364  1.0197 -0.9259
 1424TIP3    H225764   6.482   0.100   6.939 -0.2091 -0.4068 -0.2246
 1425TIP3   OH225765   4.259   3.634  14.441  0.0192  1.1676 -0.0395
 1425TIP3    H125766   4.287   3.711  14.390  0.5676 -0.0658 -1.6847
 1425TIP3    H225767   4.190   3.594  14.387  0.5554 -0.1328  0.2086
 1426TIP3   OH225768   6.204   4.542  11.828  0.0825  0.0459 -0.4144
 1426TIP3    H125769   6.265   4.487  11.877  0.2081  0.2944 -0.2894
 1426TIP3    H225770   6.254   4.621  11.809  0.4279 -0.5037 -1.9485
 1427TIP3   OH225771   4.306   5.863  15.677 -0.1983  0.3890  0.5218
 1427TIP3    H125772   4.211   5.872  15.685 -0.0340  0.6978  3.0941
 1427TIP3    H225773   4.329   5.913  15.599 -2.2133 -0.4353 -0.6759
 1428TIP3   OH225774   0.485   6.746  15.383  0.0613  0.2379 -0.3133
 1428TIP3    H125775   0.573   6.714  15.402 -0.1302  0.1775  0.4952
 1428TIP3    H225776   0.488   6.772  15.291  1.1951  1.0965 -0.0579
 1429TIP3   OH225777   5.551   6.183  14.257 -0.3069  0.2911  0.2341
 1429TIP3    H125778   5.578   6.274  14.247 -0.4246  0.2371 -0.6471
 1429TIP3    H225779   5.465   6.178  14.216  0.0273 -0.3667 -0.4370
 1430TIP3   OH225780   2.945   4.860  16.413  0.1514  0.1327 -0.4250
 1430TIP3    H125781   2.970   4.909  16.335  0.7624 -0.8805 -0.8771
 1430TIP3    H225782   3.026   4.818  16.442 -0.1108  0.3154  0.6393
 1431TIP3   OH225783   6.248   0.064  10.846 -0.6694  0.5631  0.2831
 1431TIP3    H125784   6.209   0.150  10.860 -1.5185  0.1658  0.4202
 1431TIP3    H225785   6.180   0.014  10.802  0.6043  0.6416 -1.9582
 1432TIP3   OH225786   6.212   2.356   0.831  0.7052  0.6148 -0.4288
 1432TIP3    H125787   6.287   2.391   0.879  0.7138 -0.0320  0.0431
 1432TIP3    H225788   6.154   2.431   0.820  0.1739  0.5412  1.6284
 1433TIP3   OH225789   5.196   3.239  11.702 -0.3123 -0.4347 -0.5656
 1433TIP3    H125790   5.177   3.210  11.791  2.4090 -1.0548 -0.1067
 1433TIP3    H225791   5.263   3.306  11.712 -2.2497  1.9284 -2.0176
 1434TIP3   OH225792   1.307   5.847   4.454  0.1816 -0.2508 -0.1730
 1434TIP3    H125793   1.335   5.825   4.543 -0.1841 -0.4882 -0.1189
 1434TIP3    H225794   1.368   5.800   4.398  1.6561  1.3989 -0.0696
 1435TIP3   OH225795   4.629   4.033  15.740 -0.0371  0.2441 -0.4668
 1435TIP3    H125796   4.695   4.097  15.766 -2.5032  2.4593  0.6713
 1435TIP3    H225797   4.546   4.078  15.748 -1.7792 -2.4487 -1.7904
 1436TIP3   OH225798   2.780   3.696  13.829 -0.7236 -0.2276  0.3524
 1436TIP3    H125799   2.736   3.619  13.865 -1.5082  0.1626  0.2661
 1436TIP3    H225800   2.761   3.692  13.735  2.0358 -1.7130 -0.2394
 1437TIP3   OH225801   1.464   5.459   0.058 -0.2154 -0.4668  0.3551
 1437TIP3    H125802   1.462   5.374   0.015 -1.9620 -0.1366 -0.2847
 1437TIP3    H225803   1.506   5.442   0.143 -1.0886 -2.0901  0.4982
 1438TIP3   OH225804   2.985   2.523  16.842 -0.0098  0.1451  0.3052
 1438TIP3    H125805   2.982   2.427  16.839  1.2913  0.0790  0.7936
 1438TIP3    H225806   2.899   2.550  16.807  0.2162 -1.1514 -1.4273
 1439TIP3   OH225807   3.276   1.374  14.075  0.3646  0.0297  0.1734
 1439TIP3    H125808   3.242   1.347  13.989 -0.5581  1.5522  0.0344
 1439TIP3    H225809   3.213   1.339  14.138 -0.8852  1.8127 -0.0138
 1440TIP3   OH225810   5.451   6.745  16.138  0.0955  0.0726  0.4299
 1440TIP3    H125811   5.446   6.796  16.057  1.4256  3.2343  2.1336
 1440TIP3    H225812   5.542   6.713  16.141  0.4648  1.1296  1.2318
 1441TIP3   OH225813   0.606   3.876   1.114  0.4017 -0.5366 -0.4993
 1441TIP3    H125814   0.652   3.880   1.198 -1.3629 -0.7545  0.5236
 1441TIP3    H225815   0.604   3.967   1.084 -1.8837  0.1734  1.4326
 1442TIP3   OH225816   3.017   4.573  13.191  0.5273  0.0642  0.0007
 1442TIP3    H125817   2.927   4.574  13.158  0.2882  1.4122  0.6119
 1442TIP3    H225818   3.035   4.480  13.208 -0.4719 -0.3037 -0.8273
 1443TIP3   OH225819   3.714   2.896  11.723 -0.2325  0.5762  0.5314
 1443TIP3    H125820   3.757   2.851  11.796  0.3976  0.7915  0.2952
 1443TIP3    H225821   3.648   2.951  11.765 -0.3950  0.1232  0.8850
 1444TIP3   OH225822   6.782   3.166   5.243  0.2194  0.0598 -0.4442
 1444TIP3    H125823   6.772   3.260   5.259  0.8100  0.5246 -2.4923
 1444TIP3    H225824   6.730   3.150   5.163 -1.0544 -1.6668  0.6568
 1445TIP3   OH225825   5.639   6.418   4.640  0.3644 -0.0845 -0.3211
 1445TIP3    H125826   5.592   6.465   4.572  0.9942 -2.0275 -2.2189
 1445TIP3    H225827   5.725   6.401   4.602  0.9192 -0.7842  1.1663
 1446TIP3   OH225828   3.296   3.766   1.812 -0.4149  0.8126  0.0505
 1446TIP3    H125829   3.339   3.680   1.808 -3.5979 -0.8815 -2.2040
 1446TIP3    H225830   3.353   3.824   1.762  0.9322 -0.4134  0.0883
 1447TIP3   OH225831   2.533   2.372  15.329 -0.9124 -0.3616 -0.2480
 1447TIP3    H125832   2.444   2.393  15.301 -1.3769 -1.3687  0.4308
 1447TIP3    H225833   2.528   2.283  15.364  0.2066 -0.1721  0.4676
 1448TIP3   OH225834   1.863   3.161  12.139 -0.5148 -0.3684  0.2773
 1448TIP3    H125835   1.951   3.140  12.110  0.0060  0.8727  0.8901
 1448TIP3    H225836   1.809   3.152  12.060  0.0882 -1.4451 -0.0267
 1449TIP3   OH225837   2.335   1.465  12.134 -0.6246 -0.2989 -0.3792
 1449TIP3    H125838   2.325   1.370  12.128 -1.2513 -0.2251 -0.5415
 1449TIP3    H225839   2.339   1.494  12.043 -2.5000  0.0390 -0.3762
 1450TIP3   OH225840   6.146   4.030  11.073  0.0679 -0.2450  0.4499
 1450TIP3    H125841   6.125   4.089  11.145  0.3981  0.7885 -0.2693
 1450TIP3    H225842   6.099   4.067  10.998  0.2932 -0.8967 -0.0214
 1451TIP3   OH225843   6.430   1.687  15.714  0.0497  0.5248 -0.3154
 1451TIP3    H125844   6.350   1.708  15.762 -0.4591 -0.6189 -0.6457
 1451TIP3    H225845   6.444   1.594  15.729  1.8554  0.8822  0.4950
 1452TIP3   OH225846   4.140   1.608  12.149 -0.1050  0.2798 -0.4539
 1452TIP3    H125847   4.178   1.693  12.125  3.1453 -1.0627 -0.5561
 1452TIP3    H225848   4.107   1.621  12.238  0.7058  1.5525 -0.3081
 1453TIP3   OH225849   3.808   3.959  13.766  0.0473  0.1194 -0.6200
 1453TIP3    H125850   3.867   4.000  13.828  0.3164  1.6638 -1.8299
 1453TIP3    H225851   3.724   4.002  13.781 -0.3542 -0.8043 -0.1163
 1454TIP3   OH225852   4.207   3.922  10.633  0.1266  0.1555  0.1396
 1454TIP3    H125853   4.280   3.903  10.575  1.4502  0.6843  1.5593
 1454TIP3    H225854   4.142   3.965  10.577  0.6192 -0.8774 -1.2804
 1455TIP3   OH225855   1.719   3.639   1.608  0.3064  0.3373  0.1259
 1455TIP3    H125856   1.751   3.724   1.577  1.4335 -0.1375 -0.0588
 1455TIP3    H225857   1.774   3.619   1.684 -1.2183  0.6348  1.3690
 1456TIP3   OH225858   6.174   4.088   3.418 -0.8935  0.0256 -0.1598
 1456TIP3    H125859   6.182   3.993   3.432 -0.1221  0.0678 -0.3186
 1456TIP3    H225860   6.094   4.097   3.366  1.2622 -0.9159 -3.9578
 1457TIP3   OH225861   1.637   3.002  16.471 -0.9960 -0.6644 -0.2590
 1457TIP3    H125862   1.682   3.086  16.485 -0.0997 -1.2318  0.3709
 1457TIP3    H225863   1.648   2.955  16.553 -0.5189 -1.8388 -0.9736
 1458TIP3   OH225864   6.772   1.458   4.512 -0.0628 -0.6458 -0.1316
 1458TIP3    H125865   6.695   1.490   4.465 -0.1601 -2.4199 -1.2585
 1458TIP3    H225866   6.740   1.383   4.563  0.9578 -1.5842 -0.8335
 1459TIP3   OH225867   0.105   1.427  15.455 -0.3058  0.5780 -0.1204
 1459TIP3    H125868   0.182   1.483  15.443  1.0840 -1.1807  0.0313
 1459TIP3    H225869   0.132   1.365  15.523 -0.8356 -1.7349 -1.8824
 1460TIP3   OH225870   5.768   0.912  16.573  0.3176  0.1133  0.1036
 1460TIP3    H125871   5.703   0.981  16.585 -1.6005 -1.3083 -1.3634
 1460TIP3    H225872   5.734   0.839  16.625 -0.4844 -1.3478 -2.3183
 1461TIP3   OH225873   3.008   0.584  11.901 -0.1343 -0.6902  0.0273
 1461TIP3    H125874   3.018   0.556  11.810  0.8974  0.0996 -0.1277
 1461TIP3    H225875   2.954   0.517  11.941 -1.8737 -0.3061 -1.5171
 1462TIP3   OH225876   2.142   2.347   2.045 -0.4463 -0.8087  0.0551
 1462TIP3    H125877   2.173   2.435   2.022  2.5709 -1.6173  0.5682
 1462TIP3    H225878   2.083   2.323   1.975 -1.0596  1.4631 -0.2984
 1463TIP3   OH225879   6.443   0.361   0.941  0.7855 -0.2103 -0.1637
 1463TIP3    H125880   6.478   0.321   1.020  1.1373 -0.4012 -0.4142
 1463TIP3    H225881   6.349   0.367   0.957  0.8157 -0.5375  0.1407
 1464TIP3   OH225882   1.553   6.795  12.302  0.1931 -0.4133  0.4790
 1464TIP3    H125883   1.539   6.712  12.256  0.8802 -0.6169  0.6309
 1464TIP3    H225884   1.590   6.853  12.235 -2.5167  0.5786 -0.3253
 1465TIP3   OH225885   4.028   4.648  16.170  0.3240 -0.2500  0.2832
 1465TIP3    H125886   3.935   4.638  16.152  0.1379 -0.2724  1.2174
 1465TIP3    H225887   4.036   4.635  16.265  0.7287  3.4859  0.9202
 1466TIP3   OH225888   3.557   6.086   4.798 -0.2711 -0.1504  0.0339
 1466TIP3    H125889   3.543   5.994   4.821  0.4312 -0.6302 -1.3253
 1466TIP3    H225890   3.652   6.094   4.786 -0.5021  0.2072 -1.8957
 1467TIP3   OH225891   6.582   4.361  12.287  0.2475 -0.4683  0.5640
 1467TIP3    H125892   6.617   4.391  12.371  0.7223 -0.3040  0.3157
 1467TIP3    H225893   6.582   4.439  12.232  1.6508 -0.9225 -0.1412
 1468TIP3   OH225894   4.934   1.240  11.996  0.2928  0.1165 -0.9852
 1468TIP3    H125895   4.886   1.321  12.012  1.0172  0.2380  0.7693
 1468TIP3    H225896   5.022   1.269  11.971  0.6166 -0.1142 -0.1375
 1469TIP3   OH225897   2.850   5.971   0.339  0.2607  0.3726  0.4631
 1469TIP3    H125898   2.764   6.011   0.331 -0.1336 -0.6206 -0.5702
 1469TIP3    H225899   2.883   6.000   0.424 -0.3753  2.1209  0.1432
 1470TIP3   OH225900   3.613   2.282  17.028 -0.2469 -0.0547  0.4813
 1470TIP3    H125901   3.686   2.221  17.030  2.3575  2.5847 -2.4223
 1470TIP3    H225902   3.623   2.334  17.108  1.8555  0.9214 -0.3253
 1471TIP3   OH225903   3.514   3.917   1.812 -0.5041 -0.2867 -0.0856
 1471TIP3    H125904   3.524   3.847   1.875  1.8829  0.6961  0.7294
 1471TIP3    H225905   3.602   3.931   1.777 -1.7911 -1.3118 -4.3237
 1472TIP3   OH225906   1.170   4.787   5.880  0.0342  0.0766 -0.1712
 1472TIP3    H125907   1.111   4.860   5.898 -1.9032 -1.7244  1.2892
 1472TIP3    H225908   1.242   4.826   5.830 -0.7738  2.9909  0.7456
 1473TIP3   OH225909   2.139   3.571   1.157  0.2058  0.1823 -0.0027
 1473TIP3    H125910   2.174   3.486   1.131 -1.1948  0.1950 -2.2088
 1473TIP3    H225911   2.081   3.551   1.231  0.2757 -0.6887 -0.1713
 1474TIP3   OH225912   2.459   5.107   2.176  0.1325  0.2590 -0.2618
 1474TIP3    H125913   2.387   5.162   2.206  0.7690  0.1464  1.5559
 1474TIP3    H225914   2.531   5.124   2.236  0.3980 -2.4418  0.3381
 1475TIP3   OH225915   6.323   1.053   2.879 -0.6245 -0.2496 -0.1785
 1475TIP3    H125916   6.379   0.975   2.873 -0.1103  0.1603 -0.8254
 1475TIP3    H225917   6.267   1.036   2.955  0.4068 -0.6471  0.5164
 1476TIP3   OH225918   3.681   3.317   2.252 -1.0444  0.2498  0.3684
 1476TIP3    H125919   3.665   3.223   2.243  1.0672 -0.4418  2.7389
 1476TIP3    H225920   3.689   3.348   2.162 -0.2248 -2.1681 -0.4940
 1477TIP3   OH225921   4.966   5.743   1.989 -0.5144  0.0660  0.1298
 1477TIP3    H125922   4.895   5.780   2.042 -1.5745 -0.5070 -0.8282
 1477TIP3    H225923   5.042   5.744   2.046 -1.0692  1.5515  0.8980
 1478TIP3   OH225924   6.794   3.623   0.817 -0.1110 -0.0652  0.1024
 1478TIP3    H125925   6.854   3.697   0.804  0.9403 -0.8427  0.3678
 1478TIP3    H225926   6.850   3.545   0.808 -1.3457 -0.8760 -1.0764
 1479TIP3   OH225927   2.930   5.348  14.099 -0.3806 -0.1092 -0.1972
 1479TIP3    H125928   2.962   5.435  14.076 -0.0307  0.1441  1.1436
 1479TIP3    H225929   2.977   5.326  14.180 -1.3357 -1.0415  0.1294
 1480TIP3   OH225930   6.709   5.044  12.184 -0.2131 -0.2943 -0.3097
 1480TIP3    H125931   6.769   4.972  12.164 -0.7957 -1.1311  0.7669
 1480TIP3    H225932   6.700   5.092  12.102  3.6742  1.3028 -0.0167
 1481TIP3   OH225933   5.925   0.337   2.911  0.5310  0.3525  0.1288
 1481TIP3    H125934   5.899   0.246   2.904  1.1595  0.1951 -0.2772
 1481TIP3    H225935   6.008   0.342   2.863 -0.0865  1.3749 -0.9170
 1482TIP3   OH225936   0.718   1.870  10.755 -0.2284 -0.1428  0.1033
 1482TIP3    H125937   0.787   1.854  10.820  0.0264 -1.1743 -0.3993
 1482TIP3    H225938   0.658   1.931  10.798  0.3254 -0.2320  1.0294
 1483TIP3   OH225939   4.984   3.887  13.201  0.4425  0.1689  0.3339
 1483TIP3    H125940   4.976   3.800  13.239 -1.5370 -0.1249 -0.6123
 1483TIP3    H225941   4.983   3.872  13.106  3.8477  0.9827  0.0495
 1484TIP3   OH225942   1.506   4.856   2.472  0.1422 -0.0643 -0.3669
 1484TIP3    H125943   1.564   4.912   2.420  0.5180  0.6513  0.7970
 1484TIP3    H225944   1.564   4.789   2.508 -0.1350 -0.6154 -0.9285
 1485TIP3   OH225945   1.074   6.787  16.456 -0.0011 -0.0032 -0.1156
 1485TIP3    H125946   1.088   6.828  16.371  1.6698 -0.8119 -0.2615
 1485TIP3    H225947   1.121   6.843  16.518  1.0073 -0.8470 -0.1058
 1486TIP3   OH225948   5.112   0.572  11.648 -0.3107  0.1197  0.8348
 1486TIP3    H125949   5.072   0.558  11.734  0.6631 -1.0223  1.1406
 1486TIP3    H225950   5.154   0.658  11.655 -2.6090  1.3511  0.5004
 1487TIP3   OH225951   2.561   3.813   1.549  0.1048 -0.5213  0.1972
 1487TIP3    H125952   2.527   3.888   1.500 -0.1876 -1.5573 -1.2629
 1487TIP3    H225953   2.505   3.808   1.627  1.2559  1.8053  1.2543
 1488TIP3   OH225954   1.718   1.925   4.075  0.5468  0.1442 -0.2656
 1488TIP3    H125955   1.709   1.886   3.988 -0.5480 -0.4227  0.0894
 1488TIP3    H225956   1.650   1.992   4.079 -1.1018 -1.5281  1.0413
 1489TIP3   OH225957   0.692   4.196   5.778  1.1864  0.0596 -0.3615
 1489TIP3    H125958   0.739   4.255   5.719 -0.7412  1.3061 -0.7410
 1489TIP3    H225959   0.754   4.124   5.795  3.0789  1.4657 -1.0154
 1490TIP3   OH225960   4.729   5.940  14.164  0.4153 -0.8486  0.5116
 1490TIP3    H125961   4.784   5.950  14.241  0.6427 -1.4213  0.4307
 1490TIP3    H225962   4.724   5.845  14.150 -2.9489 -1.0855  2.2350
 1491TIP3   OH225963   1.791   5.114   1.091  0.2853  0.4855  0.1247
 1491TIP3    H125964   1.768   5.139   1.180 -0.5994  0.4166 -0.0750
 1491TIP3    H225965   1.845   5.187   1.059 -0.8336  1.3520  0.1354
 1492TIP3   OH225966   0.315   1.875   3.239  0.0525 -0.2262 -0.4197
 1492TIP3    H125967   0.248   1.884   3.307 -0.5920  1.7574 -1.2313
 1492TIP3    H225968   0.276   1.915   3.161  1.9875  0.5756 -1.0456
 1493TIP3   OH225969   5.690   0.239   1.951  0.1779  0.0266 -0.1084
 1493TIP3    H125970   5.720   0.327   1.975 -1.0279  0.6198 -0.7169
 1493TIP3    H225971   5.666   0.199   2.034 -0.3367  0.6801  0.0612
 1494TIP3   OH225972   0.648   0.060  16.243 -0.1960 -0.0367 -0.0913
 1494TIP3    H125973   0.644  -0.035  16.231 -2.7208  0.2763 -3.0416
 1494TIP3    H225974   0.717   0.089  16.183 -1.9435  0.1848 -2.1242
 1495TIP3   OH225975   1.547   5.656  14.971 -0.0600  0.4080  0.1163
 1495TIP3    H125976   1.623   5.605  15.000  1.8648  2.8160 -0.3350
 1495TIP3    H225977   1.475   5.625  15.025  1.4332 -1.3483  1.2183
 1496TIP3   OH225978   2.328   1.025  14.424 -0.1959  0.5084  0.0123
 1496TIP3    H125979   2.382   1.000  14.349  1.1276  1.9264  0.4230
 1496TIP3    H225980   2.392   1.046  14.493 -1.2607  2.1780  0.5506
 1497TIP3   OH225981   6.416   1.713  12.380  0.3094  0.2862 -0.2867
 1497TIP3    H125982   6.454   1.661  12.310 -1.3670 -1.8677  0.2983
 1497TIP3    H225983   6.322   1.695  12.375  0.2168 -1.0841  3.2644
 1498TIP3   OH225984   3.012   5.309  15.111  0.7444  0.4845 -0.2307
 1498TIP3    H125985   2.996   5.383  15.170  0.2490 -0.3326  0.6990
 1498TIP3    H225986   2.953   5.324  15.037  0.3550  0.8175  0.1421
 1499TIP3   OH225987   4.229   1.827   5.102  0.4205 -0.2740 -0.3537
 1499TIP3    H125988   4.144   1.792   5.075  0.7413 -0.4752 -1.1571
 1499TIP3    H225989   4.222   1.841   5.196 -1.0314  1.1717 -0.6280
 1500TIP3   OH225990   6.811   5.267  12.764  0.5572 -0.3049  0.2914
 1500TIP3    H125991   6.851   5.227  12.841  1.0210  1.3532  0.9430
 1500TIP3    H225992   6.869   5.339  12.740 -1.8053  2.0413  1.1166
 1501TIP3   OH225993   2.181   2.939  14.094 -0.4855 -0.5440  0.3127
 1501TIP3    H125994   2.127   2.996  14.039  0.9148 -0.4370 -1.0142
 1501TIP3    H225995   2.120   2.873  14.126 -1.4194 -0.4749 -1.2107
 1502TIP3   OH225996   1.953   2.774  14.546  0.0938 -0.8190 -0.6478
 1502TIP3    H125997   2.026   2.737  14.594  0.6034  0.7633 -0.1330
 1502TIP3    H225998   1.881   2.778  14.610 -0.3706 -2.0511 -1.0578
 1503TIP3   OH225999   5.992   4.041  12.084 -0.2315 -0.1381 -0.0475
 1503TIP3    H126000   6.028   3.970  12.137  0.0545  0.5899  0.7514
 1503TIP3    H226001   5.949   3.997  12.011 -0.8422 -1.1710  0.9190
 1504TIP3   OH226002   0.031   2.448   4.631  0.4256  0.4492 -0.7147
 1504TIP3    H126003  -0.056   2.435   4.593  0.4444  2.3770 -1.5279
 1504TIP3    H226004   0.092   2.428   4.560  0.5425  1.4843 -0.9258
 1505TIP3   OH226005   2.645   1.027   0.908 -0.7275 -0.1538  0.7287
 1505TIP3    H126006   2.638   0.989   0.995  0.3598 -0.9063  0.5110
 1505TIP3    H226007   2.692   0.961   0.857  3.8197  2.3986  1.0397
 1506TIP3   OH226008   2.956   1.095  15.625  0.0320 -0.2189  0.3725
 1506TIP3    H126009   3.021   1.119  15.691 -0.2246 -0.0858  0.5781
 1506TIP3    H226010   2.879   1.148  15.645  0.6306  1.3766 -1.2802
 1507TIP3   OH226011   1.232   5.794   5.582  0.1740  0.5457  0.1760
 1507TIP3    H126012   1.249   5.832   5.667 -1.0055  0.3354  0.5261
 1507TIP3    H226013   1.318   5.789   5.540  0.5823  1.9422  0.7951
 1508TIP3   OH226014   6.255   3.221  13.120 -0.1766  0.1009 -1.0508
 1508TIP3    H126015   6.199   3.143  13.117  1.0569 -1.1319  2.6029
 1508TIP3    H226016   6.194   3.294  13.128 -1.4495 -1.1231  1.8848
 1509TIP3   OH226017   6.147   2.393   4.763 -0.5674  0.2163 -0.1472
 1509TIP3    H126018   6.055   2.413   4.747 -0.5694  0.0866 -0.3011
 1509TIP3    H226019   6.162   2.309   4.718 -0.2078  0.5615 -0.6850
 1510TIP3   OH226020   4.316   0.176  10.689  0.2850  0.3151  0.2403
 1510TIP3    H126021   4.324   0.087  10.723 -0.5633  0.3212  0.4778
 1510TIP3    H226022   4.304   0.166  10.595  0.0915  0.1627  0.2804
 1511TIP3   OH226023   6.358   2.687  14.793 -0.2713 -0.6956  0.4355
 1511TIP3    H126024   6.447   2.671  14.823 -0.6741 -0.5811  1.7423
 1511TIP3    H226025   6.305   2.618  14.832 -0.9677  0.0087  0.7787
 1512TIP3   OH226026   5.086   0.838   2.558  0.3453  0.3776  0.0956
 1512TIP3    H126027   5.161   0.799   2.602 -1.8381 -1.2868  2.6650
 1512TIP3    H226028   5.018   0.770   2.561 -0.6770  0.8414 -4.2995
 1513TIP3   OH226029   2.005   5.152   3.200 -0.0517  1.0106 -0.8179
 1513TIP3    H126030   2.086   5.110   3.172 -1.3185 -1.4701 -1.0520
 1513TIP3    H226031   1.944   5.135   3.128 -1.0741  1.9263 -0.1878
 1514TIP3   OH226032   1.263   2.165   0.109  0.0002 -0.4199  0.2034
 1514TIP3    H126033   1.327   2.190   0.041 -1.7965  2.9920 -0.4441
 1514TIP3    H226034   1.315   2.160   0.189  1.5576 -0.9061 -0.7749
 1515TIP3   OH226035   1.731   0.293   3.454 -0.3306 -0.0100 -0.4519
 1515TIP3    H126036   1.802   0.347   3.420  0.5738 -1.2559 -0.6365
 1515TIP3    H226037   1.654   0.320   3.405 -0.6418  3.2484  1.5706
 1516TIP3   OH226038   0.993   1.696  14.566  0.4796  0.5294 -0.1518
 1516TIP3    H126039   0.960   1.609  14.544 -0.0687  0.5887  0.4001
 1516TIP3    H226040   1.002   1.741  14.482  0.6107 -0.0038 -0.4244
 1517TIP3   OH226041   6.375   1.992   1.691 -1.1273 -0.0340  0.3863
 1517TIP3    H126042   6.443   1.945   1.642 -0.3273 -0.3767  1.7950
 1517TIP3    H226043   6.295   1.976   1.641 -0.7622 -2.3537  0.4288
 1518TIP3   OH226044   2.057   5.036  11.427 -0.4312  0.1252  0.0041
 1518TIP3    H126045   2.050   5.080  11.512 -0.9840 -0.5832  0.3361
 1518TIP3    H226046   2.145   4.997  11.427 -0.8887 -0.9617  0.8033
 1519TIP3   OH226047   4.179   6.155   4.938  0.5864  0.2644 -0.2901
 1519TIP3    H126048   4.166   6.192   4.851 -0.3710 -0.5889 -0.5397
 1519TIP3    H226049   4.272   6.166   4.956  0.4007  2.4197 -0.4865
 1520TIP3   OH226050   0.298   2.834  15.497  0.1662 -0.3697  0.1745
 1520TIP3    H126051   0.313   2.840  15.403  0.7017  1.9135  0.3430
 1520TIP3    H226052   0.298   2.741  15.516  1.0185 -0.8404 -1.9404
 1521TIP3   OH226053   6.492   4.304  13.516 -0.1876 -0.3428 -0.1880
 1521TIP3    H126054   6.536   4.385  13.542 -1.3211  0.1065  0.4179
 1521TIP3    H226055   6.495   4.304  13.420  2.0563 -0.8840 -0.1812
 1522TIP3   OH226056   2.962   4.800   2.055 -0.1044 -0.6837  0.4554
 1522TIP3    H126057   2.874   4.838   2.062 -2.4453 -4.7121 -2.7023
 1522TIP3    H226058   2.979   4.762   2.141 -3.0211 -2.5109  0.3543
 1523TIP3   OH226059   2.003   0.420   0.724  0.4784 -0.2794  0.2617
 1523TIP3    H126060   1.913   0.428   0.755  0.7645  0.0393  1.0231
 1523TIP3    H226061   1.995   0.406   0.630 -0.3332  1.0902  0.0957
 1524TIP3   OH226062   5.354   1.894  11.371 -0.1617  0.1947 -0.2053
 1524TIP3    H126063   5.441   1.857  11.387  0.1180  0.8599 -0.1793
 1524TIP3    H226064   5.297   1.849  11.433  0.2385  0.0481  0.0577
 1525TIP3   OH226065   5.446   0.604   3.530  0.4177 -0.4322 -0.3680
 1525TIP3    H126066   5.404   0.560   3.603  0.4409 -0.3585 -0.3098
 1525TIP3    H226067   5.513   0.543   3.500  1.1571 -0.0074  0.3833
 1526TIP3   OH226068   5.863   5.811   2.833 -0.1558  0.4637 -0.1178
 1526TIP3    H126069   5.779   5.855   2.828 -0.7229 -0.3918  1.4161
 1526TIP3    H226070   5.842   5.718   2.828  0.7251  0.2543 -0.0684
 1527TIP3   OH226071   6.688   3.500  16.841 -0.2111 -0.2964 -0.3544
 1527TIP3    H126072   6.740   3.579  16.859  0.3636 -0.7948  0.2264
 1527TIP3    H226073   6.599   3.525  16.864 -0.1560  0.3965 -0.8335
 1528TIP3   OH226074   2.393   5.146  15.435 -0.1457  0.2314 -0.1649
 1528TIP3    H126075   2.357   5.058  15.448  0.3444  0.1793  0.9999
 1528TIP3    H226076   2.392   5.185  15.522  0.4671  1.0602 -0.5138
 1529TIP3   OH226077   6.012   1.544   5.802 -0.1812 -0.3156 -0.2651
 1529TIP3    H126078   5.999   1.636   5.778  0.7344 -0.1669 -0.1913
 1529TIP3    H226079   6.099   1.522   5.771 -0.5506 -1.2937 -0.6651
 1530TIP3   OH226080   5.010   1.153   3.777 -0.3811 -0.9300 -0.6932
 1530TIP3    H126081   5.046   1.076   3.820  0.4749  0.0033  0.3148
 1530TIP3    H226082   4.917   1.153   3.799  0.0269 -0.4913  1.1864
 1531TIP3   OH226083   5.480   6.467   5.209 -0.4449  0.1695 -0.1352
 1531TIP3    H126084   5.493   6.540   5.269  0.3323 -0.7052  0.8047
 1531TIP3    H226085   5.565   6.422   5.207 -1.3583 -1.7192  0.7053
 1532TIP3   OH226086   5.918   2.297  13.639 -0.0746 -0.4723  0.2769
 1532TIP3    H126087   5.893   2.250  13.559 -0.6949 -0.0530  0.2246
 1532TIP3    H226088   5.927   2.388  13.611 -1.1265 -0.1799  0.8605
 1533TIP3   OH226089   1.974   2.761  11.828  0.5515  0.3906 -0.0350
 1533TIP3    H126090   2.026   2.769  11.908 -0.0528  2.1537  0.2133
 1533TIP3    H226091   2.026   2.704  11.772  2.1131  1.0040  0.7229
 1534TIP3   OH226092   1.685   3.050  14.703  0.5397 -0.2233 -0.0709
 1534TIP3    H126093   1.590   3.048  14.688  0.3718 -1.1691  0.9892
 1534TIP3    H226094   1.722   3.065  14.616 -0.6186  1.9562 -0.2657
 1535TIP3   OH226095   1.404   3.279   5.189 -0.6555  0.1257 -0.2285
 1535TIP3    H126096   1.322   3.263   5.143 -1.0748 -0.5062  0.6998
 1535TIP3    H226097   1.443   3.353   5.144 -2.5959  1.6376  0.4181
 1536TIP3   OH226098   2.401   1.882   2.313  0.2458  0.1731  0.1194
 1536TIP3    H126099   2.484   1.925   2.335  0.4873  0.3209 -0.9749
 1536TIP3    H226100   2.416   1.789   2.329 -0.9887  0.5324  4.7002
 1537TIP3   OH226101   5.953   2.134  16.721 -0.0656  0.0970  0.2773
 1537TIP3    H126102   5.860   2.157  16.722 -0.1176  1.0166 -4.0550
 1537TIP3    H226103   5.997   2.210  16.759 -0.9846  0.6359  0.2951
 1538TIP3   OH226104   0.386   6.391  12.679  0.2401  0.6405 -0.6576
 1538TIP3    H126105   0.305   6.375  12.726  0.5718 -0.7981 -0.5367
 1538TIP3    H226106   0.405   6.484  12.694  1.9616 -0.2337  4.7505
 1539TIP3   OH226107   4.211   0.382   4.585  0.5577 -0.6006  0.0844
 1539TIP3    H126108   4.284   0.344   4.632 -0.3576 -0.9730  1.2451
 1539TIP3    H226109   4.151   0.412   4.653  0.5639  1.6340 -0.8010
 1540TIP3   OH226110   4.638   5.140  13.541  0.3884  0.3631 -0.5362
 1540TIP3    H126111   4.657   5.225  13.500  2.0579  0.1846 -0.1862
 1540TIP3    H226112   4.679   5.145  13.627 -1.4023 -0.0110  0.3818
 1541TIP3   OH226113   3.523   2.748   0.808 -0.3185 -0.1908  0.2691
 1541TIP3    H126114   3.555   2.769   0.720  3.1406 -0.3246  1.3347
 1541TIP3    H226115   3.522   2.653   0.812 -0.3995 -0.1858  0.3886
 1542TIP3   OH226116   5.805   6.514   5.873  0.6423 -0.0002  0.3524
 1542TIP3    H126117   5.901   6.511   5.865  0.5756  1.2783 -1.6749
 1542TIP3    H226118   5.780   6.424   5.893  1.9842 -1.6930 -4.2164
 1543TIP3   OH226119   1.544   1.650  16.692  0.1665  0.0533 -0.8917
 1543TIP3    H126120   1.586   1.666  16.776 -1.7187 -0.2573  0.1709
 1543TIP3    H226121   1.580   1.566  16.663 -0.5398 -0.8033  0.5688
 1544TIP3   OH226122   2.738   0.930  17.191 -0.7904 -0.9361  0.2493
 1544TIP3    H126123   2.748   0.847  17.144 -0.7974 -0.4640 -0.6211
 1544TIP3    H226124   2.799   0.989  17.147 -2.4034  0.1308 -0.6541
 1545TIP3   OH226125   5.224   1.317   3.720  0.3343  0.6470  0.1290
 1545TIP3    H126126   5.134   1.305   3.752  0.4854  0.9074  0.6549
 1545TIP3    H226127   5.279   1.294   3.795  0.6802  2.3109  0.4150
 1546TIP3   OH226128   3.586   3.443   4.453 -0.1977  0.1037  0.4745
 1546TIP3    H126129   3.568   3.510   4.387  3.1034  0.9811  0.2965
 1546TIP3    H226130   3.541   3.475   4.532 -0.6478  1.2765 -0.2349
 1547TIP3   OH226131   2.816   4.342  12.496  0.1672  0.0183 -0.6608
 1547TIP3    H126132   2.845   4.250  12.496  0.6247  0.1569 -1.4626
 1547TIP3    H226133   2.856   4.380  12.574  0.6190 -0.2667 -0.7521
 1548TIP3   OH226134   6.090   0.341  15.257  0.2861 -0.4673 -0.7927
 1548TIP3    H126135   6.068   0.284  15.183 -0.0471 -0.2072 -0.9001
 1548TIP3    H226136   6.029   0.314  15.326  0.7810 -0.8936 -0.5238
 1549TIP3   OH226137   1.536   6.380  14.859  0.2032 -0.3194 -0.0945
 1549TIP3    H126138   1.590   6.364  14.781  0.2549 -2.0968  0.2857
 1549TIP3    H226139   1.450   6.403  14.824 -0.5576 -3.6952 -0.7749
 1550TIP3   OH226140   6.817   6.616  16.836 -0.0887  0.1907  0.7068
 1550TIP3    H126141   6.903   6.651  16.812  0.7566 -1.5424  1.1091
 1550TIP3    H226142   6.829   6.581  16.925 -0.9814 -0.7968  0.4539
 1551TIP3   OH226143   3.061   5.693  13.177 -0.6383  0.1632 -0.2593
 1551TIP3    H126144   3.033   5.653  13.094 -0.7042 -0.1307 -0.0962
 1551TIP3    H226145   2.993   5.756  13.198  0.5171  1.9647 -1.6382
 1552TIP3   OH226146   5.617   2.167  11.927  0.1870  0.1026 -0.5174
 1552TIP3    H126147   5.552   2.126  11.870  0.3200  0.8572 -1.2258
 1552TIP3    H226148   5.615   2.259  11.904  0.6645  0.3300  0.2988
 1553TIP3   OH226149   3.834   5.010  13.848 -0.4872  0.1013 -0.9698
 1553TIP3    H126150   3.884   5.085  13.881 -2.1763  0.5891  0.7041
 1553TIP3    H226151   3.899   4.943  13.831  0.8741  1.2222 -0.3731
 1554TIP3   OH226152   4.754   2.608   3.877  0.1471  0.9505  0.0086
 1554TIP3    H126153   4.810   2.669   3.830 -0.3429  1.0458 -0.4637
 1554TIP3    H226154   4.798   2.593   3.961  1.8160 -0.3996 -1.0641
 1555TIP3   OH226155   1.188   5.412   4.997 -0.0452  0.6984  0.5485
 1555TIP3    H126156   1.130   5.470   4.948  1.0993  1.4856  0.0700
 1555TIP3    H226157   1.144   5.327   4.996 -0.4578  0.8945 -1.1370
 1556TIP3   OH226158   6.713   2.666  11.268  0.0474  0.2018 -0.6654
 1556TIP3    H126159   6.645   2.610  11.231 -0.6990  0.3508  0.4366
 1556TIP3    H226160   6.684   2.684  11.358  1.1959  0.8363 -0.3944
 1557TIP3   OH226161   3.365   6.482   6.342  0.8126 -0.0824 -0.1627
 1557TIP3    H126162   3.416   6.524   6.411 -0.6171 -0.3644  1.1193
 1557TIP3    H226163   3.375   6.539   6.266  1.2425  1.0064  0.6985
 1558TIP3   OH226164   2.497   6.748   1.427 -0.1427 -0.4903  0.6260
 1558TIP3    H126165   2.503   6.668   1.374 -3.4261 -1.4134  1.4186
 1558TIP3    H226166   2.407   6.778   1.415  0.6921  2.5406  1.2186
 1559TIP3   OH226167   2.732   2.672  10.725 -0.3744 -0.6672 -0.1718
 1559TIP3    H126168   2.643   2.663  10.692 -0.2507 -0.1658 -0.6723
 1559TIP3    H226169   2.754   2.764  10.709  1.0970 -1.3174 -2.2982
 1560TIP3   OH226170   5.686   3.370  15.449  0.2077  0.1002 -0.1980
 1560TIP3    H126171   5.742   3.409  15.516  1.6290  0.2515 -1.4045
 1560TIP3    H226172   5.666   3.283  15.482  2.0942 -0.3802 -0.1886
 1561TIP3   OH226173   5.016   2.766  14.956 -0.0860  0.0509 -0.5919
 1561TIP3    H126174   4.970   2.780  15.039  0.7020  1.4915 -0.3584
 1561TIP3    H226175   5.048   2.676  14.960 -1.9554 -0.6325 -0.3145
 1562TIP3   OH226176   4.988   4.031   6.008  0.5586  0.0961 -0.2261
 1562TIP3    H126177   5.002   4.123   6.028 -2.3457  0.8629 -1.2022
 1562TIP3    H226178   4.989   4.027   5.912 -0.9474 -0.5399 -0.2434
 1563TIP3   OH226179   1.583   1.293   0.660 -0.0655 -0.2789  0.2344
 1563TIP3    H126180   1.566   1.342   0.741 -0.9378 -0.3884  0.1288
 1563TIP3    H226181   1.561   1.354   0.590  0.6872 -0.1843  0.0687
 1564TIP3   OH226182   4.989   2.698   5.300 -0.2229 -0.1325 -0.6883
 1564TIP3    H126183   5.068   2.655   5.334 -1.0493 -1.8082 -0.7489
 1564TIP3    H226184   4.992   2.786   5.335 -0.4065 -1.3826  2.8303
 1565TIP3   OH226185   1.880   6.558   5.843  0.2765  0.2664 -0.5662
 1565TIP3    H126186   1.947   6.580   5.907  0.1156  1.1090 -0.6741
 1565TIP3    H226187   1.802   6.606   5.873  0.2579  0.8433 -1.4971
 1566TIP3   OH226188   2.749   4.740  14.542 -0.0125  0.4970 -0.4059
 1566TIP3    H126189   2.801   4.687  14.481 -0.2682 -0.1309 -0.0822
 1566TIP3    H226190   2.807   4.813  14.565  0.3341  0.3722 -0.8747
 1567TIP3   OH226191   5.567   2.022   4.096  0.3474 -0.0289 -0.4797
 1567TIP3    H126192   5.507   1.993   4.164  1.0229  1.0200  0.6125
 1567TIP3    H226193   5.510   2.045   4.022 -0.3035 -2.3321 -0.7548
 1568TIP3   OH226194   5.465   1.796  14.834  0.4574 -0.5614  0.1651
 1568TIP3    H126195   5.423   1.711  14.844  1.1915 -0.7255  2.3451
 1568TIP3    H226196   5.436   1.847  14.910 -2.0449  2.1462 -2.3197
 1569TIP3   OH226197   2.091   1.767  15.700 -0.5581  0.3106 -0.5627
 1569TIP3    H126198   2.018   1.756  15.760 -0.1913  2.6984  0.4552
 1569TIP3    H226199   2.163   1.796  15.755 -0.1444  2.3881 -2.0531
 1570TIP3   OH226200   4.905   4.347   4.830  0.4582 -0.1465 -0.3460
 1570TIP3    H126201   4.944   4.357   4.743 -2.6381  2.0855 -1.6712
 1570TIP3    H226202   4.932   4.426   4.876  0.8084 -0.5745  0.1894
 1571TIP3   OH226203   3.878   1.243   1.292  0.0121 -0.1068 -0.6475
 1571TIP3    H126204   3.869   1.328   1.335  1.1462  0.6894 -1.9275
 1571TIP3    H226205   3.808   1.190   1.331 -1.1303  1.5752 -0.2666
 1572TIP3   OH226206   3.918   2.252  11.391 -0.6103 -0.5366  0.1575
 1572TIP3    H126207   3.964   2.334  11.370 -1.0410 -0.7895 -1.9922
 1572TIP3    H226208   3.855   2.276  11.459 -1.3297  1.1416 -1.0385
 1573TIP3   OH226209   3.878   5.218   1.853 -0.1115  0.3100  0.3178
 1573TIP3    H126210   3.895   5.148   1.791 -0.4797  0.2698  0.2573
 1573TIP3    H226211   3.926   5.193   1.932 -0.2942 -0.0411  0.3186
 1574TIP3   OH226212   1.698   4.939   5.833 -1.1778 -0.3735 -0.2673
 1574TIP3    H126213   1.745   4.868   5.877 -0.9902 -0.1743 -0.1429
 1574TIP3    H226214   1.719   5.017   5.884 -0.7040 -0.0853 -0.8852
 1575TIP3   OH226215   2.894   5.039  13.412 -0.0521  0.0828  0.1639
 1575TIP3    H126216   2.812   4.995  13.433 -0.0155  0.0331  0.2031
 1575TIP3    H226217   2.959   4.968  13.408  0.3578  0.3061  1.9741
 1576TIP3   OH226218   5.277   4.759  13.518 -0.2701 -0.5767  0.5516
 1576TIP3    H126219   5.324   4.696  13.573  0.6363 -1.4111 -1.0860
 1576TIP3    H226220   5.191   4.768  13.560  0.4860 -0.9226  2.2445
 1577TIP3   OH226221   4.291   1.258  11.989  0.3923 -0.4736  0.7908
 1577TIP3    H126222   4.307   1.278  12.081  0.9724  0.6024  0.4691
 1577TIP3    H226223   4.360   1.304  11.942 -2.2986  2.5771 -0.5217
 1578TIP3   OH226224   5.162   5.411   4.433  0.3510 -0.3112 -0.5323
 1578TIP3    H126225   5.079   5.452   4.409  1.2248  1.4084 -0.8188
 1578TIP3    H226226   5.153   5.389   4.526 -0.7676 -1.1113 -0.8112
 1579TIP3   OH226227   5.869   2.762  14.262  0.1421 -0.3388 -0.6089
 1579TIP3    H126228   5.868   2.857  14.258  1.6920 -0.3302 -1.6910
 1579TIP3    H226229   5.886   2.742  14.355 -1.4225  0.3795 -0.1455
 1580TIP3   OH226230   0.925   1.652   0.460  0.0355 -0.6810  0.0285
 1580TIP3    H126231   0.896   1.660   0.551  0.6018 -3.1163  0.5008
 1580TIP3    H226232   0.843   1.650   0.410 -0.4726 -2.2370  0.8301
 1581TIP3   OH226233   1.280   0.388  11.786 -0.1118 -0.1924 -0.0077
 1581TIP3    H126234   1.325   0.349  11.861  0.5500 -2.2642 -1.3811
 1581TIP3    H226235   1.340   0.456  11.754  1.1499 -1.4922 -0.5436
 1582TIP3   OH226236   0.576   4.250  13.965 -0.1597 -0.5611  0.1674
 1582TIP3    H126237   0.548   4.179  14.022 -1.2877  1.6506  2.5308
 1582TIP3    H226238   0.514   4.249  13.892 -0.1982 -1.8919  0.1957
 1583TIP3   OH226239   5.663   4.722   4.943 -0.2097  0.1844  0.6983
 1583TIP3    H126240   5.599   4.727   5.014 -0.4578  2.3045  0.3813
 1583TIP3    H226241   5.681   4.813   4.920  1.4670 -0.4117 -0.5450
 1584TIP3   OH226242   0.381   4.507   4.872  0.5051 -0.0355  0.2499
 1584TIP3    H126243   0.400   4.527   4.780 -0.5876 -2.2722 -0.5541
 1584TIP3    H226244   0.467   4.499   4.913  1.1365 -1.4898 -1.2181
 1585TIP3   OH226245   0.254   1.969  15.620  0.5772 -0.0414  0.5861
 1585TIP3    H126246   0.173   1.918  15.616  0.8175 -0.3505 -0.9206
 1585TIP3    H226247   0.225   2.058  15.637  0.1062 -0.5024  2.5187
 1586TIP3   OH226248   3.953   2.626  16.724 -0.1734  0.4733 -0.2299
 1586TIP3    H126249   3.997   2.558  16.775  0.6269  0.2651 -1.1681
 1586TIP3    H226250   4.018   2.696  16.718  0.7974 -0.5340 -3.1226
 1587TIP3   OH226251   3.028   5.991  15.913 -0.4040  0.8544 -0.1068
 1587TIP3    H126252   3.007   5.908  15.955 -0.2165  1.2254  0.7488
 1587TIP3    H226253   2.945   6.037  15.907 -0.4026  0.8812  0.0581
 1588TIP3   OH226254   5.595   3.553   0.761 -0.0430  1.1768  0.2271
 1588TIP3    H126255   5.670   3.579   0.815  0.9326  0.7583 -0.8849
 1588TIP3    H226256   5.525   3.612   0.788  0.6946  1.6036  1.2773
 1589TIP3   OH226257   4.215   4.910  13.183  0.0867  0.3965  0.3096
 1589TIP3    H126258   4.189   4.887  13.272 -0.4650  0.1551  0.0933
 1589TIP3    H226259   4.304   4.876  13.174  0.4461  1.1024  1.0186
 1590TIP3   OH226260   0.473   4.569  16.931  0.3532  0.3750 -0.3633
 1590TIP3    H126261   0.468   4.619  16.850  3.1062  0.9367 -0.2766
 1590TIP3    H226262   0.430   4.625  16.996  0.0275  0.8973 -1.0162
 1591TIP3   OH226263   1.238   2.658  17.133 -0.1633  0.2561  0.0625
 1591TIP3    H126264   1.221   2.696  17.219  0.0889  0.4137  0.0442
 1591TIP3    H226265   1.152   2.632  17.101 -0.0595 -1.7129  1.2392
 1592TIP3   OH226266   1.219   6.639  12.657  0.1711 -0.1403  0.1706
 1592TIP3    H126267   1.219   6.710  12.592  1.6719 -0.3816 -0.1383
 1592TIP3    H226268   1.198   6.561  12.606 -0.7615 -0.0351  0.3791
 1593TIP3   OH226269   4.105   0.449  14.124 -0.1226  0.2114 -0.1658
 1593TIP3    H126270   4.039   0.456  14.193  0.3028 -1.1454  0.4134
 1593TIP3    H226271   4.177   0.505  14.154  1.4745 -2.7941  2.2540
 1594TIP3   OH226272   0.764   3.324   5.613  0.1668  0.0700  0.0687
 1594TIP3    H126273   0.744   3.417   5.623  1.1000  0.2958 -0.0260
 1594TIP3    H226274   0.754   3.288   5.701  1.5509  0.6413  0.4900
 1595TIP3   OH226275   1.209   5.479  14.084  0.0359  0.2088  0.2794
 1595TIP3    H126276   1.133   5.536  14.078 -0.1754 -0.0449  0.5271
 1595TIP3    H226277   1.197   5.431  14.166  0.2975 -0.0682  0.1606
 1596TIP3   OH226278   4.402   0.852   0.124 -0.5576 -0.6772  0.2938
 1596TIP3    H126279   4.407   0.944   0.150  0.1219 -0.5483 -0.2510
 1596TIP3    H226280   4.429   0.852   0.032  0.2646 -1.5242  0.5209
 1597TIP3   OH226281   4.372   3.340  12.323 -0.4855  0.2169  0.4088
 1597TIP3    H126282   4.418   3.307  12.245 -1.7469  0.3639 -0.4194
 1597TIP3    H226283   4.392   3.276  12.391 -0.1852 -0.4570 -0.2949
 1598TIP3   OH226284   5.377   3.507  14.132  0.0829  0.5002  0.1471
 1598TIP3    H126285   5.446   3.573  14.139  1.0509 -0.5728  0.8838
 1598TIP3    H226286   5.315   3.545  14.068 -0.0273  2.6699  1.4313
 1599TIP3   OH226287   4.367   1.426  13.525 -0.5109  0.1099 -0.1667
 1599TIP3    H126288   4.301   1.469  13.580  0.0153 -0.1125  0.6659
 1599TIP3    H226289   4.448   1.471  13.546  0.3280 -2.0546  1.7460
 1600TIP3   OH226290   0.837   5.589   3.754  0.3881  0.1099 -0.1713
 1600TIP3    H126291   0.881   5.637   3.824 -0.5505  0.0734  0.4575
 1600TIP3    H226292   0.819   5.503   3.791  2.0574 -0.7677 -1.2916
 1601TIP3   OH226293   0.967   5.278   5.756  0.9056  0.4248 -0.6596
 1601TIP3    H126294   0.986   5.310   5.668 -2.1312  0.9401 -1.2534
 1601TIP3    H226295   0.881   5.314   5.777  1.6528  0.6019  2.7132
 1602TIP3   OH226296   1.946   5.962  11.651 -0.8974 -0.2846  0.1644
 1602TIP3    H126297   2.020   5.935  11.596  0.0628  1.7761  0.3712
 1602TIP3    H226298   1.870   5.956  11.592  0.0824  1.7776 -1.4469
 1603TIP3   OH226299   4.223   3.203   2.602 -0.1956 -0.1100 -0.2597
 1603TIP3    H126300   4.272   3.216   2.521  1.1382  0.0217  0.5356
 1603TIP3    H226301   4.245   3.115   2.631 -1.1492 -0.3917 -0.3356
 1604TIP3   OH226302   1.481   0.460   0.019  0.6256  0.5322  0.1537
 1604TIP3    H126303   1.485   0.505  -0.065  1.4260  1.2959  0.5785
 1604TIP3    H226304   1.405   0.498   0.063 -0.6274 -0.8358 -0.7255
 1605TIP3   OH226305   4.570   3.585   4.358 -0.6691 -0.0452 -0.1827
 1605TIP3    H126306   4.520   3.581   4.277 -1.6030 -1.7021  0.4416
 1605TIP3    H226307   4.662   3.586   4.330 -0.9716  1.5927 -1.2844
 1606TIP3   OH226308   3.136   6.464  13.229  0.5055 -0.3673  0.2100
 1606TIP3    H126309   3.126   6.370  13.215 -0.5824 -0.1235 -0.9048
 1606TIP3    H226310   3.228   6.476  13.250  0.4940 -1.7603  1.1375
 1607TIP3   OH226311   2.023   6.214  13.665 -0.7133  0.4455  0.1480
 1607TIP3    H126312   1.954   6.151  13.646  0.0902 -1.5140  3.0495
 1607TIP3    H226313   2.104   6.167  13.646 -0.0941  1.8287 -0.7942
 1608TIP3   OH226314   4.265   6.123   1.635 -0.1642 -0.1075 -0.4961
 1608TIP3    H126315   4.250   6.040   1.681 -1.2440  0.3566  0.0202
 1608TIP3    H226316   4.261   6.100   1.542 -0.5732 -0.6186 -0.3552
 1609TIP3   OH226317   3.532   5.637   5.493  0.0347  0.1958  0.3878
 1609TIP3    H126318   3.480   5.659   5.415 -0.3207 -0.6124  0.3872
 1609TIP3    H226319   3.487   5.682   5.565 -0.5096 -0.2848  0.3474
 1610TIP3   OH226320   5.405   6.558  13.611 -0.8589  0.3650 -0.6462
 1610TIP3    H126321   5.337   6.577  13.547 -0.6569 -0.1303 -1.0132
 1610TIP3    H226322   5.446   6.643  13.629 -2.0980  0.8149  0.1966
 1611TIP3   OH226323   3.419   0.900   6.580  0.3344 -0.1268  0.3202
 1611TIP3    H126324   3.437   0.821   6.528 -0.6447 -0.5348  0.5815
 1611TIP3    H226325   3.503   0.945   6.584  1.1279 -1.5783  0.8543
 1612TIP3   OH226326   2.388   0.628  15.559 -0.0729 -0.3013 -0.0218
 1612TIP3    H126327   2.465   0.684  15.566 -0.6779  0.4677  0.7053
 1612TIP3    H226328   2.420   0.540  15.580  0.6243 -0.0070  0.1781
 1613TIP3   OH226329   2.653   1.354   5.613  0.1310  0.1687  1.1013
 1613TIP3    H126330   2.701   1.425   5.571 -2.3608  1.3750  0.0455
 1613TIP3    H226331   2.686   1.353   5.703  1.0325  1.9196  0.8468
 1614TIP3   OH226332   0.580   6.801  11.637 -0.0185 -0.2541  0.0587
 1614TIP3    H126333   0.622   6.820  11.720 -0.9387 -0.6683  0.6389
 1614TIP3    H226334   0.487   6.795  11.658 -0.2003 -0.9961 -0.8824
 1615TIP3   OH226335   5.194   5.244  13.246  0.0324 -0.1458 -0.2070
 1615TIP3    H126336   5.237   5.300  13.181  0.4846 -0.8984 -0.5823
 1615TIP3    H226337   5.150   5.177  13.194 -0.0458 -0.4471  0.2444
 1616TIP3   OH226338   2.724   6.252   5.210 -0.0836  0.1119 -0.0809
 1616TIP3    H126339   2.722   6.233   5.304 -1.4200 -0.6046 -0.2290
 1616TIP3    H226340   2.748   6.168   5.170 -0.7027  0.1007 -0.4356
 1617TIP3   OH226341   5.401   2.080   2.081 -0.5570  0.6481  0.4171
 1617TIP3    H126342   5.462   2.054   2.012 -1.8127 -1.0124 -0.1364
 1617TIP3    H226343   5.400   2.176   2.078 -1.3770  0.6517 -2.6661
 1618TIP3   OH226344   3.603   0.646  15.058  0.4100  0.5907 -0.5207
 1618TIP3    H126345   3.688   0.650  15.014  1.0213  0.2665  0.5902
 1618TIP3    H226346   3.620   0.596  15.138 -0.8875  0.2879 -0.4139
 1619TIP3   OH226347   0.808   1.789  11.979 -0.0985 -0.0409  0.1803
 1619TIP3    H126348   0.883   1.730  11.981  0.4498  0.4383 -2.2288
 1619TIP3    H226349   0.739   1.743  12.026  1.4776 -0.8147  1.8224
 1620TIP3   OH226350   2.072   4.745   1.087 -0.3022 -0.5819  0.4064
 1620TIP3    H126351   2.086   4.772   1.178  0.6935  0.9015 -0.1400
 1620TIP3    H226352   2.131   4.671   1.074 -0.1029 -0.5024  0.8393
 1621TIP3   OH226353   0.838   6.334  13.272  0.1513  0.2386 -0.0535
 1621TIP3    H126354   0.898   6.266  13.243  1.1145  0.8656  0.4192
 1621TIP3    H226355   0.779   6.349  13.198 -0.8896 -1.9574  0.2448
 1622TIP3   OH226356   4.440   2.762   0.611  0.1297  0.0293 -0.0889
 1622TIP3    H126357   4.398   2.825   0.553 -0.2068 -0.5843 -0.5205
 1622TIP3    H226358   4.513   2.727   0.560  0.2661  0.0070  0.1180
 1623TIP3   OH226359   6.809   4.091  13.702 -0.4600 -0.0995  0.0633
 1623TIP3    H126360   6.731   4.120  13.749 -1.0713 -0.0427 -0.9298
 1623TIP3    H226361   6.831   4.164  13.644  0.8670  0.2298  0.9367
 1624TIP3   OH226362   0.749   1.561  10.585 -0.5805  0.9161  0.1817
 1624TIP3    H126363   0.675   1.507  10.612 -0.9368  1.0345 -0.5287
 1624TIP3    H226364   0.710   1.641  10.549 -0.1587  0.6161 -1.0017
 1625TIP3   OH226365   5.320   0.077   3.093 -0.3454 -0.0856 -0.3536
 1625TIP3    H126366   5.412   0.049   3.102 -0.1856  0.8537  1.3947
 1625TIP3    H226367   5.300   0.063   3.001  2.2416  1.6220 -1.3163
 1626TIP3   OH226368   1.423   5.087   6.007 -0.5802 -0.3433  0.4564
 1626TIP3    H126369   1.401   5.177   6.030  1.2575  1.1919 -2.9521
 1626TIP3    H226370   1.493   5.063   6.068 -1.3272  0.3733  1.6284
 1627TIP3   OH226371   3.348   6.383   1.172 -0.2348 -0.1966 -0.0019
 1627TIP3    H126372   3.258   6.401   1.146  0.0408 -0.6282 -1.3312
 1627TIP3    H226373   3.400   6.446   1.121  0.4009 -1.7161 -1.3028
 1628TIP3   OH226374   3.677   0.448   2.149  0.4484  0.0106  0.2006
 1628TIP3    H126375   3.709   0.480   2.234 -1.5801 -0.0274  1.0321
 1628TIP3    H226376   3.584   0.434   2.163  0.1080 -0.1722 -2.0155
 1629TIP3   OH226377   3.344   3.603  11.176 -0.0921  0.1512 -0.1739
 1629TIP3    H126378   3.296   3.570  11.252  1.4719 -0.4606  0.6121
 1629TIP3    H226379   3.398   3.674  11.211  0.1483  0.3077 -0.8567
 1630TIP3   OH226380   5.511   0.494   2.267 -0.7448  0.2230 -0.0800
 1630TIP3    H126381   5.525   0.453   2.353 -1.3935  1.1779  0.4913
 1630TIP3    H226382   5.469   0.425   2.215  1.6071 -1.1134 -0.3631
 1631TIP3   OH226383   3.631   2.677  11.593 -0.1805  0.0758  0.2071
 1631TIP3    H126384   3.658   2.761  11.630 -0.9911 -0.1217  1.2846
 1631TIP3    H226385   3.552   2.653  11.642 -0.2190 -1.0990 -0.3905
 1632TIP3   OH226386   0.294   0.527  17.071 -0.4756  0.2205  0.2353
 1632TIP3    H126387   0.276   0.482  16.988 -0.2864 -0.5129  0.5804
 1632TIP3    H226388   0.303   0.619  17.047  0.2391 -0.0713 -0.6576
 1633TIP3   OH226389   5.918   1.825  16.713  0.0958  0.3196 -0.2751
 1633TIP3    H126390   5.956   1.803  16.798 -0.3324  0.0907 -0.1396
 1633TIP3    H226391   5.929   1.920  16.706 -0.6671  0.4705  0.4412
 1634TIP3   OH226392   2.450   3.821  14.256 -0.3243 -0.0451  0.1333
 1634TIP3    H126393   2.415   3.787  14.339 -2.5356  2.1170  0.2326
 1634TIP3    H226394   2.445   3.916  14.266  1.7440  0.3015 -1.5761
 1635TIP3   OH226395   3.673   2.683  14.537  0.1457  0.2421 -0.2098
 1635TIP3    H126396   3.631   2.600  14.516  0.8068 -0.2884  0.4970
 1635TIP3    H226397   3.764   2.660  14.556 -0.2990  0.6542  2.9613
 1636TIP3   OH226398   0.653   3.518  16.201  0.3711 -0.1195 -0.2618
 1636TIP3    H126399   0.587   3.536  16.134  0.3662  1.5534  0.1552
 1636TIP3    H226400   0.655   3.596  16.255  1.5313 -0.7998  0.7406
 1637TIP3   OH226401   1.564   2.973  16.154 -0.5214 -0.5477 -0.4535
 1637TIP3    H126402   1.547   3.048  16.097 -2.5881  0.2848  1.1199
 1637TIP3    H226403   1.631   2.923  16.108 -0.6892  1.0725 -2.6464
 1638TIP3   OH226404   3.553   3.229   3.900  0.6685 -0.2845 -0.0732
 1638TIP3    H126405   3.517   3.154   3.949  2.7591  0.5762  3.0985
 1638TIP3    H226406   3.496   3.302   3.924  1.5070  0.0748  0.8846
 1639TIP3   OH226407   1.587   3.291   2.292  0.0647  0.2344  0.1572
 1639TIP3    H126408   1.571   3.224   2.359  0.0123 -1.9475 -1.8905
 1639TIP3    H226409   1.662   3.257   2.243  1.2106  2.6302  0.1354
 1640TIP3   OH226410   0.417   3.092   3.308 -0.3749 -0.5353  0.1583
 1640TIP3    H126411   0.382   3.061   3.391  0.9898 -1.0049  0.5961
 1640TIP3    H226412   0.473   3.167   3.332 -2.4645  1.4225 -0.7183
 1641TIP3   OH226413   3.759   3.813   2.502 -0.0323  0.1911 -0.0049
 1641TIP3    H126414   3.727   3.738   2.452 -0.1253  1.5451 -2.0908
 1641TIP3    H226415   3.804   3.867   2.438  0.8667  1.4800  1.6310
 1642TIP3   OH226416   1.316   1.748   5.504 -0.1501 -0.6454 -0.2073
 1642TIP3    H126417   1.384   1.808   5.474  1.1825 -1.4191  1.1082
 1642TIP3    H226418   1.340   1.727   5.594 -2.9518  0.1546  0.8470
 1643TIP3   OH226419   1.587   3.968   5.796 -0.4453  0.1670 -0.1023
 1643TIP3    H126420   1.560   4.047   5.844 -0.9052 -0.4312  0.6481
 1643TIP3    H226421   1.554   3.895   5.849  1.4919 -0.5753  0.1706
 1644TIP3   OH226422   1.520   4.842  11.786 -0.0143  0.2220 -0.5528
 1644TIP3    H126423   1.429   4.870  11.775  0.1208  2.1097  2.1027
 1644TIP3    H226424   1.525   4.810  11.876  2.1358  1.2020 -0.2532
 1645TIP3   OH226425   6.051   6.700  13.126 -0.6428  0.4785 -0.1293
 1645TIP3    H126426   6.071   6.664  13.040  2.0923  0.6133  0.3493
 1645TIP3    H226427   5.987   6.769  13.110  1.2197  1.8019 -2.3444
 1646TIP3   OH226428   4.973   1.318   4.069  0.0659 -0.3287  0.6724
 1646TIP3    H126429   4.914   1.313   3.993 -0.7663 -1.3431  1.3633
 1646TIP3    H226430   5.013   1.405   4.061 -1.7265  0.5256  0.3194
 1647TIP3   OH226431   3.237   2.164  11.889  0.3321  0.0082 -0.0688
 1647TIP3    H126432   3.276   2.223  11.953  1.1141 -1.3211  0.7052
 1647TIP3    H226433   3.312   2.121  11.847 -0.1915  0.2805 -1.3449
 1648TIP3   OH226434   0.340   6.037   2.571 -0.4537  0.2508  0.3360
 1648TIP3    H126435   0.251   6.073   2.577  0.1774  2.3174 -1.3777
 1648TIP3    H226436   0.329   5.956   2.521 -1.2342  1.3995 -1.4644
 1649TIP3   OH226437   3.622   5.696  11.195 -0.1083 -0.1414  0.1730
 1649TIP3    H126438   3.675   5.632  11.147  0.9239  0.9502 -0.1849
 1649TIP3    H226439   3.557   5.725  11.132 -0.6056 -0.8452  0.3481
 1650TIP3   OH226440   1.909   5.868   2.299 -0.4711  0.7170 -0.1238
 1650TIP3    H126441   1.867   5.949   2.268  1.8570  2.0003 -0.1600
 1650TIP3    H226442   1.965   5.841   2.226 -1.5694 -1.2478 -0.2880
 1651TIP3   OH226443   0.983   4.787   4.719 -0.0278 -0.6307  0.4427
 1651TIP3    H126444   0.895   4.811   4.692 -1.4949 -1.8521  3.6180
 1651TIP3    H226445   1.030   4.770   4.637 -2.3426  1.1970 -1.3837
 1652TIP3   OH226446   1.109   5.063   6.070  0.3656 -0.2341  0.4646
 1652TIP3    H126447   1.177   5.130   6.065 -1.5214  1.7940 -0.1130
 1652TIP3    H226448   1.124   5.019   6.154  1.7250  0.9077  0.8532
 1653TIP3   OH226449   1.137   1.297  11.428 -0.0427 -0.7762  0.0843
 1653TIP3    H126450   1.132   1.392  11.444 -0.4261 -0.9658  1.1811
 1653TIP3    H226451   1.223   1.284  11.388  0.6007 -0.1333  1.2230
 1654TIP3   OH226452   2.066   1.779   2.901  0.4533  0.2992 -0.5249
 1654TIP3    H126453   2.096   1.711   2.841  0.5144  0.8838 -1.1641
 1654TIP3    H226454   2.067   1.736   2.987  3.7689  0.4333 -0.3633
 1655TIP3   OH226455   4.409   1.112   0.222 -0.1135  0.5254 -0.4482
 1655TIP3    H126456   4.409   1.169   0.298  1.6884  1.4677 -1.1051
 1655TIP3    H226457   4.469   1.153   0.160  0.9994 -1.8575 -1.0998
 1656TIP3   OH226458   5.123   3.242  11.282 -0.1881  0.3338  0.1297
 1656TIP3    H126459   5.169   3.319  11.250  0.8335  0.1938  1.1941
 1656TIP3    H226460   5.151   3.172  11.224 -1.4537  0.8144 -1.1098
 1657TIP3   OH226461   6.720   6.450   5.108 -0.0928  0.2221  0.1312
 1657TIP3    H126462   6.808   6.475   5.079  0.2895 -1.8182 -0.6341
 1657TIP3    H226463   6.691   6.523   5.163  1.3600  1.7296 -1.0166
 1658TIP3   OH226464   3.948   6.263   3.557  0.3739 -0.2235 -0.5294
 1658TIP3    H126465   3.958   6.179   3.511  0.0881  0.0587 -1.1143
 1658TIP3    H226466   3.910   6.239   3.642  1.2457 -0.7844 -0.2809
 1659TIP3   OH226467   2.629   6.182  13.404 -0.3468  0.5519  0.1260
 1659TIP3    H126468   2.628   6.087  13.401  0.7211  0.5464 -0.9490
 1659TIP3    H226469   2.671   6.203  13.488 -1.9852  0.1320  1.1000
 1660TIP3   OH226470   6.745   4.636  16.182  0.1768 -0.0763  0.5780
 1660TIP3    H126471   6.818   4.667  16.236  1.4517 -1.0593 -0.4903
 1660TIP3    H226472   6.787   4.587  16.111 -1.4319  0.8056 -1.0921
 1661TIP3   OH226473   1.841   0.491   3.212 -0.3278 -0.3604  1.1096
 1661TIP3    H126474   1.809   0.582   3.212  1.0903  0.1958  2.3438
 1661TIP3    H226475   1.926   0.496   3.256  0.1887 -2.1744  0.4104
 1662TIP3   OH226476   3.146   6.100   3.022  0.5508  0.1327  0.0591
 1662TIP3    H126477   3.081   6.033   3.041  0.0374 -0.2671 -2.6776
 1662TIP3    H226478   3.097   6.182   3.018  0.8174  0.3656  1.3013
 1663TIP3   OH226479   2.724   6.035   2.658 -0.2261 -0.2576  0.0774
 1663TIP3    H126480   2.741   6.130   2.655  0.6104 -0.3671  0.7843
 1663TIP3    H226481   2.657   6.025   2.726 -2.5603  0.0797 -2.0302
 1664TIP3   OH226482   4.758   4.833   3.935 -0.7504 -0.8536  0.0883
 1664TIP3    H126483   4.770   4.763   3.871 -0.7614 -1.2421  0.5153
 1664TIP3    H226484   4.760   4.790   4.020 -0.3704 -0.2871  0.3746
 1665TIP3   OH226485   4.369   2.733   5.363 -0.2617 -0.3145  0.3033
 1665TIP3    H126486   4.359   2.651   5.315  1.3707 -0.7190  0.6032
 1665TIP3    H226487   4.440   2.779   5.317 -0.4094  0.4253  0.8010
 1666TIP3   OH226488   1.334   0.327   2.340  0.3440  0.3776  0.4034
 1666TIP3    H126489   1.405   0.264   2.349 -0.0833 -0.5407 -1.8502
 1666TIP3    H226490   1.257   0.282   2.375  0.3484  0.2517  0.2552
 1667TIP3   OH226491   3.930   3.918   0.810 -0.7293  0.0848 -0.1257
 1667TIP3    H126492   3.972   4.002   0.789 -0.2938  0.2158  1.1651
 1667TIP3    H226493   3.960   3.858   0.741  0.2834  0.5813 -0.1366
 1668TIP3   OH226494   2.923   6.571  13.058  0.0734  0.6462 -0.2616
 1668TIP3    H126495   2.972   6.532  13.131  0.2988 -0.6689 -1.0737
 1668TIP3    H226496   2.866   6.635  13.099 -0.4998 -0.7165  1.2035
 1669TIP3   OH226497   2.410   6.420  16.812  0.1915 -0.5995 -0.1364
 1669TIP3    H126498   2.416   6.332  16.848 -0.7585 -1.2668 -1.5130
 1669TIP3    H226499   2.378   6.407  16.722 -0.9212  1.2023 -0.0444
 1670TIP3   OH226500   1.299   2.412  11.507  0.2894  0.3771 -0.3598
 1670TIP3    H126501   1.362   2.365  11.451 -0.6225 -0.5423 -0.6433
 1670TIP3    H226502   1.324   2.504  11.498  1.5118  0.0448 -0.5703
 1671TIP3   OH226503   2.005   5.694  13.949  0.6245  0.1756  0.2066
 1671TIP3    H126504   2.009   5.682  14.044 -3.0056  0.7081  0.5336
 1671TIP3    H226505   1.968   5.612  13.917  1.9868 -0.0624 -0.8218
 1672TIP3   OH226506   6.052   0.988   3.903 -0.3809  0.3692 -0.0431
 1672TIP3    H126507   6.094   1.029   3.979  0.4110 -0.0548 -0.2380
 1672TIP3    H226508   6.004   0.914   3.940  2.5507 -1.8081 -0.1988
 1673TIP3   OH226509   3.934   4.529   4.817 -0.6424 -0.1655  0.1675
 1673TIP3    H126510   4.016   4.492   4.850 -0.0203 -0.6371 -1.7589
 1673TIP3    H226511   3.951   4.623   4.808 -1.0628  0.0908  1.7871
 1674TIP3   OH226512   5.173   0.625   4.926  0.2665  0.4937  0.5924
 1674TIP3    H126513   5.198   0.690   4.860  0.9455 -0.1872  0.1596
 1674TIP3    H226514   5.169   0.673   5.008  0.8210  1.0722  0.2842
 1675TIP3   OH226515   5.403   4.894  15.235  0.0121  0.0021  0.0270
 1675TIP3    H126516   5.462   4.968  15.238  1.6558 -1.2163 -0.4997
 1675TIP3    H226517   5.396   4.864  15.326 -0.0883  0.3827  0.1428
 1676TIP3   OH226518   3.565   1.273  16.154  0.3977 -0.1920  0.7891
 1676TIP3    H126519   3.587   1.311  16.239 -0.2288 -0.6417  1.1617
 1676TIP3    H226520   3.636   1.211  16.136  0.7468  0.2045  0.7853
 1677TIP3   OH226521   4.251   2.226   5.672 -0.1388 -0.1983  0.7848
 1677TIP3    H126522   4.250   2.186   5.759 -0.5263 -1.4015  0.2554
 1677TIP3    H226523   4.293   2.160   5.616 -0.6104  0.2274 -0.0871
 1678TIP3   OH226524   2.907   4.188  15.453  0.0495  0.1953 -0.1413
 1678TIP3    H126525   2.887   4.282  15.450 -4.5256 -0.4396  1.9224
 1678TIP3    H226526   2.860   4.156  15.530  2.6772 -3.6514  0.1599
 1679TIP3   OH226527   4.974   2.263   0.391 -0.1148  0.6533 -0.0945
 1679TIP3    H126528   4.950   2.229   0.305  0.4454  0.3316 -0.1264
 1679TIP3    H226529   5.037   2.333   0.373 -0.3641  0.9176  0.0338
 1680TIP3   OH226530   1.239   6.377   2.963 -0.2154  0.1918 -0.0932
 1680TIP3    H126531   1.242   6.466   2.999  0.6145 -0.1733  0.7927
 1680TIP3    H226532   1.158   6.374   2.913 -0.5998  1.2403  0.4309
 1681TIP3   OH226533   2.537   0.644   5.323 -0.0105  0.5500  0.2879
 1681TIP3    H126534   2.532   0.558   5.364  0.7448  0.3937  0.0708
 1681TIP3    H226535   2.630   0.667   5.326  0.7014 -0.8536 -4.0239
 1682TIP3   OH226536   1.983   6.368  11.056 -0.5971 -0.1734  0.6278
 1682TIP3    H126537   2.016   6.451  11.024 -1.6585  0.4765  1.1821
 1682TIP3    H226538   2.012   6.364  11.148  1.5811 -1.5786 -0.0256
 1683TIP3   OH226539   3.160   6.203   2.029 -0.0709  0.1050 -0.0035
 1683TIP3    H126540   3.190   6.124   1.983  0.5930 -1.6041  3.1072
 1683TIP3    H226541   3.240   6.244   2.060 -0.5454 -0.1985  1.7167
 1684TIP3   OH226542   2.975   3.833  12.110 -0.5651 -0.1711  0.5130
 1684TIP3    H126543   3.040   3.895  12.077 -1.5737  0.0906 -1.0309
 1684TIP3    H226544   2.909   3.888  12.152 -1.2803 -0.1928 -0.5468
 1685TIP3   OH226545   5.463   5.343   5.288  0.4052 -0.5903 -0.4341
 1685TIP3    H126546   5.488   5.269   5.232 -0.5220 -0.1933 -1.4029
 1685TIP3    H226547   5.406   5.304   5.354  1.5405 -1.0692  0.2909
 1686TIP3   OH226548   0.653   4.768   6.236  0.1422 -0.0970 -0.1145
 1686TIP3    H126549   0.609   4.838   6.284  0.4509  0.2655 -0.3578
 1686TIP3    H226550   0.591   4.695   6.238 -0.0970  0.1129  0.3144
 1687TIP3   OH226551   0.835   5.426  14.123  0.6433 -0.2898 -0.4208
 1687TIP3    H126552   0.768   5.484  14.086  2.0828  1.2203 -0.7875
 1687TIP3    H226553   0.876   5.478  14.192  0.2440 -1.8672  1.0864
 1688TIP3   OH226554   2.952   1.366   6.114 -0.5737 -0.0950 -0.4005
 1688TIP3    H126555   2.993   1.287   6.150 -0.2973 -0.0473 -0.6000
 1688TIP3    H226556   2.918   1.338   6.029 -1.5395 -0.2963  0.0475
 1689TIP3   OH226557   1.135   2.117  14.845 -0.0833 -0.6634  0.0533
 1689TIP3    H126558   1.135   2.022  14.830  2.7266 -0.5341 -1.4432
 1689TIP3    H226559   1.090   2.152  14.768 -0.0782 -0.7496  0.0096
 1690TIP3   OH226560   4.857   2.736  16.372  0.2349 -0.7203  0.4574
 1690TIP3    H126561   4.814   2.810  16.330  0.7193  0.0691  1.3119
 1690TIP3    H226562   4.918   2.776  16.434  1.1887 -1.8276  0.2655
 1691TIP3   OH226563   1.543   3.003  13.857  0.0564 -0.5018 -0.2360
 1691TIP3    H126564   1.519   3.077  13.912  0.7619 -0.5205  0.1016
 1691TIP3    H226565   1.463   2.983  13.808  0.3700  1.7654 -1.8366
 1692TIP3   OH226566   1.383   2.373   2.984 -0.2087  0.1244 -0.1511
 1692TIP3    H126567   1.347   2.415   2.906  0.1055  0.2826 -0.2140
 1692TIP3    H226568   1.456   2.429   3.010  0.0331 -0.2243 -0.0644
 1693TIP3   OH226569   6.305   6.732  15.169 -0.2901  0.4752  0.3402
 1693TIP3    H126570   6.292   6.671  15.097 -2.2926  0.8071  0.3661
 1693TIP3    H226571   6.268   6.688  15.245 -0.7632  1.2763  0.5839
 1694TIP3   OH226572   5.507   5.098  14.511  0.1240  0.2489  0.3391
 1694TIP3    H126573   5.522   5.050  14.430  0.1456 -0.8901  0.9902
 1694TIP3    H226574   5.557   5.050  14.577 -2.5617 -0.9138  1.6873
 1695TIP3   OH226575   2.625   0.542   2.325 -0.2677 -0.5386 -0.8083
 1695TIP3    H126576   2.627   0.621   2.380  2.0811 -1.0243 -0.0670
 1695TIP3    H226577   2.553   0.490   2.359 -0.7812  0.5432 -0.1983
 1696TIP3   OH226578   0.405   0.875  12.110  0.6829  0.0597  0.4924
 1696TIP3    H126579   0.351   0.929  12.052  0.1471  0.9306  1.7449
 1696TIP3    H226580   0.380   0.903  12.198  1.2594 -1.4259  1.1630
 1697TIP3   OH226581   3.216   2.898  15.246 -0.1880  0.2561  0.2442
 1697TIP3    H126582   3.265   2.980  15.249 -0.5061  0.4560  0.1309
 1697TIP3    H226583   3.240   2.852  15.326  0.9046 -0.0821 -0.2571
 1698TIP3   OH226584   4.818   3.126  15.101 -0.1326  0.4080  0.1265
 1698TIP3    H126585   4.769   3.086  15.173  1.8866 -0.3921  1.1308
 1698TIP3    H226586   4.804   3.067  15.027 -0.9695  0.3964  0.2864
 1699TIP3   OH226587   0.559   4.311  11.897  1.0098  0.4882  0.1907
 1699TIP3    H126588   0.474   4.303  11.855  1.2966 -1.4824 -0.1198
 1699TIP3    H226589   0.540   4.305  11.991  0.8043 -0.1269  0.1156
 1700TIP3   OH226590   3.240   2.377  12.439  0.9162 -1.1012 -0.1951
 1700TIP3    H126591   3.162   2.428  12.458  0.9879 -1.2882  0.6222
 1700TIP3    H226592   3.303   2.440  12.404  1.1843 -0.5163  1.2895
 1701TIP3   OH226593   2.588   5.826   5.481 -0.0308  0.5116 -0.6413
 1701TIP3    H126594   2.629   5.740   5.476 -2.0042 -0.5489  0.5021
 1701TIP3    H226595   2.599   5.863   5.393 -0.6941 -1.6683 -1.7039
 1702TIP3   OH226596   3.125   1.658   4.155  0.3794 -0.2463  0.0086
 1702TIP3    H126597   3.106   1.726   4.220 -1.2993  0.5332 -1.2369
 1702TIP3    H226598   3.049   1.599   4.160 -0.7571  0.8852 -2.5333
 1703TIP3   OH226599   6.491   6.116  16.967 -0.0721  0.2838  0.1833
 1703TIP3    H126600   6.441   6.088  17.043 -0.0792 -0.8278 -0.2117
 1703TIP3    H226601   6.558   6.048  16.956  0.4812  0.8885 -0.2755
 1704TIP3   OH226602   2.680   0.426   0.261  0.2908 -0.1689  0.5376
 1704TIP3    H126603   2.716   0.484   0.329  0.4639 -0.8033  1.0038
 1704TIP3    H226604   2.680   0.479   0.182 -0.9712  0.9690  1.2535
 1705TIP3   OH226605   0.150   1.118  17.108  0.4771  0.4679  0.1373
 1705TIP3    H126606   0.188   1.206  17.112 -0.6587  0.9319  0.9652
 1705TIP3    H226607   0.137   1.093  17.199 -2.6528  0.9837 -0.0613
 1706TIP3   OH226608   2.883   1.485   1.586  0.5715 -0.1471 -0.2488
 1706TIP3    H126609   2.848   1.440   1.662 -2.0732  2.5886  0.3418
 1706TIP3    H226610   2.812   1.482   1.521  1.1993  1.0478 -1.0436
 1707TIP3   OH226611   4.347   6.614   6.451 -0.0852 -0.2096 -0.3666
 1707TIP3    H126612   4.272   6.659   6.410  0.0141  0.8438  0.5690
 1707TIP3    H226613   4.408   6.684   6.473  0.6101 -0.9357  0.0630
 1708TIP3   OH226614   1.459   3.777   6.611  0.5934  0.1105 -0.2375
 1708TIP3    H126615   1.467   3.682   6.620  1.7166  0.0520 -1.4272
 1708TIP3    H226616   1.549   3.809   6.608  0.2358  1.2926  0.6843
 1709TIP3   OH226617   2.024   3.359   0.023  0.0134  0.0630  0.0210
 1709TIP3    H126618   2.020   3.450   0.051  1.0972 -0.3311  1.5443
 1709TIP3    H226619   2.117   3.339   0.017 -0.1851 -1.2788  0.8974
 1710TIP3   OH226620   6.661   6.065  15.697 -0.0606 -0.0849 -0.0097
 1710TIP3    H126621   6.628   6.028  15.779  2.4102  0.9832  1.5988
 1710TIP3    H226622   6.659   6.160  15.712 -0.5629  0.1822 -1.6374
 1711TIP3   OH226623   0.082   1.051   5.857 -0.8782  0.1374  0.0813
 1711TIP3    H126624   0.011   1.115   5.867 -1.0525 -0.0834  0.2708
 1711TIP3    H226625   0.075   1.021   5.767 -1.3928 -0.3118  0.2666
 1712TIP3   OH226626   0.861   1.359  14.154  0.3119 -0.1299 -0.1714
 1712TIP3    H126627   0.776   1.321  14.130  0.4719  0.1035 -1.1577
 1712TIP3    H226628   0.850   1.387  14.244 -0.7062  0.0180 -0.3275
 1713TIP3   OH226629   3.855   5.423  14.117  0.4074  0.8524  0.1993
 1713TIP3    H126630   3.897   5.370  14.049  2.4804  0.4377  1.6897
 1713TIP3    H226631   3.847   5.510  14.078  1.9596  0.7369 -0.4686
 1714TIP3   OH226632   2.774   6.555   2.024 -0.5893  0.6965  0.4305
 1714TIP3    H126633   2.722   6.505   1.961  0.9496  0.5609 -0.7832
 1714TIP3    H226634   2.864   6.547   1.993  0.0030  2.1159  1.6565
 1715TIP3   OH226635   6.161   2.491  15.737  0.4752  0.0072  0.6682
 1715TIP3    H126636   6.177   2.406  15.778  0.0753  0.5589  2.0111
 1715TIP3    H226637   6.073   2.484  15.700  0.0417  0.1399  1.6358
 1716TIP3   OH226638   3.024   1.840   4.312 -0.1282 -0.1880 -0.3254
 1716TIP3    H126639   2.937   1.802   4.302 -0.0881 -0.0261 -1.5091
 1716TIP3    H226640   3.009   1.933   4.327 -0.1758 -0.3396  0.6317
 1717TIP3   OH226641   0.627   3.169  13.156 -0.8481  0.0562  0.5306
 1717TIP3    H126642   0.663   3.125  13.233  0.1700  1.8720  1.1620
 1717TIP3    H226643   0.690   3.150  13.086 -0.1746  0.7973  0.9088
 1718TIP3   OH226644   5.534   4.784   1.587  0.2437 -0.3185 -0.2667
 1718TIP3    H126645   5.612   4.754   1.633 -0.2569 -0.6820  0.3741
 1718TIP3    H226646   5.536   4.879   1.594 -0.6236 -0.3853  1.9453
 1719TIP3   OH226647   2.445   5.988  14.779  0.4351  0.4130  0.1433
 1719TIP3    H126648   2.528   6.034  14.767  0.2082  0.4347 -1.5179
 1719TIP3    H226649   2.469   5.902  14.814  1.0526  0.8105  0.7128
 1720TIP3   OH226650   1.947   4.085   3.064  0.2500  0.2370 -0.4621
 1720TIP3    H126651   1.952   4.167   3.112  4.1532 -0.5981  0.9287
 1720TIP3    H226652   1.975   4.106   2.975  3.4980  0.2538  0.4308
 1721TIP3   OH226653   0.194   1.282  13.597 -0.1627 -0.1525  0.0537
 1721TIP3    H126654   0.129   1.346  13.566  0.1569  0.4503  0.6055
 1721TIP3    H226655   0.206   1.223  13.523 -0.4921  0.4063 -0.4587
 1722TIP3   OH226656   0.578   6.308  13.074  0.2065 -0.5418  0.0172
 1722TIP3    H126657   0.626   6.373  13.022  0.4350 -0.0716  0.8042
 1722TIP3    H226658   0.592   6.225  13.028  0.6600 -0.1818 -0.5002
 1723TIP3   OH226659   6.590   5.266   4.280  0.0502 -0.3501  0.2573
 1723TIP3    H126660   6.573   5.321   4.357  0.2598  0.3548 -0.1939
 1723TIP3    H226661   6.680   5.289   4.254 -0.7607  1.0745 -1.5153
 1724TIP3   OH226662   1.163   3.086   1.844 -0.8906  0.2805 -0.0483
 1724TIP3    H126663   1.169   3.075   1.939 -0.8941 -0.2495 -0.1051
 1724TIP3    H226664   1.071   3.067   1.824 -0.8218  0.0957 -0.1929
 1725TIP3   OH226665   6.696   1.090   3.084 -0.0529  0.1216  0.4826
 1725TIP3    H126666   6.736   1.003   3.083  2.1594  1.0583 -0.2056
 1725TIP3    H226667   6.711   1.123   3.173 -1.5803 -0.4481  0.9824
 1726TIP3   OH226668   5.140   1.618  14.082  0.5880  0.0395 -0.2500
 1726TIP3    H126669   5.138   1.533  14.126  0.2473 -1.2409 -2.6030
 1726TIP3    H226670   5.212   1.612  14.020 -0.0739  1.1004 -1.1633
 1727TIP3   OH226671   6.714   2.109   0.615 -0.1803 -0.0268  0.0972
 1727TIP3    H126672   6.809   2.097   0.616 -0.1793 -0.8822 -2.7193
 1727TIP3    H226673   6.692   2.124   0.523 -2.8743 -0.5607  0.5596
 1728TIP3   OH226674   3.656   4.700  12.368 -0.2352 -0.0611  0.0692
 1728TIP3    H126675   3.643   4.759  12.294  2.5890  0.0202 -0.4570
 1728TIP3    H226676   3.670   4.614  12.328  0.7112 -0.1264  0.5063
 1729TIP3   OH226677   5.497   5.874  10.560  0.4785  0.1234  0.4947
 1729TIP3    H126678   5.424   5.828  10.518  1.2828 -0.2425 -0.5322
 1729TIP3    H226679   5.548   5.804  10.601  1.5215  0.1011 -0.7853
 1730TIP3   OH226680   4.284   0.057   3.251  0.7939 -0.4861 -0.0447
 1730TIP3    H126681   4.292   0.135   3.306  0.6622  1.1611 -2.2635
 1730TIP3    H226682   4.334  -0.010   3.298  2.5346  1.4242  0.9918
 1731TIP3   OH226683   5.925   0.819  11.527 -0.1912  0.0010 -0.0497
 1731TIP3    H126684   5.985   0.746  11.546  0.0655  0.6282  1.7309
 1731TIP3    H226685   5.864   0.820  11.601  0.4336  2.1769  0.5193
 1732TIP3   OH226686   5.012   4.538  13.435  0.0001 -0.2994 -0.5319
 1732TIP3    H126687   5.018   4.594  13.358 -3.5965  0.8692 -0.1308
 1732TIP3    H226688   5.036   4.594  13.508  0.6642 -0.6126 -0.4959
 1733TIP3   OH226689   0.618   5.569  14.512  0.7424  0.1217 -0.1580
 1733TIP3    H126690   0.591   5.637  14.449  0.4597 -0.6726 -0.9127
 1733TIP3    H226691   0.670   5.616  14.577 -1.0094  1.4016  0.3875
 1734TIP3   OH226692   5.984   2.184   0.856 -0.7690 -0.2825 -0.4063
 1734TIP3    H126693   5.979   2.110   0.795 -1.2868  0.3915 -1.1901
 1734TIP3    H226694   6.076   2.211   0.852 -0.7342 -0.4326 -0.6531
 1735TIP3   OH226695   5.179   6.574  16.529 -0.0620 -0.3110  0.1995
 1735TIP3    H126696   5.095   6.535  16.508  0.8228 -1.8307 -0.7594
 1735TIP3    H226697   5.194   6.638  16.460 -0.0685 -0.6665 -0.1384
 1736TIP3   OH226698   1.264   3.761   5.548 -0.0224 -0.5258 -0.3817
 1736TIP3    H126699   1.310   3.726   5.624  0.0972 -0.2059 -0.3065
 1736TIP3    H226700   1.218   3.838   5.580 -0.6197 -0.8420 -0.4582
 1737TIP3   OH226701   1.687   1.718   4.925  0.4935 -0.4501 -0.5387
 1737TIP3    H126702   1.644   1.683   5.003  3.7329 -0.0452  1.5789
 1737TIP3    H226703   1.657   1.809   4.920 -1.7242 -1.1558 -1.3924
 1738TIP3   OH226704   3.565   1.880   1.747  0.2085 -0.2121  1.0180
 1738TIP3    H126705   3.526   1.959   1.784 -1.2201 -1.5079  2.4532
 1738TIP3    H226706   3.653   1.906   1.721 -0.3443  1.9235  1.0683
 1739TIP3   OH226707   4.773   2.844  14.482 -0.3541  0.0214  0.0962
 1739TIP3    H126708   4.791   2.756  14.516  0.4646  0.2319  0.2263
 1739TIP3    H226709   4.714   2.883  14.546  0.0210 -0.1016  0.5154
 1740TIP3   OH226710   6.332   2.537   5.828  0.5844 -0.6281 -0.2825
 1740TIP3    H126711   6.390   2.490   5.887  1.4314  1.3190  0.5201
 1740TIP3    H226712   6.259   2.566   5.883  0.6770  0.0163 -0.4938
 1741TIP3   OH226713   5.112   3.558   2.612  0.0947 -0.0863  0.1160
 1741TIP3    H126714   5.031   3.540   2.660 -0.1150 -0.1265 -0.2397
 1741TIP3    H226715   5.082   3.600   2.531  0.3962 -0.5281 -0.2311
 1742TIP3   OH226716   0.110   4.986  14.785  0.3789  0.6469 -0.1881
 1742TIP3    H126717   0.145   5.022  14.866 -0.6967 -1.0635  1.1014
 1742TIP3    H226718   0.187   4.975  14.728  1.8199 -1.6065  2.0007
 1743TIP3   OH226719   0.456   2.839  13.479  0.0398  0.1580 -0.4347
 1743TIP3    H126720   0.419   2.925  13.459  0.6242  0.1563 -1.6056
 1743TIP3    H226721   0.518   2.823  13.408 -0.1495 -1.2832 -0.2933
 1744TIP3   OH226722   4.116   6.802  12.481 -0.4473  0.8874 -0.5820
 1744TIP3    H126723   4.045   6.759  12.529  1.3583  0.1840  1.6200
 1744TIP3    H226724   4.174   6.731  12.455  0.0572  1.5603 -1.3523
 1745TIP3   OH226725   4.386   4.807  11.685 -0.6440 -0.3974 -0.4403
 1745TIP3    H126726   4.414   4.830  11.774  0.3005 -1.3854 -0.4538
 1745TIP3    H226727   4.466   4.813  11.633 -1.2209  0.3014 -1.2633
 1746TIP3   OH226728   4.281   4.891  11.083  0.0392 -0.6940  0.4078
 1746TIP3    H126729   4.288   4.854  10.995  0.5190 -1.6114  0.8187
 1746TIP3    H226730   4.364   4.938  11.096  0.2008 -1.0154  0.5637
 1747TIP3   OH226731   5.689   5.691  12.457 -0.0311  0.5216  0.3165
 1747TIP3    H126732   5.672   5.755  12.527  0.4847  2.1131 -0.9358
 1747TIP3    H226733   5.607   5.687  12.408 -0.0256  0.3023  0.3242
 1748TIP3   OH226734   0.836   6.404   5.390 -0.3138  0.0318  0.2384
 1748TIP3    H126735   0.822   6.340   5.460 -1.6595  0.6615  0.5854
 1748TIP3    H226736   0.854   6.486   5.437  0.0880  0.1852 -0.1822
 1749TIP3   OH226737   0.261   4.529  11.966  0.0097 -0.1006 -1.0635
 1749TIP3    H126738   0.166   4.513  11.961 -0.4039  1.9777 -0.8269
 1749TIP3    H226739   0.297   4.477  11.894 -1.5140  0.3791 -2.2357
 1750TIP3   OH226740   6.747   3.278  12.554  0.1763  0.5294  0.1265
 1750TIP3    H126741   6.815   3.325  12.603 -1.2703  1.2446  1.5437
 1750TIP3    H226742   6.728   3.335  12.479  1.8930 -0.2264 -0.9464
 1751TIP3   OH226743   2.031   6.182   0.205 -0.5064 -0.6551 -0.1716
 1751TIP3    H126744   2.055   6.178   0.298 -1.8823 -0.5436  0.2078
 1751TIP3    H226745   2.066   6.265   0.174  0.4980 -0.9730  0.0833
 1752TIP3   OH226746   3.972   3.853   0.150  0.3495  0.1333 -0.0741
 1752TIP3    H126747   4.056   3.839   0.194  1.6022  2.8419 -1.3780
 1752TIP3    H226748   3.933   3.927   0.197 -1.4972 -1.2172  0.6537
 1753TIP3   OH226749   5.954   5.938   2.376  0.0163  0.2378  0.0198
 1753TIP3    H126750   5.954   6.008   2.440  1.1828  1.2063 -0.9933
 1753TIP3    H226751   6.004   5.867   2.417 -0.5822  0.2359  0.7702
 1754TIP3   OH226752   0.132   2.773  14.471 -0.2701 -0.1081 -0.2875
 1754TIP3    H126753   0.145   2.744  14.381 -0.2940 -0.9828 -0.0117
 1754TIP3    H226754   0.209   2.826  14.491  0.0592 -0.4652 -0.6029
 1755TIP3   OH226755   5.844   3.525   5.318  0.4456  0.1377  0.1214
 1755TIP3    H126756   5.928   3.503   5.356  0.2934 -1.3160 -0.3463
 1755TIP3    H226757   5.781   3.512   5.389  0.5038  0.3513  0.2138
 1756TIP3   OH226758   4.118   4.794  11.594 -0.6005  0.7880 -0.0821
 1756TIP3    H126759   4.206   4.801  11.630 -0.9348 -0.8046  1.1658
 1756TIP3    H226760   4.120   4.848  11.515  1.9815 -0.5195 -1.0384
 1757TIP3   OH226761   0.903   2.001  12.939 -0.4664 -0.9852 -0.0001
 1757TIP3    H126762   0.923   2.066  12.872  0.3930 -2.6171 -1.3918
 1757TIP3    H226763   0.984   1.992  12.989 -0.7930 -0.5260  0.6312
 1758TIP3   OH226764   4.409   5.531   1.554 -0.1385 -0.4674 -0.2994
 1758TIP3    H126765   4.449   5.446   1.535  0.4287 -0.3486  0.3439
 1758TIP3    H226766   4.406   5.536   1.649  1.1897  0.8591 -0.2928
 1759TIP3   OH226767   6.059   5.763   1.350 -0.1403 -0.3056  0.1998
 1759TIP3    H126768   6.086   5.840   1.300  1.9094 -1.3977 -0.4677
 1759TIP3    H226769   6.027   5.701   1.285 -1.2431 -0.2790  0.6813
 1760TIP3   OH226770   6.715   2.920  14.882 -0.0038  0.0208  0.4410
 1760TIP3    H126771   6.736   2.827  14.883  1.5299  0.3220  2.1507
 1760TIP3    H226772   6.718   2.944  14.789 -0.1953 -1.5674 -0.0036
 1761TIP3   OH226773   2.191   1.976  14.386 -0.1955 -0.0131  0.2669
 1761TIP3    H126774   2.161   1.917  14.317 -0.8739 -0.8018  1.2069
 1761TIP3    H226775   2.110   2.005  14.429  0.1884  0.8764  0.4196
 1762TIP3   OH226776   3.015   1.621  10.500  0.4128 -0.0295 -0.2392
 1762TIP3    H126777   2.932   1.642  10.457  0.5038  0.9284  0.0388
 1762TIP3    H226778   3.001   1.643  10.592  0.5962 -0.9841  0.0318
 1763TIP3   OH226779   1.035   3.963  13.708 -0.2543  0.5469 -0.0037
 1763TIP3    H126780   1.044   4.058  13.711  0.6544  0.4526  2.0764
 1763TIP3    H226781   0.967   3.944  13.773 -1.1970 -0.1781 -1.1659
 1764TIP3   OH226782   3.711   4.394  16.125 -0.2966 -0.0363 -0.8124
 1764TIP3    H126783   3.720   4.478  16.170 -0.1198 -0.0273 -0.8611
 1764TIP3    H226784   3.788   4.344  16.153 -0.3604 -0.1529 -0.8443
 1765TIP3   OH226785   6.580   3.701  14.571  0.4968  0.3741  0.0562
 1765TIP3    H126786   6.562   3.790  14.540 -0.2304 -0.4429 -1.9609
 1765TIP3    H226787   6.570   3.707  14.666 -1.4993  2.0272 -0.1884
 1766TIP3   OH226788   4.240   5.476  15.289 -0.5845  0.7380 -0.0862
 1766TIP3    H126789   4.196   5.432  15.362 -0.3299 -0.1953 -0.4821
 1766TIP3    H226790   4.172   5.532  15.251 -0.2773  2.5881  1.8952
 1767TIP3   OH226791   5.161   1.301  12.284  0.2202  0.3910  0.6801
 1767TIP3    H126792   5.110   1.382  12.286 -0.8854 -0.2639  0.1305
 1767TIP3    H226793   5.153   1.266  12.372 -1.1075 -0.1669  0.3743
 1768TIP3   OH226794   1.717   3.558  10.833 -0.0513  0.1530  0.0535
 1768TIP3    H126795   1.692   3.572  10.742  1.7303  2.8800 -0.1401
 1768TIP3    H226796   1.783   3.489  10.830  1.1608  1.2941 -1.0150
 1769TIP3   OH226797   0.406   4.098  14.442  0.4707 -0.1007  0.0715
 1769TIP3    H126798   0.316   4.131  14.441  0.3912 -0.3231 -0.4264
 1769TIP3    H226799   0.418   4.062  14.530 -0.7357 -2.2427 -0.5770
 1770TIP3   OH226800   5.922   5.084   5.007 -0.1923 -0.1977  0.1986
 1770TIP3    H126801   5.985   5.114   4.942 -1.1640  0.8845 -0.2688
 1770TIP3    H226802   5.927   5.150   5.077 -1.2646  0.2701 -0.1495
 1771TIP3   OH226803   3.114   4.792  16.757 -0.3241 -0.0521  0.2462
 1771TIP3    H126804   3.112   4.871  16.811 -0.2083  0.9077 -1.1024
 1771TIP3    H226805   3.071   4.817  16.676  1.2835 -0.8189 -0.9056
 1772TIP3   OH226806   3.318   4.622   4.112  0.1615 -0.2360 -0.8573
 1772TIP3    H126807   3.352   4.534   4.128  0.1325 -0.5832 -2.5534
 1772TIP3    H226808   3.394   4.679   4.124 -0.0949 -0.2979  1.5246
 1773TIP3   OH226809   4.435   4.374  11.240  0.0334 -0.1429 -0.7644
 1773TIP3    H126810   4.411   4.300  11.296 -1.5372 -1.3813 -2.9512
 1773TIP3    H226811   4.412   4.452  11.292 -0.9140 -1.2098  0.4754
 1774TIP3   OH226812   3.700   0.942   1.762 -0.7458  0.0489 -0.4007
 1774TIP3    H126813   3.775   0.992   1.731  0.3704 -2.0426 -1.2769
 1774TIP3    H226814   3.730   0.902   1.844 -0.1844 -2.2150 -1.6307
 1775TIP3   OH226815   5.484   4.711   4.314 -0.8753 -0.2853  0.0141
 1775TIP3    H126816   5.447   4.791   4.277 -0.8311 -0.4520 -0.3939
 1775TIP3    H226817   5.456   4.712   4.406 -0.7828  0.2504  0.0402
 1776TIP3   OH226818   4.035   5.672   0.319 -0.4370 -0.4435 -0.7189
 1776TIP3    H126819   4.053   5.582   0.292  1.4830 -0.3733  0.1810
 1776TIP3    H226820   4.036   5.670   0.414  0.6412  0.6765 -0.6786
 1777TIP3   OH226821   5.210   4.455  15.312 -0.0842 -0.1644  0.0095
 1777TIP3    H126822   5.243   4.368  15.334 -1.1302 -0.9382 -1.3307
 1777TIP3    H226823   5.288   4.504  15.287  0.1930 -1.8795 -2.8565
 1778TIP3   OH226824   2.141   0.182  14.099 -0.0094  1.2933 -0.0340
 1778TIP3    H126825   2.148   0.209  14.190 -1.0313  1.9068 -0.1196
 1778TIP3    H226826   2.107   0.093  14.102 -0.0546  1.3184  0.1868
 1779TIP3   OH226827   6.262   1.895   4.209 -0.3301  0.0282  0.1283
 1779TIP3    H126828   6.286   1.976   4.164 -0.8145  0.3895  0.5084
 1779TIP3    H226829   6.256   1.830   4.139 -3.1819  1.0276 -0.7407
 1780TIP3   OH226830   3.095   6.261  13.923  0.4023  0.3684 -0.2971
 1780TIP3    H126831   3.122   6.263  13.831  1.4468 -0.9129 -0.0317
 1780TIP3    H226832   3.172   6.231  13.970 -0.0928  1.1085  1.0307
 1781TIP3   OH226833   4.055   1.511   5.374 -0.3085  0.2572 -0.3421
 1781TIP3    H126834   3.999   1.470   5.440 -0.3259 -1.4947 -1.3772
 1781TIP3    H226835   4.118   1.562   5.424 -1.0514 -0.0580  0.9630
 1782TIP3   OH226836   5.823   5.886   4.453 -0.1781 -0.1817 -0.4787
 1782TIP3    H126837   5.912   5.903   4.486 -1.0255 -0.5229  2.1983
 1782TIP3    H226838   5.766   5.933   4.513 -1.9162 -1.7659 -0.8215
 1783TIP3   OH226839   2.142   3.360   5.185  0.4407 -0.5555 -0.2861
 1783TIP3    H126840   2.113   3.270   5.201 -0.7220 -0.7475 -2.9751
 1783TIP3    H226841   2.062   3.407   5.161  1.3657  0.6481 -1.1215
 1784TIP3   OH226842   5.870   3.832  12.795  0.4234  0.0790 -0.0077
 1784TIP3    H126843   5.929   3.821  12.870  1.6861 -2.1977 -1.2200
 1784TIP3    H226844   5.851   3.742  12.768 -1.8773  0.8140 -1.0290
 1785TIP3   OH226845   0.200   4.035  12.308  0.4131 -0.5376  0.2957
 1785TIP3    H126846   0.171   4.109  12.362 -0.2733  1.3844 -2.4702
 1785TIP3    H226847   0.135   3.967  12.323 -2.0877  1.3846 -0.9720
 1786TIP3   OH226848   6.385   6.161  10.469 -0.0875 -0.4852  0.1051
 1786TIP3    H126849   6.433   6.179  10.549  1.6025 -1.5435 -0.6188
 1786TIP3    H226850   6.449   6.118  10.412 -1.3133 -0.0213 -1.7045
 1787TIP3   OH226851   4.788   3.394  16.004  0.0054  0.0383  0.2756
 1787TIP3    H126852   4.803   3.485  16.029 -0.9702  0.5531 -0.9084
 1787TIP3    H226853   4.876   3.358  15.993  0.4060  0.9522  0.3566
 1788TIP3   OH226854   6.525   2.715   3.670  0.5059  0.0365  0.8168
 1788TIP3    H126855   6.490   2.804   3.668  1.3871  0.4140  1.4466
 1788TIP3    H226856   6.450   2.661   3.692 -0.5832  0.3003 -1.8847
 1789TIP3   OH226857   2.427   2.623  13.572  0.0979  0.1660  0.4006
 1789TIP3    H126858   2.358   2.557  13.570 -0.3464  0.6191  0.4116
 1789TIP3    H226859   2.464   2.617  13.660 -0.4121  0.4054  0.6337
 1790TIP3   OH226860   0.575   2.179  16.610 -0.0099 -0.0569  0.1987
 1790TIP3    H126861   0.485   2.155  16.589  0.1375 -0.1123 -0.3920
 1790TIP3    H226862   0.628   2.131  16.547  0.7128 -2.7841  2.6722
 1791TIP3   OH226863   5.975   1.944   4.785 -0.4151  0.0090 -0.3844
 1791TIP3    H126864   5.916   1.986   4.848 -0.8443  2.0620 -2.0351
 1791TIP3    H226865   6.056   1.995   4.791 -0.6716  0.6318 -1.8737
 1792TIP3   OH226866   5.658   3.206  11.836  0.2624  0.2100 -0.1480
 1792TIP3    H126867   5.595   3.191  11.766 -0.5632  0.8465  0.4364
 1792TIP3    H226868   5.660   3.124  11.885 -1.0187  0.5626  0.5290
 1793TIP3   OH226869   1.787   5.421  12.033  0.1696  1.3283 -0.6890
 1793TIP3    H126870   1.715   5.359  12.028  1.7958 -0.7638  0.2256
 1793TIP3    H226871   1.812   5.436  11.942 -0.6137  1.1128 -0.9468
 1794TIP3   OH226872   4.969   0.948   5.030 -0.0634  0.8761 -0.1042
 1794TIP3    H126873   4.971   1.034   5.070 -1.4386  0.3889  1.0794
 1794TIP3    H226874   4.877   0.935   5.005 -0.0296 -0.5406  0.4260
 1795TIP3   OH226875   3.274   0.985  16.896 -0.0517 -0.8387  0.7221
 1795TIP3    H126876   3.267   1.063  16.840 -1.2232 -0.1786  1.7367
 1795TIP3    H226877   3.322   1.016  16.973 -0.6601 -1.0642  1.2001
 1796TIP3   OH226878   4.196   4.002  16.281  0.3562  0.2049  0.3681
 1796TIP3    H126879   4.125   3.995  16.345 -0.7142 -1.1697 -0.8852
 1796TIP3    H226880   4.173   4.078  16.228  0.2073  0.2017  0.4252
 1797TIP3   OH226881   5.802   3.825  15.702 -0.0708  1.3908  0.0473
 1797TIP3    H126882   5.806   3.920  15.713 -0.6603  1.2633  1.6381
 1797TIP3    H226883   5.759   3.793  15.781 -2.1365  0.0003 -1.5261
 1798TIP3   OH226884   3.992   1.615   1.010  0.5280  0.4664  0.1041
 1798TIP3    H126885   3.943   1.594   1.090 -2.3063  2.3243 -0.9955
 1798TIP3    H226886   4.025   1.703   1.024 -0.5896  1.0866 -0.9818
 1799TIP3   OH226887   1.569   0.867   0.106  0.5149  0.8073  0.1012
 1799TIP3    H126888   1.557   0.961   0.094  0.5043  0.7930 -0.0029
 1799TIP3    H226889   1.514   0.845   0.181  0.9500  0.9837  0.4784
 1800TIP3   OH226890   3.182   6.289  13.668 -0.5385  0.0393  0.5905
 1800TIP3    H126891   3.172   6.194  13.671 -2.0593  0.1801  0.5443
 1800TIP3    H226892   3.276   6.303  13.656 -0.4823 -1.4804 -1.0338
 1801TIP3   OH226893   2.454   3.409   0.534  0.1369  0.6314  0.2469
 1801TIP3    H126894   2.403   3.334   0.503 -0.7352  1.9484 -1.6847
 1801TIP3    H226895   2.389   3.469   0.571  0.6165  1.1761  0.2143
 1802TIP3   OH226896   1.975   3.600   1.800  0.0263 -0.0289  0.4511
 1802TIP3    H126897   1.925   3.678   1.826 -2.5412 -0.6050 -2.3141
 1802TIP3    H226898   2.067   3.629   1.804 -0.5960  1.9777  2.9041
 1803TIP3   OH226899   1.064   3.749  11.254  0.0749 -0.0581  0.1195
 1803TIP3    H126900   1.089   3.698  11.177  0.6342  1.3114 -0.6372
 1803TIP3    H226901   0.981   3.710  11.282  0.5789 -1.5120 -0.2794
 1804TIP3   OH226902   1.103   3.474  17.106 -0.0755  0.3532  0.1852
 1804TIP3    H126903   1.191   3.438  17.116 -0.3203  0.0236  1.3134
 1804TIP3    H226904   1.109   3.534  17.032  1.2238  0.7441  0.5967
 1805TIP3   OH226905   6.663   1.020   0.659  0.0853  0.1244 -0.1439
 1805TIP3    H126906   6.669   1.086   0.728  0.0180  2.0719 -1.9054
 1805TIP3    H226907   6.571   1.018   0.636  0.0927 -0.5782 -0.1252
 1806TIP3   OH226908   5.926   0.531   5.975 -0.1679 -0.1669 -0.5463
 1806TIP3    H126909   5.959   0.454   5.929  2.5246  0.6113 -0.1072
 1806TIP3    H226910   5.846   0.501   6.018 -0.4880 -2.0274 -2.2998
 1807TIP3   OH226911   4.892   3.544   2.773 -0.2924  0.0471  0.3999
 1807TIP3    H126912   4.837   3.466   2.764  0.0475 -0.0748 -0.8445
 1807TIP3    H226913   4.833   3.612   2.805 -0.8278 -0.4541  0.4953
 1808TIP3   OH226914   3.998   3.423   3.747 -0.5490  0.0658 -0.2394
 1808TIP3    H126915   4.043   3.352   3.701  2.0572  1.7804 -0.5776
 1808TIP3    H226916   4.001   3.398   3.839 -0.3274 -0.6222 -0.4305
 1809TIP3   OH226917   4.547   2.772  15.315  0.2507 -0.3081  0.2892
 1809TIP3    H126918   4.617   2.709  15.297 -0.9459 -1.5408 -0.2208
 1809TIP3    H226919   4.517   2.749  15.403 -0.7353 -1.0116 -0.2170
 1810TIP3   OH226920   4.068   6.610  16.158 -0.1855  0.4959  1.0609
 1810TIP3    H126921   4.087   6.674  16.089 -0.5158  0.8710  1.3120
 1810TIP3    H226922   4.153   6.573  16.181  0.0830  1.2496  1.3069
 1811TIP3   OH226923   0.566   5.246  11.087  0.4699 -0.0025 -0.0667
 1811TIP3    H126924   0.634   5.230  11.021  0.2136 -0.8906 -0.1391
 1811TIP3    H226925   0.613   5.283  11.162  0.8424  0.5238 -0.5514
 1812TIP3   OH226926   4.435   3.080   4.421 -0.3798  0.3169  0.0445
 1812TIP3    H126927   4.380   3.141   4.372 -0.8261 -0.1338 -0.0191
 1812TIP3    H226928   4.481   3.135   4.484 -1.1212  0.6617  0.2918
 1813TIP3   OH226929   3.391   4.918  16.004 -0.0152  0.3790 -0.0117
 1813TIP3    H126930   3.463   4.933  16.066 -0.1928 -0.8696  0.5329
 1813TIP3    H226931   3.430   4.930  15.918  0.0387  3.0335  0.3014
 1814TIP3   OH226932   0.883   5.352   3.918  0.0379  0.2639 -0.2602
 1814TIP3    H126933   0.936   5.322   3.991  1.7494 -2.0332 -2.2784
 1814TIP3    H226934   0.806   5.295   3.918 -0.8229  1.3761  0.6720
 1815TIP3   OH226935   5.677   3.361  13.627 -0.2973 -0.1874 -0.4425
 1815TIP3    H126936   5.712   3.444  13.660 -1.9768  0.2123  0.4520
 1815TIP3    H226937   5.595   3.349  13.675 -1.5809 -0.8854 -2.6707
 1816TIP3   OH226938   2.223   2.617  16.474 -0.3392 -0.4531  0.3002
 1816TIP3    H126939   2.213   2.614  16.569 -0.0528 -1.2905  0.3084
 1816TIP3    H226940   2.248   2.528  16.449 -0.2601 -0.2043 -0.5431
 1817TIP3   OH226941   1.674   2.536   1.098 -0.2215 -0.0728  0.0475
 1817TIP3    H126942   1.646   2.470   1.161 -0.2557  1.7011  1.9830
 1817TIP3    H226943   1.598   2.594   1.089  0.3366  0.5985 -0.4016
 1818TIP3   OH226944   6.433   2.506   2.663 -0.3371  0.1959 -0.1096
 1818TIP3    H126945   6.527   2.489   2.667  0.0722  0.4850 -4.2859
 1818TIP3    H226946   6.392   2.419   2.662 -0.0603  0.0522  0.7661
 1819TIP3   OH226947   1.458   1.293  11.555  0.1375 -0.2596  0.3145
 1819TIP3    H126948   1.510   1.244  11.618  0.0989  0.0370  0.5802
 1819TIP3    H226949   1.501   1.378  11.550  1.4368 -0.9676 -1.6772
 1820TIP3   OH226950   4.793   6.277   3.209  0.2561 -0.0363 -0.1562
 1820TIP3    H126951   4.809   6.183   3.201 -1.7723 -0.4813  0.2912
 1820TIP3    H226952   4.817   6.313   3.124  1.9080 -0.8006 -0.0439
 1821TIP3   OH226953   0.739   5.326   5.884 -0.3200  0.0371  0.0070
 1821TIP3    H126954   0.649   5.324   5.916 -0.0126  1.1621  1.0413
 1821TIP3    H226955   0.792   5.298   5.958  0.1354 -1.9545 -1.0002
 1822TIP3   OH226956   0.360   4.709   1.290 -1.2692  0.7487 -0.0168
 1822TIP3    H126957   0.433   4.730   1.348 -0.5122 -0.2358 -0.5865
 1822TIP3    H226958   0.371   4.767   1.215 -0.9827  0.5091 -0.1632
 1823TIP3   OH226959   3.959   3.302   2.932 -0.7445  0.1259 -0.1302
 1823TIP3    H126960   4.018   3.243   2.979 -1.3893 -0.3339  0.1072
 1823TIP3    H226961   3.893   3.328   2.996  0.9768  3.2715  0.5903
 1824TIP3   OH226962   2.640   5.207   1.187 -0.6685 -0.2590 -0.1464
 1824TIP3    H126963   2.735   5.208   1.174 -0.7111  2.6356 -0.9985
 1824TIP3    H226964   2.606   5.165   1.108 -0.1319 -0.2982 -0.3665
 1825TIP3   OH226965   4.443   5.218  17.197 -0.2046 -0.7944  0.5290
 1825TIP3    H126966   4.457   5.305  17.236 -0.8050  0.1435 -1.2122
 1825TIP3    H226967   4.507   5.162  17.241 -0.2266  0.3671  2.1593
 1826TIP3   OH226968   4.081   3.304   1.118  0.8447 -0.0450 -0.6065
 1826TIP3    H126969   4.089   3.272   1.028  0.3566  2.5552 -1.6857
 1826TIP3    H226970   4.002   3.357   1.117  1.8895  1.6532  0.8029
 1827TIP3   OH226971   1.364   3.647  14.973  0.6467  0.3531  0.1534
 1827TIP3    H126972   1.289   3.591  14.991  1.5731 -1.1127 -0.3856
 1827TIP3    H226973   1.330   3.736  14.981 -0.9917 -0.2714  0.4972
 1828TIP3   OH226974   5.899   4.761  13.327 -0.0186 -0.3104 -0.0797
 1828TIP3    H126975   5.960   4.814  13.276  2.5972 -0.0172  3.0298
 1828TIP3    H226976   5.859   4.822  13.387  1.0142 -1.3210  1.7404
 1829TIP3   OH226977   1.066   0.835   5.910 -0.1758 -0.3163 -0.2401
 1829TIP3    H126978   1.022   0.832   5.825 -0.8286  0.5808  0.0532
 1829TIP3    H226979   1.024   0.908   5.956  0.3183 -0.6538  0.7686
 1830TIP3   OH226980   0.189   4.532  14.393  0.5165  0.0712 -0.2353
 1830TIP3    H126981   0.194   4.620  14.356 -0.0612 -0.1649 -0.8868
 1830TIP3    H226982   0.267   4.525  14.448  0.9238  0.7440 -0.7148
 1831TIP3   OH226983   0.901   4.751   6.399 -0.1410 -0.1406 -0.0401
 1831TIP3    H126984   0.939   4.692   6.334  0.4805  1.5863 -1.3227
 1831TIP3    H226985   0.844   4.809   6.348 -0.9640  0.1931  1.2183
 1832TIP3   OH226986   6.268   0.955   1.572  0.2846 -0.1833  0.2066
 1832TIP3    H126987   6.231   0.912   1.648  2.3093  0.0222  1.3674
 1832TIP3    H226988   6.226   1.042   1.570 -2.0165 -1.2250 -0.7591
 1833TIP3   OH226989   2.738   4.349   0.310 -0.0519  0.1990  0.2099
 1833TIP3    H126990   2.794   4.271   0.306  0.5998  0.6929 -0.6270
 1833TIP3    H226991   2.670   4.327   0.374 -0.0420 -1.1647 -0.2263
 1834TIP3   OH226992   5.800   5.208  15.229 -0.1776 -0.0084  0.3935
 1834TIP3    H126993   5.851   5.131  15.204 -0.9648 -0.7936  1.1875
 1834TIP3    H226994   5.720   5.174  15.267 -1.1536  1.2072 -0.4595
 1835TIP3   OH226995   5.349   4.740   5.955  0.9030  0.5687  0.4620
 1835TIP3    H126996   5.276   4.766   6.011  1.3044 -0.2062  1.3666
 1835TIP3    H226997   5.427   4.767   6.003  1.2608 -0.2278  0.3379
 1836TIP3   OH226998   0.873   3.805  13.231  0.3437  0.0241 -0.0984
 1836TIP3    H126999   0.784   3.777  13.209  0.1554  0.8167 -0.3822
 1836TIP3    H227000   0.862   3.865  13.305  0.7659 -0.8491  0.6824
 1837TIP3   OH227001   3.201   5.060   1.309 -1.1826  0.5943  0.4751
 1837TIP3    H127002   3.279   5.010   1.284 -0.9864  1.1134  0.0361
 1837TIP3    H227003   3.128   5.012   1.270 -1.2230 -0.5437  1.8366
 1838TIP3   OH227004   3.775   1.653   2.280  0.4803  0.6001  0.2796
 1838TIP3    H127005   3.784   1.736   2.325 -2.8773  1.1892  0.1396
 1838TIP3    H227006   3.797   1.587   2.346  0.5991  1.5554  1.2136
 1839TIP3   OH227007   4.756   2.543  10.254  0.6545 -0.6677  0.1111
 1839TIP3    H127008   4.675   2.496  10.273  0.2598 -0.2725 -0.5519
 1839TIP3    H227009   4.752   2.560  10.160  2.6658 -2.8607 -0.4882
 1840TIP3   OH227010   3.590   2.067   5.741  0.1123 -0.2128  0.5025
 1840TIP3    H127011   3.578   1.974   5.723 -0.3164 -0.5340  2.2310
 1840TIP3    H227012   3.539   2.083   5.820 -0.4058  1.6749 -0.1592
 1841TIP3   OH227013   4.274   0.978  13.392  0.8373 -0.2623 -0.7344
 1841TIP3    H127014   4.311   0.912  13.450  1.2298  0.3513 -0.2801
 1841TIP3    H227015   4.317   1.059  13.416  1.3336 -0.0608 -2.1802
 1842TIP3   OH227016   5.193   0.466   5.193  0.2592 -0.1285  0.1269
 1842TIP3    H127017   5.113   0.482   5.143  1.4647  0.4606 -1.7119
 1842TIP3    H227018   5.166   0.408   5.264 -1.5528 -0.9443 -1.1556
 1843TIP3   OH227019   3.146   4.364   2.292  0.1228  0.5260  0.0833
 1843TIP3    H127020   3.105   4.389   2.209 -0.1391  1.3250  0.4405
 1843TIP3    H227021   3.168   4.448   2.334  2.2060  0.1360 -0.1155
 1844TIP3   OH227022   5.144   4.868  11.360  0.0811 -0.9629  0.7576
 1844TIP3    H127023   5.120   4.959  11.345  0.3461 -0.9693  0.2827
 1844TIP3    H227024   5.224   4.872  11.412  0.6854 -0.9073 -0.1604
 1845TIP3   OH227025   2.173   4.042   4.899 -0.9305  0.2864  0.0517
 1845TIP3    H127026   2.219   4.011   4.821  0.6766  3.1525 -0.2705
 1845TIP3    H227027   2.098   4.091   4.864 -1.4087 -0.1851  0.4034
 1846TIP3   OH227028   6.758   6.823  12.317  0.3050 -0.3096  0.5532
 1846TIP3    H127029   6.689   6.884  12.343 -0.5729 -1.0182 -0.0504
 1846TIP3    H227030   6.768   6.837  12.223 -1.5177 -2.6068 -0.0831
 1847TIP3   OH227031   6.738   2.749   4.322  0.7010  0.2221 -0.0307
 1847TIP3    H127032   6.677   2.813   4.287  0.4577 -0.6234 -1.2493
 1847TIP3    H227033   6.724   2.750   4.416  1.6267  2.8720  0.1547
 1848TIP3   OH227034   3.920   1.059   3.884  0.0675 -0.5641 -0.3762
 1848TIP3    H127035   3.960   1.123   3.825  0.3318 -0.4001 -0.0160
 1848TIP3    H227036   3.896   1.109   3.962  0.0614 -0.8570 -0.1891
 1849TIP3   OH227037   1.168   0.706   0.471  0.3374  0.2046  0.3761
 1849TIP3    H127038   1.191   0.774   0.533  0.0086  0.1275  0.5851
 1849TIP3    H227039   1.130   0.636   0.524 -0.3683  0.3287  0.0481
 1850TIP3   OH227040   4.849   4.137  13.858 -0.0156 -1.0760  0.3525
 1850TIP3    H127041   4.790   4.081  13.910 -0.8198 -0.5739  0.0013
 1850TIP3    H227042   4.814   4.225  13.871 -0.9754 -1.0499 -1.9789
 1851TIP3   OH227043   5.311   6.173   4.161  0.1811 -0.2339 -0.5686
 1851TIP3    H127044   5.309   6.208   4.250  0.9086 -0.9279 -0.2677
 1851TIP3    H227045   5.283   6.246   4.106 -1.8962 -0.2660  0.3545
 1852TIP3   OH227046   3.617   0.395   1.721  0.0432  0.0361 -0.1619
 1852TIP3    H127047   3.681   0.429   1.783 -0.1544 -0.0178  0.0710
 1852TIP3    H227048   3.631   0.447   1.642  0.0656  0.3375  0.0390
 1853TIP3   OH227049   4.049   4.067  14.287 -0.1954  0.3487 -0.4575
 1853TIP3    H127050   3.954   4.055  14.277 -0.4568  1.4213  0.5549
 1853TIP3    H227051   4.082   3.979  14.304 -1.1763  0.1232  0.3912
 1854TIP3   OH227052   2.905   0.915   4.947 -0.2241  0.1169  0.6623
 1854TIP3    H127053   2.987   0.951   4.980  0.7039 -2.0741  0.8691
 1854TIP3    H227054   2.856   0.992   4.917  2.6725  1.3417 -1.3229
 1855TIP3   OH227055   3.934   3.905   6.370 -0.3135 -0.1619 -0.0176
 1855TIP3    H127056   3.970   3.923   6.456 -0.2605  1.4152 -0.3333
 1855TIP3    H227057   3.996   3.844   6.330  1.1357  1.2134  0.0621
 1856TIP3   OH227058   0.789   2.824   4.949  0.1836  0.1834 -0.2545
 1856TIP3    H127059   0.708   2.832   4.999  0.0424  2.1742 -0.7031
 1856TIP3    H227060   0.858   2.823   5.015 -0.1717 -3.1267  0.2354
 1857TIP3   OH227061   1.643   5.601  15.268 -0.2931  0.2287 -0.1139
 1857TIP3    H127062   1.723   5.631  15.310  0.3433  0.0630 -1.1938
 1857TIP3    H227063   1.576   5.609  15.337  1.1298 -2.3778  1.7724
 1858TIP3   OH227064   5.342   5.547  12.099 -0.2661  0.0072  0.2663
 1858TIP3    H127065   5.405   5.609  12.064 -0.6501 -0.1335 -0.7159
 1858TIP3    H227066   5.278   5.601  12.146 -0.0751  0.2622  0.2308
 1859TIP3   OH227067   0.387   1.752   6.686  0.1851 -0.1255  0.1908
 1859TIP3    H127068   0.332   1.816   6.732 -0.8486 -0.3525 -0.6774
 1859TIP3    H227069   0.324   1.690   6.649  1.0832 -0.7512 -0.3128
 1860TIP3   OH227070   1.871   5.302  16.742 -0.0190  0.7792 -0.0373
 1860TIP3    H127071   1.894   5.271  16.654 -1.4629  0.1586 -0.2337
 1860TIP3    H227072   1.893   5.395  16.741 -1.4475  1.1468 -1.6206
 1861TIP3   OH227073   6.582   3.271   0.679 -0.1794  0.1762 -0.1957
 1861TIP3    H127074   6.599   3.341   0.615  0.7868  0.1867  0.0636
 1861TIP3    H227075   6.660   3.216   0.676 -0.7587 -0.6664 -0.0870
 1862TIP3   OH227076   2.795   3.630  16.609  0.1429  0.6429  1.1145
 1862TIP3    H127077   2.853   3.697  16.573  0.4479  0.0650  0.5026
 1862TIP3    H227078   2.854   3.561  16.639 -0.2216 -1.1084 -1.7900
 1863TIP3   OH227079   6.322   1.019  13.379  0.2498 -0.3952  0.1790
 1863TIP3    H127080   6.253   1.075  13.414 -1.1438 -2.0113  0.1591
 1863TIP3    H227081   6.388   1.080  13.347 -1.2657  1.2296 -0.0291
 1864TIP3   OH227082   4.119   6.245  15.520  0.1036  0.5190  0.4305
 1864TIP3    H127083   4.147   6.224  15.609 -0.1307 -0.2738  0.3280
 1864TIP3    H227084   4.193   6.291  15.481  0.0172  1.3336  1.1926
 1865TIP3   OH227085   1.588   4.521   4.080 -0.1781  0.3899 -0.1230
 1865TIP3    H127086   1.542   4.553   4.003 -2.5334  2.7520  2.0594
 1865TIP3    H227087   1.560   4.430   4.090  2.1865 -0.8816 -3.3019
 1866TIP3   OH227088   6.718   0.110  15.294  0.2445 -0.0680  0.3151
 1866TIP3    H127089   6.726   0.201  15.265 -0.6098 -0.6651 -2.0066
 1866TIP3    H227090   6.624   0.093  15.298  0.3839 -1.1136 -0.2918
 1867TIP3   OH227091   3.614   3.328  16.288 -0.1890 -0.1666 -0.0080
 1867TIP3    H127092   3.680   3.396  16.299  0.4608 -0.4150 -1.9993
 1867TIP3    H227093   3.639   3.283  16.207 -0.9460 -2.3731  0.9016
 1868TIP3   OH227094   0.279   4.103  12.716  0.6985 -0.3442  0.0331
 1868TIP3    H127095   0.296   4.062  12.631  0.2233  1.5207 -1.0408
 1868TIP3    H227096   0.184   4.111  12.720  0.7416 -0.0698  0.5465
 1869TIP3   OH227097   1.314   2.116   2.735  0.4047  0.1568 -0.3971
 1869TIP3    H127098   1.247   2.178   2.763  1.1629  0.3395  1.0943
 1869TIP3    H227099   1.310   2.119   2.639 -1.6611  0.1937 -0.3585
 1870TIP3   OH227100   1.511   0.304   4.344  0.2111  0.7540  0.5306
 1870TIP3    H127101   1.564   0.225   4.333 -0.4626  0.2896  0.6209
 1870TIP3    H227102   1.527   0.332   4.434 -1.7055 -0.8695  1.4329
 1871TIP3   OH227103   2.802   4.929  12.067  0.3495 -0.2333 -0.1289
 1871TIP3    H127104   2.770   5.007  12.023  0.3079 -0.4255 -0.4425
 1871TIP3    H227105   2.763   4.933  12.154 -1.4849 -1.0426 -0.8531
 1872TIP3   OH227106   1.199   3.707  11.705  1.0562  0.0219 -0.2741
 1872TIP3    H127107   1.107   3.736  11.710  1.1847  1.0327 -2.3952
 1872TIP3    H227108   1.201   3.650  11.628  2.0872 -0.5142  0.1461
 1873TIP3   OH227109   0.218   5.460  10.754 -0.2224  0.0691  0.2957
 1873TIP3    H127110   0.140   5.513  10.767 -0.2073  0.0630  0.4163
 1873TIP3    H227111   0.213   5.431  10.663  1.3023  2.7631 -0.7622
 1874TIP3   OH227112   3.280   0.454  11.876 -0.5150  0.6920  0.1257
 1874TIP3    H127113   3.216   0.485  11.813  1.0565 -0.2920 -2.0807
 1874TIP3    H227114   3.230   0.397  11.935 -1.8314  0.7995 -0.8469
 1875TIP3   OH227115   5.445   1.889   3.827 -0.0350  0.5571  0.0799
 1875TIP3    H127116   5.452   1.982   3.807  1.4703  0.1030 -1.9644
 1875TIP3    H227117   5.513   1.848   3.772 -2.0464 -1.9585 -0.7356
 1876TIP3   OH227118   1.711   6.056   6.272  0.1192  0.0949  0.0932
 1876TIP3    H127119   1.702   6.119   6.343 -1.5098  1.6022 -1.3507
 1876TIP3    H227120   1.797   6.075   6.233 -0.4760  1.6827 -0.5064
 1877TIP3   OH227121   3.165   0.792   6.680 -0.2880 -0.3447  0.0110
 1877TIP3    H127122   3.249   0.835   6.666 -0.9347  1.6905  1.8765
 1877TIP3    H227123   3.100   0.853   6.644 -1.0696 -1.1411  0.0372
 1878TIP3   OH227124   4.169   5.117  14.790  0.0714 -0.0856 -0.7404
 1878TIP3    H127125   4.083   5.127  14.830  0.5874 -0.4897  0.5449
 1878TIP3    H227126   4.181   5.023  14.781  0.9173 -0.1154  0.4089
 1879TIP3   OH227127   6.157   0.536  16.592  0.3736 -0.0717 -0.0699
 1879TIP3    H127128   6.120   0.568  16.675 -0.0798  0.1482 -0.3509
 1879TIP3    H227129   6.130   0.601  16.528 -0.8039 -1.1421 -0.7084
 1880TIP3   OH227130   0.093   2.532  12.661 -0.1450 -0.8165 -0.3210
 1880TIP3    H127131   0.131   2.444  12.658 -1.6555 -1.4896 -2.1214
 1880TIP3    H227132   0.033   2.534  12.586  0.2077  1.9372 -0.6335
 1881TIP3   OH227133   2.944   0.921  13.085  0.2144  0.3730 -0.5347
 1881TIP3    H127134   2.932   0.836  13.126  0.4761 -0.0451 -1.3051
 1881TIP3    H227135   3.011   0.964  13.138  1.1079 -0.4654 -0.9601
 1882TIP3   OH227136   5.898   0.075  13.011 -0.1906 -0.6240  0.0045
 1882TIP3    H127137   5.951   0.152  13.028  2.1340 -1.6983 -1.8336
 1882TIP3    H227138   5.808   0.108  13.006  0.5468  1.6742  0.7708
 1883TIP3   OH227139   1.130   3.624   4.378 -0.3755  0.4100 -0.0187
 1883TIP3    H127140   1.049   3.580   4.403 -0.2722  0.0767 -0.2696
 1883TIP3    H227141   1.132   3.618   4.282  0.4223 -0.4203  0.0387
 1884TIP3   OH227142   4.355   5.464  17.010 -0.2166  0.3941 -0.2954
 1884TIP3    H127143   4.280   5.519  17.029 -0.8134 -0.5846  0.2732
 1884TIP3    H227144   4.319   5.376  17.002  0.5946  0.1833 -2.0421
 1885TIP3   OH227145   5.342   4.145   0.944  0.1913  0.4396  0.2618
 1885TIP3    H127146   5.298   4.213   0.891  0.7827 -0.2933 -1.2236
 1885TIP3    H227147   5.420   4.189   0.979  0.2540  0.6973 -0.1952
 1886TIP3   OH227148   1.214   3.492  10.641 -0.1962 -0.1686  0.0206
 1886TIP3    H127149   1.184   3.499  10.550 -1.2975  1.6558  0.4831
 1886TIP3    H227150   1.136   3.466  10.690  0.4498 -1.3699  0.4286
 1887TIP3   OH227151   6.241   4.202  13.468 -0.2146  0.1199 -0.2024
 1887TIP3    H127152   6.283   4.239  13.391 -0.2843 -0.2626 -0.4313
 1887TIP3    H227153   6.310   4.198  13.533  0.3634 -1.3420 -0.8566
 1888TIP3   OH227154   2.182   1.881   2.161  0.3948  0.3223 -0.1837
 1888TIP3    H127155   2.268   1.874   2.202  0.1511 -0.2093  0.2426
 1888TIP3    H227156   2.193   1.949   2.094  1.0887  0.4018  0.0045
 1889TIP3   OH227157   0.027   3.123  16.253 -0.4289 -0.4555 -0.4555
 1889TIP3    H127158   0.037   3.124  16.349 -2.2828  1.8503 -0.1850
 1889TIP3    H227159  -0.049   3.067  16.237 -1.7895  1.2213 -0.2469
 1890TIP3   OH227160   4.869   4.724  14.946  0.1772  0.3050 -0.0508
 1890TIP3    H127161   4.928   4.782  14.896 -0.1232  0.2519 -0.4760
 1890TIP3    H227162   4.791   4.717  14.891  0.4978 -1.1091 -0.3483
 1891TIP3   OH227163   2.908   5.497   4.704  0.3590 -0.1892  0.5451
 1891TIP3    H127164   2.970   5.532   4.641 -1.3315 -1.8750 -2.2779
 1891TIP3    H227165   2.838   5.562   4.708  0.1325 -0.4027  0.1052
 1892TIP3   OH227166   2.630   2.853   0.844  0.1362 -0.6457  0.3040
 1892TIP3    H127167   2.711   2.900   0.866 -1.1276  1.6892  0.2942
 1892TIP3    H227168   2.585   2.842   0.928 -0.4573 -0.0537  0.0752
 1893TIP3   OH227169   6.675   1.032   0.940  0.9732 -0.0891  0.2201
 1893TIP3    H127170   6.686   1.121   0.904  0.7341 -0.6053 -1.2152
 1893TIP3    H227171   6.625   1.045   1.021 -1.2705  0.9311 -1.2020
 1894TIP3   OH227172   3.518   4.829  16.673 -0.5864  0.0489 -0.2888
 1894TIP3    H127173   3.484   4.899  16.619  1.2313  0.7347 -0.6187
 1894TIP3    H227174   3.475   4.840  16.758 -0.4142  1.4933 -0.3768
 1895TIP3   OH227175   0.824   0.265  11.295  0.4807 -0.1267 -0.0961
 1895TIP3    H127176   0.782   0.203  11.235 -0.1968 -0.1261  0.3565
 1895TIP3    H227177   0.892   0.214  11.339  0.5451 -0.2993 -0.3984
 1896TIP3   OH227178   4.248   2.822  12.944  0.4022 -0.6892  0.2409
 1896TIP3    H127179   4.225   2.913  12.925 -0.7911 -1.0399 -0.1021
 1896TIP3    H227180   4.166   2.774  12.934  0.8175 -1.6799  1.2936
 1897TIP3   OH227181   1.663   5.093  16.437 -0.1587  0.8013 -0.0681
 1897TIP3    H127182   1.649   5.154  16.510  0.3016  1.2599 -0.3600
 1897TIP3    H227183   1.662   5.007  16.478  1.1803  1.1048  0.6585
 1898TIP3   OH227184   5.047   2.611   1.882  0.4721 -0.5774 -0.0369
 1898TIP3    H127185   4.984   2.674   1.918 -0.0072 -1.0586 -0.0156
 1898TIP3    H227186   5.026   2.606   1.789 -1.1974 -2.5873  0.3826
 1899TIP3   OH227187   4.240   1.494  15.872 -0.0059  0.6862  0.2641
 1899TIP3    H127188   4.264   1.466  15.783  0.3768 -3.3726  1.4719
 1899TIP3    H227189   4.144   1.501  15.869 -0.0465  0.0280 -0.3488
 1900TIP3   OH227190   3.098   0.028  16.674  0.4675 -0.4892 -0.2374
 1900TIP3    H127191   3.096   0.004  16.581  0.6676 -1.9097  0.0908
 1900TIP3    H227192   3.123  -0.053  16.719 -1.5476 -0.3674  1.2326
 1901TIP3   OH227193   2.545   1.152   4.421 -0.6559 -0.0244  0.2278
 1901TIP3    H127194   2.575   1.143   4.511  0.8683  0.5575 -0.1805
 1901TIP3    H227195   2.544   1.247   4.406 -0.1136 -0.1413 -0.5960
 1902TIP3   OH227196   0.607   5.889   3.866 -0.4028  0.2537 -0.7667
 1902TIP3    H127197   0.673   5.835   3.823  0.0014  1.4021 -1.6428
 1902TIP3    H227198   0.643   5.905   3.954 -0.1100 -0.1569 -0.8107
 1903TIP3   OH227199   2.691   1.312   1.737 -0.5587 -0.4037  0.3811
 1903TIP3    H127200   2.756   1.249   1.771 -1.4295 -2.7206 -1.9035
 1903TIP3    H227201   2.611   1.290   1.784 -1.0387 -1.5782 -0.9247
 1904TIP3   OH227202   0.628   2.776   2.724  0.1540  0.1708 -0.1384
 1904TIP3    H127203   0.720   2.794   2.742  0.1661 -0.6185  0.6703
 1904TIP3    H227204   0.629   2.701   2.665  0.0405 -0.0189  0.0935
 1905TIP3   OH227205   1.361   3.916  15.028  0.6280 -0.3641 -0.3055
 1905TIP3    H127206   1.432   3.980  15.032  1.5562 -1.4143  0.7324
 1905TIP3    H227207   1.331   3.907  15.118  0.0529 -0.8914 -0.5416
 1906TIP3   OH227208   5.934   1.932   1.045  0.0073  0.6454  0.2024
 1906TIP3    H127209   5.879   2.007   1.066 -1.0420  0.0029 -0.1680
 1906TIP3    H227210   5.911   1.909   0.955 -0.9876 -1.1607  0.8662
 1907TIP3   OH227211   1.795   1.517  14.268  0.3678 -0.2589  0.0791
 1907TIP3    H127212   1.831   1.502  14.355 -1.1222  1.8043  1.1325
 1907TIP3    H227213   1.859   1.574  14.225 -0.2632  1.1897  0.9720
 1908TIP3   OH227214   2.766   1.978  14.024 -0.2540 -0.3721 -0.3377
 1908TIP3    H127215   2.785   2.068  13.996  0.2625 -0.1422  0.7268
 1908TIP3    H227216   2.784   1.977  14.118  1.9809 -2.1775 -0.6917
 1909TIP3   OH227217   6.449   6.411  13.854  0.2186 -0.8042  0.3452
 1909TIP3    H127218   6.379   6.376  13.911  1.3330 -2.8357  0.5776
 1909TIP3    H227219   6.448   6.505  13.871  0.6556 -1.2900  4.0171
 1910TIP3   OH227220   0.432   0.216  13.740  0.0108  0.5024  0.3578
 1910TIP3    H127221   0.510   0.238  13.688 -0.2219  3.3839  1.0622
 1910TIP3    H227222   0.466   0.164  13.812  0.7143 -1.2511 -1.1426
 1911TIP3   OH227223   1.675   2.934   4.785 -0.1601  0.6120  0.1060
 1911TIP3    H127224   1.610   2.885   4.735  0.4905  1.1017 -1.2669
 1911TIP3    H227225   1.753   2.880   4.784  0.3556  1.3467 -0.8465
 1912TIP3   OH227226   6.041   2.686  15.937 -0.0582 -0.2037  0.7991
 1912TIP3    H127227   6.105   2.642  15.880 -0.9355 -1.3745  0.6853
 1912TIP3    H227228   6.005   2.755  15.882  1.8007  1.1462  1.1863
 1913TIP3   OH227229   2.798   0.981   3.867  0.2229  0.3406 -0.2823
 1913TIP3    H127230   2.732   0.965   3.934  1.1836  1.6692  1.0295
 1913TIP3    H227231   2.871   0.924   3.890 -0.0723 -0.4088 -1.1645
 1914TIP3   OH227232   2.605   3.026  14.800 -0.9234 -0.1982 -0.4067
 1914TIP3    H127233   2.558   3.109  14.811 -1.8307 -0.5926 -1.1873
 1914TIP3    H227234   2.581   2.997  14.712  1.7938  0.1996 -1.3460
 1915TIP3   OH227235   4.107   6.491   5.751 -0.1583  0.2805 -0.2624
 1915TIP3    H127236   4.094   6.441   5.832  0.2246  2.4181  1.1949
 1915TIP3    H227237   4.178   6.553   5.772 -0.6466  1.4706 -1.9400
 1916TIP3   OH227238   3.182   5.857  11.706  0.0549  0.6681 -0.9249
 1916TIP3    H127239   3.231   5.922  11.657 -0.6795  0.2267 -2.3011
 1916TIP3    H227240   3.148   5.797  11.640  0.1661 -0.7562  0.2415
 1917TIP3   OH227241   2.960   0.584  17.156  0.0176  0.4916 -0.0637
 1917TIP3    H127242   2.894   0.565  17.222 -0.0880 -0.1869 -0.3618
 1917TIP3    H227243   2.918   0.648  17.099  0.4094  1.7289  0.9918
 1918TIP3   OH227244   4.299   4.393  12.074  0.2710 -0.1566  0.6621
 1918TIP3    H127245   4.383   4.351  12.058 -0.7068 -2.2866  0.7833
 1918TIP3    H227246   4.309   4.437  12.159  1.5600  0.5420  0.1732
 1919TIP3   OH227247   3.389   5.646   4.044  0.8813  0.4380  0.9071
 1919TIP3    H127248   3.326   5.574   4.050  1.4134 -0.2017 -0.6503
 1919TIP3    H227249   3.391   5.683   4.132 -5.0589  3.4494  0.2376
 1920TIP3   OH227250   6.534   6.446  14.465  0.4894 -0.0180 -1.1560
 1920TIP3    H127251   6.459   6.426  14.409  1.7490 -1.3664 -2.4677
 1920TIP3    H227252   6.535   6.541  14.472 -1.2301  0.0310 -1.2294
 1921TIP3   OH227253   4.835   6.684   2.720 -0.0408 -0.1257 -0.4041
 1921TIP3    H127254   4.793   6.604   2.686 -0.7238 -0.4736  1.1471
 1921TIP3    H227255   4.762   6.745   2.731  0.2899  0.2584 -0.3657
 1922TIP3   OH227256   0.280   6.256  11.539 -0.2069 -0.2341 -0.0438
 1922TIP3    H127257   0.239   6.285  11.458  0.9736  2.3674  0.1791
 1922TIP3    H227258   0.274   6.332  11.598  2.8967 -0.4365  0.7244
 1923TIP3   OH227259   0.235   5.271   3.136 -0.3580 -0.1820 -0.3327
 1923TIP3    H127260   0.198   5.183   3.150 -0.6838  0.1540  1.0754
 1923TIP3    H227261   0.323   5.255   3.102 -1.3092 -1.0158 -2.6068
 1924TIP3   OH227262   1.404   4.806  13.735  0.0762  0.2676 -0.6503
 1924TIP3    H127263   1.458   4.827  13.811  0.9412 -1.3054 -0.7908
 1924TIP3    H227264   1.369   4.719  13.754 -1.6676  0.8360 -1.0008
 1925TIP3   OH227265   5.377   3.375   4.135  0.0087  0.3254  0.3800
 1925TIP3    H127266   5.385   3.345   4.226 -1.9104 -0.4805  0.3125
 1925TIP3    H227267   5.286   3.359   4.112  0.2307  1.3937 -1.4038
 1926TIP3   OH227268   2.688   3.464  13.998 -0.4905 -0.4203  0.0583
 1926TIP3    H127269   2.677   3.548  14.043 -1.3290 -1.9431  2.9400
 1926TIP3    H227270   2.607   3.454  13.947 -0.4286  0.4523 -0.2336
 1927TIP3   OH227271   0.576   0.898   6.125 -0.5720  0.0701  0.0597
 1927TIP3    H127272   0.578   0.994   6.130  0.6775  0.0616  0.0438
 1927TIP3    H227273   0.543   0.880   6.037 -0.9274  0.4806  0.1032
 1928TIP3   OH227274   1.192   1.617   2.063 -0.0593  0.3508  0.7212
 1928TIP3    H127275   1.200   1.575   1.977 -1.5278 -1.4403  1.3847
 1928TIP3    H227276   1.242   1.698   2.055  0.2820 -0.0169 -1.6479
 1929TIP3   OH227277   5.082   0.309  13.510  0.6268  0.4360 -0.2487
 1929TIP3    H127278   5.155   0.355  13.553 -0.7233  1.7471  0.7564
 1929TIP3    H227279   5.009   0.370  13.517 -0.9232 -1.3599 -0.0756
 1930TIP3   OH227280   5.086   4.050  11.436 -0.4630  0.2510 -0.1933
 1930TIP3    H127281   5.154   4.059  11.370  1.1064 -0.9621  1.1916
 1930TIP3    H227282   5.087   4.134  11.483 -1.1481  0.8733 -1.2337
 1931TIP3   OH227283   0.728   5.275   1.289  0.1701 -0.1579  0.3160
 1931TIP3    H127284   0.702   5.342   1.352  0.6760  0.3253  0.0176
 1931TIP3    H227285   0.688   5.194   1.322  0.5724  0.0532  1.3430
 1932TIP3   OH227286   5.854   2.938   1.980 -0.0671 -0.2309 -0.0474
 1932TIP3    H127287   5.762   2.945   2.006 -0.2710 -0.0679 -0.7918
 1932TIP3    H227288   5.883   3.028   1.971  0.0737 -0.2857 -0.1430
 1933TIP3   OH227289   2.985   6.272  11.003 -0.2270  0.0284 -0.2316
 1933TIP3    H127290   3.037   6.192  11.004  0.3041  0.3689 -0.1743
 1933TIP3    H227291   2.932   6.265  10.923  0.1660 -0.1607 -0.4786
 1934TIP3   OH227292   3.256   0.174  13.424 -0.7272 -0.9667 -0.4099
 1934TIP3    H127293   3.205   0.236  13.476  0.8115 -1.6278  2.0522
 1934TIP3    H227294   3.190   0.122  13.378 -2.1294  0.3874 -0.0320
 1935TIP3   OH227295   2.655   5.974  10.746  0.1270 -0.1348  0.2897
 1935TIP3    H127296   2.721   5.963  10.814  1.3275  0.3370 -0.7684
 1935TIP3    H227297   2.635   5.884  10.717  1.9793 -0.2158 -0.9093
 1936TIP3   OH227298   2.437   5.545  14.355  0.1881 -0.7284  0.1187
 1936TIP3    H127299   2.427   5.636  14.326  2.3615  0.0575  1.6308
 1936TIP3    H227300   2.503   5.508  14.296  0.2101 -0.9550  0.2861
 1937TIP3   OH227301   5.984   5.306   2.010  0.3346 -0.4267 -0.1916
 1937TIP3    H127302   6.005   5.213   2.014 -0.1247 -0.5804 -1.0606
 1937TIP3    H227303   6.062   5.346   1.971  0.4324 -0.4843 -0.0537
 1938TIP3   OH227304   5.850   5.598   5.984 -0.1576  0.2527 -0.0339
 1938TIP3    H127305   5.785   5.544   5.937 -0.5431 -0.7330  1.5416
 1938TIP3    H227306   5.820   5.598   6.074  1.4252  0.7566  0.5265
 1939TIP3   OH227307   0.966   5.048   5.355  0.3805 -0.0460 -0.6703
 1939TIP3    H127308   0.951   5.027   5.447  0.0217  1.6313 -0.3006
 1939TIP3    H227309   0.882   5.029   5.313  0.9979 -2.3210 -1.0074
 1940TIP3   OH227310   2.499   0.625  11.898  0.1125 -0.7197  0.1396
 1940TIP3    H127311   2.407   0.631  11.923  0.0734  0.9294 -0.3128
 1940TIP3    H227312   2.540   0.702  11.938  0.7386  0.0874 -1.9174
 1941TIP3   OH227313   1.425   4.243   5.402  0.3968 -0.3276  0.3716
 1941TIP3    H127314   1.453   4.207   5.318  1.2000  1.6926 -0.2859
 1941TIP3    H227315   1.429   4.338   5.390 -0.8362  0.0121  2.2612
 1942TIP3   OH227316   6.476   0.382  14.590 -0.3795  0.6582 -0.3587
 1942TIP3    H127317   6.440   0.455  14.640  0.9572  0.5219  0.8817
 1942TIP3    H227318   6.529   0.334  14.653  0.9780  0.1796 -1.7878
 1943TIP3   OH227319   1.164   6.112  15.367  0.0213  0.1781  0.2218
 1943TIP3    H127320   1.237   6.070  15.322 -1.2480  0.1068 -1.8960
 1943TIP3    H227321   1.089   6.096  15.310 -1.1507  2.4896  1.0095
 1944TIP3   OH227322   5.599   0.705  13.786  0.6451 -0.5084  0.4068
 1944TIP3    H127323   5.577   0.700  13.693 -0.7840  2.5883  0.4475
 1944TIP3    H227324   5.518   0.733  13.828  2.1383  1.6374  2.0476
 1945TIP3   OH227325   4.275   6.496   0.747  0.9621 -0.2775 -0.1994
 1945TIP3    H127326   4.301   6.405   0.765 -0.1847 -0.7073 -0.6185
 1945TIP3    H227327   4.309   6.513   0.659 -0.0622 -0.8128 -0.7169
 1946TIP3   OH227328   0.058   6.699   3.038 -0.1563 -0.3267  0.5804
 1946TIP3    H127329   0.138   6.698   2.986  0.2394  1.8121  1.0467
 1946TIP3    H227330   0.081   6.654   3.119 -0.4558 -2.6772 -0.5577
 1947TIP3   OH227331   6.463   3.491   2.291 -0.7000  0.2073 -0.0126
 1947TIP3    H127332   6.506   3.412   2.326  1.2709  0.1337 -2.3324
 1947TIP3    H227333   6.536   3.547   2.264 -2.1006  1.6666 -0.9024
 1948TIP3   OH227334   6.471   5.021   1.444 -0.1323 -0.3087 -0.6734
 1948TIP3    H127335   6.470   4.947   1.505 -0.2035  0.2759  0.0630
 1948TIP3    H227336   6.381   5.053   1.444  0.2263  0.8159  0.3658
 1949TIP3   OH227337   0.937   1.574   0.079  0.0160  0.5447 -0.1908
 1949TIP3    H127338   0.959   1.482   0.093  0.8612  0.9704  1.5377
 1949TIP3    H227339   0.937   1.585  -0.016 -1.8849 -1.6397 -0.5208
 1950TIP3   OH227340   6.258   0.758  15.467 -0.0442 -0.3261 -0.0687
 1950TIP3    H127341   6.337   0.755  15.520 -0.1128 -1.0953 -0.0001
 1950TIP3    H227342   6.190   0.788  15.527 -0.1592 -1.3731  0.3290
 1951TIP3   OH227343   5.980   6.469   5.534  0.2753 -0.2473  0.0433
 1951TIP3    H127344   5.951   6.551   5.495  1.3378 -0.4207 -1.1632
 1951TIP3    H227345   6.048   6.495   5.596 -0.9949 -0.0341  1.4296
 1952TIP3   OH227346   3.968   5.913  12.729 -0.7436  0.5058  0.5739
 1952TIP3    H127347   3.970   5.857  12.806  1.6858 -0.5461 -0.1510
 1952TIP3    H227348   3.965   6.002  12.764 -1.7193  0.0295  1.7983
 1953TIP3   OH227349   5.343   1.728   5.238 -0.5137  0.6316  0.2918
 1953TIP3    H127350   5.318   1.638   5.218  0.0570  0.6515 -0.5315
 1953TIP3    H227351   5.412   1.749   5.175  0.4222  1.1340  1.4415
 1954TIP3   OH227352   2.252   3.630  15.236 -0.0645  0.1879 -0.2269
 1954TIP3    H127353   2.214   3.584  15.310  0.4972 -1.2057 -0.7628
 1954TIP3    H227354   2.241   3.570  15.162  0.2195  1.1473 -1.0820
 1955TIP3   OH227355   0.630   3.810   4.802  0.0394 -0.1960  0.2179
 1955TIP3    H127356   0.648   3.904   4.799  2.8420 -0.6206 -4.1292
 1955TIP3    H227357   0.550   3.800   4.750  0.2211 -0.2786 -0.0467
 1956TIP3   OH227358   5.089   3.780  11.466  0.7326 -0.1316 -0.4927
 1956TIP3    H127359   5.095   3.763  11.372  1.0287  0.7766 -0.6426
 1956TIP3    H227360   5.090   3.875  11.474  1.7156 -0.1999  0.4929
 1957TIP3   OH227361   0.625   6.572   3.331 -0.1130 -0.3380 -0.0225
 1957TIP3    H127362   0.541   6.617   3.338  0.3834  1.0045 -1.9207
 1957TIP3    H227363   0.689   6.636   3.362  0.2907 -1.1248  0.8113
 1958TIP3   OH227364   1.341   1.314   3.193 -0.3961  0.1324  0.1078
 1958TIP3    H127365   1.340   1.399   3.236  0.6343  1.4099 -2.2207
 1958TIP3    H227366   1.249   1.297   3.172 -0.9059 -0.4528  2.5010
 1959TIP3   OH227367   6.383   3.577  11.302 -0.0331  0.3733 -0.8965
 1959TIP3    H127368   6.321   3.650  11.291  0.7338  0.9754 -1.3209
 1959TIP3    H227369   6.417   3.561  11.214 -0.0546 -0.3873 -0.7736
 1960TIP3   OH227370   5.074   3.684   0.920 -0.1273  0.5305 -0.0001
 1960TIP3    H127371   5.094   3.695   0.827 -2.7460  4.5401 -0.3481
 1960TIP3    H227372   5.119   3.757   0.963 -0.7177  0.0210  1.5512
 1961TIP3   OH227373   5.297   2.906   3.114 -0.0311  0.1240 -0.0168
 1961TIP3    H127374   5.291   2.989   3.161  0.7741 -0.6982  1.6127
 1961TIP3    H227375   5.355   2.924   3.040  0.2605  0.9751  0.4074
 1962TIP3   OH227376   5.703   0.156  13.885  0.1807  0.0861 -0.4936
 1962TIP3    H127377   5.743   0.184  13.803  0.2375  0.2672 -0.4051
 1962TIP3    H227378   5.623   0.208  13.891  0.8292  1.0336  0.2057
 1963TIP3   OH227379   3.940   3.999  16.421 -0.2896 -0.3195  0.0109
 1963TIP3    H127380   3.938   4.081  16.471 -2.8078  0.4928 -1.2743
 1963TIP3    H227381   3.933   3.930  16.487  1.2217  0.4770  1.0610
 1964TIP3   OH227382   3.743   3.649  13.032  0.3225 -0.0314 -0.3876
 1964TIP3    H127383   3.720   3.556  13.038  2.1944 -0.5389 -0.3354
 1964TIP3    H227384   3.688   3.683  12.962 -0.5858 -1.1178 -0.2345
 1965TIP3   OH227385   4.758   6.262  16.701  0.2102 -0.1770  0.2564
 1965TIP3    H127386   4.812   6.327  16.745 -0.1229  0.4177 -0.1892
 1965TIP3    H227387   4.696   6.233  16.768  0.1699  0.1915  0.3837
 1966TIP3   OH227388   1.082   0.113  16.242  0.0878  0.3572 -0.1287
 1966TIP3    H127389   1.092   0.116  16.147 -2.5876 -2.7666 -0.6831
 1966TIP3    H227390   1.002   0.162  16.260 -0.3270 -0.4621  0.2995
 1967TIP3   OH227391   3.592   0.186   0.806  0.3082 -0.2778  0.2624
 1967TIP3    H127392   3.646   0.133   0.747  0.3939 -0.3984  0.4479
 1967TIP3    H227393   3.574   0.266   0.756 -0.8449 -0.9807 -0.4976
 1968TIP3   OH227394   1.859   4.095  14.619 -0.1087  0.3219  0.4494
 1968TIP3    H127395   1.770   4.060  14.613 -0.5744  1.6530 -2.4485
 1968TIP3    H227396   1.910   4.039  14.559  0.3311  1.2793 -0.0926
 1969TIP3   OH227397   3.652   0.260   0.019 -0.3513  0.2177 -0.2239
 1969TIP3    H127398   3.682   0.206   0.093 -1.1155  1.3061  0.9337
 1969TIP3    H227399   3.732   0.283  -0.028  0.3896  0.8876  1.2687
 1970TIP3   OH227400   2.400   1.520  11.889 -0.7456  0.1934  0.2184
 1970TIP3    H127401   2.363   1.504  11.802 -1.0798  1.1592  0.1660
 1970TIP3    H227402   2.387   1.614  11.903  1.2129  0.4761  0.4312
 1971TIP3   OH227403   4.616   4.075   3.680  0.0872  0.2680  0.3935
 1971TIP3    H127404   4.588   4.147   3.623  0.0303 -0.5761 -0.6912
 1971TIP3    H227405   4.563   4.085   3.759  0.4355  1.6979  0.4685
 1972TIP3   OH227406   1.570   0.270  11.143  0.5635 -0.0345 -0.1568
 1972TIP3    H127407   1.530   0.340  11.090  1.5801 -0.7939 -2.0619
 1972TIP3    H227408   1.569   0.193  11.086  2.2332 -0.7630  0.7119
 1973TIP3   OH227409   2.389   2.927  16.640  0.0644  0.2501 -0.2781
 1973TIP3    H127410   2.340   2.940  16.721  0.3724 -0.0184 -0.0463
 1973TIP3    H227411   2.324   2.892  16.579  0.6188 -3.5087  1.0231
 1974TIP3   OH227412   0.808   5.441   3.045 -0.3436 -0.2058 -0.6083
 1974TIP3    H127413   0.754   5.372   3.084  3.5168 -3.1915  0.0401
 1974TIP3    H227414   0.852   5.482   3.120  1.2721 -0.6557 -1.2663
 1975TIP3   OH227415   5.719   2.111  10.879  0.2681 -0.2806  0.1750
 1975TIP3    H127416   5.779   2.171  10.923 -0.0373 -0.8426  1.3950
 1975TIP3    H227417   5.776   2.054  10.827  0.7556 -0.4410  0.8743
 1976TIP3   OH227418   3.093   0.234   5.205 -0.9176 -0.3155  0.2760
 1976TIP3    H127419   3.185   0.216   5.226 -1.0157 -1.4298 -0.1713
 1976TIP3    H227420   3.095   0.273   5.118 -1.0271 -3.2523 -1.1549
 1977TIP3   OH227421   5.793   3.235   1.954  0.3994 -0.1906 -0.2115
 1977TIP3    H127422   5.835   3.296   2.015 -1.1975 -0.7197  1.4981
 1977TIP3    H227423   5.700   3.246   1.969  0.0110 -1.5401 -1.3964
 1978TIP3   OH227424   5.976   0.997  16.390 -0.2147  0.1163 -0.1627
 1978TIP3    H127425   5.899   0.981  16.445 -0.2685  1.3607  0.1441
 1978TIP3    H227426   6.026   0.915  16.395 -1.7351 -0.9063 -0.7617
 1979TIP3   OH227427   0.555   5.446  16.740 -0.8530 -0.3363  0.3120
 1979TIP3    H127428   0.525   5.501  16.668 -0.4435 -0.6018 -0.0707
 1979TIP3    H227429   0.510   5.480  16.817  0.0893  1.1181  0.2485
 1980TIP3   OH227430   3.593   1.745   4.197  0.1845 -0.3369  0.0005
 1980TIP3    H127431   3.537   1.804   4.248 -0.1145 -0.1975 -0.4803
 1980TIP3    H227432   3.539   1.666   4.187  0.1023 -0.2276 -0.4068
 1981TIP3   OH227433   4.245   5.989  14.104 -0.5582  0.3412 -0.0197
 1981TIP3    H127434   4.294   6.064  14.068  1.5146  0.0418  1.9441
 1981TIP3    H227435   4.263   5.992  14.198 -1.9010 -1.6161  0.3521
 1982TIP3   OH227436   0.156   2.829  13.539 -0.4492 -0.3367  0.2212
 1982TIP3    H127437   0.221   2.781  13.487 -1.0271 -0.9366  0.0359
 1982TIP3    H227438   0.143   2.775  13.617 -0.9159 -0.3551  0.1310
 1983TIP3   OH227439   4.425   5.509  16.228 -0.0448  0.1806  0.0320
 1983TIP3    H127440   4.345   5.557  16.253 -0.9377 -1.5972  0.7931
 1983TIP3    H227441   4.405   5.417  16.248  1.4208 -0.6005 -1.8035
 1984TIP3   OH227442   5.207   3.895  13.336  0.1370 -0.1225  0.2093
 1984TIP3    H127443   5.123   3.923  13.301  0.6049 -0.1371 -0.9870
 1984TIP3    H227444   5.272   3.935  13.277  0.9522 -0.3614  0.9206
 1985TIP3   OH227445   0.275   2.074  13.391  0.2433  0.3180  0.0180
 1985TIP3    H127446   0.227   2.066  13.309 -0.3147  1.2524  0.2377
 1985TIP3    H227447   0.325   1.993  13.397 -1.3992 -0.7700 -0.1600
 1986TIP3   OH227448   6.503   3.061  12.359  0.8292 -0.0967  0.8046
 1986TIP3    H127449   6.543   3.054  12.272  1.1410 -0.5054  0.9803
 1986TIP3    H227450   6.409   3.050  12.343  0.9193 -0.5505  0.5604
 1987TIP3   OH227451   0.630   5.712   4.927  0.0199 -0.1257  0.2272
 1987TIP3    H127452   0.690   5.656   4.976 -0.5506 -0.2935  0.7435
 1987TIP3    H227453   0.547   5.707   4.975 -0.2609  0.5316 -0.1703
 1988TIP3   OH227454   5.359   6.482  13.253 -0.4904  0.2385  0.1113
 1988TIP3    H127455   5.453   6.491  13.234 -0.5830  2.4157  0.3544
 1988TIP3    H227456   5.318   6.475  13.166 -0.2261  1.4216 -0.1389
 1989TIP3   OH227457   0.958   0.177  13.537 -0.0763  0.3940  0.0145
 1989TIP3    H127458   0.943   0.201  13.446 -0.6316 -2.6366 -0.8021
 1989TIP3    H227459   0.929   0.253  13.587 -1.6726  1.3760 -2.2509
 1990TIP3   OH227460   4.254   4.625  15.415 -0.2662 -0.2514  0.1861
 1990TIP3    H127461   4.348   4.642  15.410 -0.4011  1.2405  1.5948
 1990TIP3    H227462   4.215   4.711  15.430 -1.5612 -1.1691  2.6384
 1991TIP3   OH227463   0.737   0.772   0.638  0.0162 -0.8161  0.1343
 1991TIP3    H127464   0.823   0.813   0.624 -0.9609  1.6699  0.8933
 1991TIP3    H227465   0.753   0.711   0.710  0.7948  1.1721  1.7722
 1992TIP3   OH227466   0.647   1.929   1.691  0.1554  0.6557  0.0602
 1992TIP3    H127467   0.624   1.854   1.636 -1.0088 -0.2760  1.7208
 1992TIP3    H227468   0.573   1.989   1.682  0.5311  1.0665 -0.3291
 1993TIP3   OH227469   0.325   6.641  15.040  0.0363 -0.2276  0.0933
 1993TIP3    H127470   0.240   6.614  15.076 -0.8638  0.8448 -1.1490
 1993TIP3    H227471   0.388   6.587  15.087 -1.2749 -0.6754  1.4477
 1994TIP3   OH227472   0.626   1.774  15.749 -0.0092 -0.1157  0.1771
 1994TIP3    H127473   0.584   1.758  15.833  2.2186 -0.6672  1.2718
 1994TIP3    H227474   0.701   1.829  15.770  0.8999 -0.6949 -1.3659
 1995TIP3   OH227475   5.183   5.223   0.797 -0.3119  0.0491 -0.2320
 1995TIP3    H127476   5.108   5.221   0.737 -1.6893  0.7564  1.3580
 1995TIP3    H227477   5.236   5.296   0.767 -0.5170 -0.1363 -1.0861
 1996TIP3   OH227478   6.107   4.869  17.095 -0.4423 -0.1522 -0.0914
 1996TIP3    H127479   6.036   4.897  17.037 -0.4766 -1.0439 -0.4868
 1996TIP3    H227480   6.081   4.783  17.126  0.9699 -0.9909 -1.1252
 1997TIP3   OH227481   6.317   6.606  12.687  0.0918  0.4967 -0.5046
 1997TIP3    H127482   6.367   6.524  12.687  1.5768  1.3430 -1.4406
 1997TIP3    H227483   6.280   6.611  12.599 -1.4041  0.0523  0.0738
 1998TIP3   OH227484   3.633   4.199  12.996 -0.2614 -0.0391 -0.6502
 1998TIP3    H127485   3.638   4.167  13.086 -1.3177  1.0167 -0.1900
 1998TIP3    H227486   3.541   4.186  12.972 -0.1795  0.4891 -1.2675
 1999TIP3   OH227487   4.737   6.505  11.089 -0.5747  0.4362  0.2414
 1999TIP3    H127488   4.659   6.552  11.118  0.2105  1.1713  1.1980
 1999TIP3    H227489   4.807   6.570  11.090  0.3422 -0.5322  0.7115
 2000TIP3   OH227490   6.550   2.800  15.665 -0.4405  0.5101  0.2260
 2000TIP3    H127491   6.505   2.878  15.633  1.2831  1.0429 -1.0523
 2000TIP3    H227492   6.641   2.814  15.641  0.0601 -1.4972  0.8066
 2001TIP3   OH227493   1.767   6.239   0.621 -0.0680 -0.0591  0.1827
 2001TIP3    H127494   1.779   6.333   0.612  2.1430 -0.3547 -0.5720
 2001TIP3    H227495   1.816   6.216   0.700  0.1023 -0.6806 -0.0977
 2002TIP3   OH227496   0.215   3.367  11.582 -0.6403  0.3903  0.5261
 2002TIP3    H127497   0.149   3.397  11.644 -0.9928  1.7305 -0.4706
 2002TIP3    H227498   0.178   3.387  11.496  0.1328 -0.8247 -0.1177
 2003TIP3   OH227499   5.605   4.951  11.572  0.1712 -0.3582 -0.7583
 2003TIP3    H127500   5.652   4.997  11.641 -0.0784 -1.7894  0.4068
 2003TIP3    H227501   5.577   5.020  11.512 -0.4420  1.0638  1.0534
 2004TIP3   OH227502   0.728   2.415   0.669  0.2554  0.0533  0.4740
 2004TIP3    H127503   0.757   2.372   0.589 -1.2458  2.4130 -1.4826
 2004TIP3    H227504   0.808   2.454   0.706  1.1307 -1.8852  0.7653
 2005TIP3   OH227505   0.671   5.297  14.708 -0.4621  0.2051 -0.6332
 2005TIP3    H127506   0.690   5.204  14.716  0.3769  0.2300 -1.8941
 2005TIP3    H227507   0.705   5.336  14.788 -1.3222 -0.6398  0.1526
 2006TIP3   OH227508   2.092   2.259  16.518  0.2620 -0.4614  0.3162
 2006TIP3    H127509   2.115   2.301  16.601  0.2836 -0.5522  0.3561
 2006TIP3    H227510   2.143   2.306  16.452  0.0422 -0.2110  0.3205
 2007TIP3   OH227511   4.060   5.561   4.498 -0.1357 -0.0187 -0.2265
 2007TIP3    H127512   4.075   5.470   4.471 -0.8283 -0.4592  0.8312
 2007TIP3    H227513   4.056   5.610   4.415 -0.6227 -1.0816 -0.8571
 2008TIP3   OH227514   3.014   0.358  16.986 -0.5341 -0.9463 -0.3171
 2008TIP3    H127515   2.942   0.337  16.927  0.1563 -2.5212 -0.6390
 2008TIP3    H227516   2.986   0.438  17.030 -1.9456 -0.8649 -1.3016
 2009TIP3   OH227517   6.304   4.438  13.301  0.1337  0.2324 -0.4145
 2009TIP3    H127518   6.258   4.486  13.371  0.0750  0.8509 -0.8660
 2009TIP3    H227519   6.235   4.391  13.255  0.1897 -0.2892  0.0243
 2010TIP3   OH227520   0.913   2.151  15.167 -0.1032  0.5007  0.2275
 2010TIP3    H127521   0.899   2.079  15.106  0.6579  0.6539 -0.1425
 2010TIP3    H227522   0.869   2.226  15.127 -2.1696 -0.0462  1.3070
 2011TIP3   OH227523   1.066   0.201   1.911  0.2748 -0.3440  0.1325
 2011TIP3    H127524   1.135   0.172   1.851  2.5248  0.0967  2.3404
 2011TIP3    H227525   0.993   0.224   1.853  2.7762  1.4995 -2.6296
 2012TIP3   OH227526   2.580   2.587   2.379  0.1192 -0.2484 -0.2674
 2012TIP3    H127527   2.538   2.537   2.449  0.8579 -0.4851  0.0179
 2012TIP3    H227528   2.508   2.634   2.336 -0.5302 -1.2580 -0.3027
 2013TIP3   OH227529   0.925   3.045  12.897  0.1640  0.1424  0.1298
 2013TIP3    H127530   0.965   2.969  12.855  0.6184  0.5193 -0.1297
 2013TIP3    H227531   0.968   3.052  12.982  1.3675  1.1205 -0.5352
 2014TIP3   OH227532   2.280   4.668  11.783  0.6691  0.0319  0.4704
 2014TIP3    H127533   2.334   4.615  11.724 -2.6623 -2.2508 -0.8414
 2014TIP3    H227534   2.305   4.639  11.870  0.8734 -1.7694 -0.1264
 2015TIP3   OH227535   4.041   1.962  15.592  0.2832 -0.0293 -0.5794
 2015TIP3    H127536   4.080   1.958  15.680  1.8971 -0.2057 -1.2592
 2015TIP3    H227537   3.996   2.046  15.590 -0.8294 -0.5510  0.8133
 2016TIP3   OH227538   2.507   3.793   2.105 -0.3162 -0.0744  0.2734
 2016TIP3    H127539   2.498   3.725   2.172  0.0706  0.1705  0.5746
 2016TIP3    H227540   2.487   3.875   2.151 -0.8224  0.0162 -0.0973
 2017TIP3   OH227541   6.266   6.592  11.505  0.5592  0.4217 -0.2427
 2017TIP3    H127542   6.240   6.505  11.473  2.4282 -0.0433 -0.6059
 2017TIP3    H227543   6.277   6.645  11.426 -0.1981  0.8937 -0.0416
 2018TIP3   OH227544   3.400   1.905   3.265  0.7751  0.0377 -0.0368
 2018TIP3    H127545   3.324   1.914   3.323  0.0038  1.1748 -1.1736
 2018TIP3    H227546   3.377   1.833   3.206 -0.4742  1.8002 -1.8332
 2019TIP3   OH227547   6.637   1.131  12.870  0.5337 -0.0105 -0.1289
 2019TIP3    H127548   6.580   1.063  12.905  0.8767 -1.0976 -1.5961
 2019TIP3    H227549   6.598   1.213  12.900 -0.4006 -0.8119  0.9223
 2020TIP3   OH227550   5.426   1.196   5.128 -0.1777  0.1097 -0.3154
 2020TIP3    H127551   5.493   1.133   5.152  0.2623  0.4028 -0.7632
 2020TIP3    H227552   5.372   1.150   5.063  0.2314  0.2392 -0.7534
 2021TIP3   OH227553   0.053   2.348   4.090 -0.0148  0.2419 -0.0556
 2021TIP3    H127554   0.005   2.431   4.088  0.0201  0.2959  0.8317
 2021TIP3    H227555  -0.003   2.286   4.045 -0.4662  0.5333  0.1009
 2022TIP3   OH227556   1.594   5.614   0.571  0.6651 -0.4685  0.1057
 2022TIP3    H127557   1.532   5.620   0.643 -1.0269  0.1480 -1.3364
 2022TIP3    H227558   1.546   5.645   0.494  1.4593 -3.5948 -1.8840
 2023TIP3   OH227559   6.258   3.663  13.470  0.3434  0.2357 -0.2509
 2023TIP3    H127560   6.188   3.726  13.486 -1.0315 -1.4896  0.7937
 2023TIP3    H227561   6.331   3.695  13.523 -1.1384 -0.3334  2.2487
 2024TIP3   OH227562   1.131   4.304   3.838  0.3367  0.4245  0.0782
 2024TIP3    H127563   1.168   4.320   3.751  0.2351  0.2565  0.0041
 2024TIP3    H227564   1.042   4.338   3.833  0.3719  0.5285  0.1558
 2025TIP3   OH227565   6.570   6.799  12.741 -0.2886  0.2357  0.0871
 2025TIP3    H127566   6.651   6.843  12.715 -0.5459  1.5122  1.3549
 2025TIP3    H227567   6.557   6.733  12.673  0.8555  1.1806 -1.1177
 2026TIP3   OH227568   0.374   4.890  16.943  0.3900 -0.1427 -0.5036
 2026TIP3    H127569   0.448   4.868  16.887  0.3885  1.4859 -1.2016
 2026TIP3    H227570   0.297   4.875  16.888  0.3896  1.4776 -1.0130
 2027TIP3   OH227571   2.977   1.056  16.611  0.2331  0.3772 -0.4452
 2027TIP3    H127572   2.977   1.020  16.522 -2.8869  1.1272 -0.8625
 2027TIP3    H227573   3.061   1.100  16.619  1.2319 -1.0178 -2.4404
 2028TIP3   OH227574   1.191   5.677  12.456 -0.5934 -0.0783 -0.5442
 2028TIP3    H127575   1.102   5.672  12.490 -0.0069  0.1805  1.1297
 2028TIP3    H227576   1.204   5.769  12.433  0.2330  0.5589  2.1949
 2029TIP3   OH227577   3.275   4.233  16.632 -0.2190 -0.5350 -0.4863
 2029TIP3    H127578   3.359   4.206  16.670  0.2641  1.3308 -0.1349
 2029TIP3    H227579   3.266   4.325  16.656 -1.6228 -0.2700 -1.8561
 2030TIP3   OH227580   0.981   5.641  10.747 -0.3814 -0.5368 -0.2493
 2030TIP3    H127581   0.894   5.603  10.742 -0.6450 -0.1006  0.8053
 2030TIP3    H227582   0.981   5.710  10.681 -0.8581 -0.4971 -0.2094
 2031TIP3   OH227583   5.719   4.781  11.141  0.3666  0.0629  0.2203
 2031TIP3    H127584   5.752   4.807  11.055 -0.2253  1.8575  0.4982
 2031TIP3    H227585   5.783   4.815  11.203  1.2332 -1.9344  0.5243
 2032TIP3   OH227586   4.248   3.477  13.100 -0.1309 -0.7274 -0.6049
 2032TIP3    H127587   4.173   3.522  13.062  0.1173 -1.6285 -2.2647
 2032TIP3    H227588   4.245   3.389  13.062  1.2754 -1.0412 -0.0475
 2033TIP3   OH227589   1.937   6.442  13.833 -0.2209  0.5415  0.7068
 2033TIP3    H127590   1.881   6.408  13.902  1.3100  0.5058  1.9836
 2033TIP3    H227591   1.952   6.368  13.774 -1.3009  0.4987  0.4639
 2034TIP3   OH227592   1.943   0.689  11.525  0.4571  0.3738 -0.0485
 2034TIP3    H127593   1.989   0.750  11.467 -0.4966  2.7629  1.5652
 2034TIP3    H227594   1.980   0.706  11.611  1.5930 -2.8611  0.2302
 2035TIP3   OH227595   2.295   6.060   4.101  0.0518  0.0186  0.3168
 2035TIP3    H127596   2.347   6.135   4.129  1.9316 -1.4514  0.9361
 2035TIP3    H227597   2.253   6.089   4.020 -1.0634  2.4558  1.6366
 2036TIP3   OH227598   6.668   3.437  14.521  0.4879 -0.3472 -0.9199
 2036TIP3    H127599   6.635   3.524  14.541 -0.1225 -0.5770 -0.9089
 2036TIP3    H227600   6.691   3.400  14.606 -0.0506 -0.5088 -0.8410
 2037TIP3   OH227601   4.196   1.514  17.026  0.7789  0.1165 -0.0758
 2037TIP3    H127602   4.208   1.451  17.097 -1.6520  0.6147  0.8466
 2037TIP3    H227603   4.102   1.526  17.020  1.0754  2.1808 -1.5847
 2038TIP3   OH227604   3.544   2.202  13.720 -0.1561  0.2926  0.2410
 2038TIP3    H127605   3.571   2.213  13.811 -0.0027 -0.3264  0.2748
 2038TIP3    H227606   3.598   2.263  13.671  0.1841  0.1974  0.4939
 2039TIP3   OH227607   4.400   0.529  12.023 -0.6765 -0.3623 -0.6641
 2039TIP3    H127608   4.407   0.449  12.076  0.9352  0.7551  0.9649
 2039TIP3    H227609   4.490   0.547  11.997 -1.0955  0.6423 -1.4540
 2040TIP3   OH227610   4.556   5.834  16.844  0.2081 -0.5423  0.3217
 2040TIP3    H127611   4.484   5.884  16.884  1.3148  0.7918  0.7423
 2040TIP3    H227612   4.605   5.799  16.918  1.7183  1.1417  0.1810
 2041TIP3   OH227613   4.485   6.092  13.933 -0.2711  0.1797  0.0733
 2041TIP3    H127614   4.549   6.029  13.967 -0.6652  0.5877  1.6785
 2041TIP3    H227615   4.408   6.039  13.913 -0.6582  0.1240  1.5629
 2042TIP3   OH227616   3.474   5.268   0.893 -0.9278  0.0863 -0.0987
 2042TIP3    H127617   3.401   5.330   0.898 -1.2253 -0.2782  0.1111
 2042TIP3    H227618   3.552   5.322   0.907 -0.9725  0.8400 -2.2621
 2043TIP3   OH227619   5.692   1.236   2.947  0.3381  0.2900 -0.0474
 2043TIP3    H127620   5.647   1.229   2.863  2.2107 -1.9685 -0.9817
 2043TIP3    H227621   5.655   1.166   3.001  0.6309  0.3507  0.2367
 2044TIP3   OH227622   5.467   3.816  11.664 -0.4120 -1.0067  0.0024
 2044TIP3    H127623   5.397   3.882  11.669  1.3089  0.8457  1.4394
 2044TIP3    H227624   5.428   3.743  11.616 -2.7968  0.5918 -0.6680
 2045TIP3   OH227625   6.026   3.835   5.460 -0.5811 -0.4530 -0.4918
 2045TIP3    H127626   5.983   3.786   5.529 -1.8865  1.8157  0.3877
 2045TIP3    H227627   6.009   3.784   5.380 -2.0814 -1.2858  0.3256
 2046TIP3   OH227628   0.019   1.845  15.902 -0.0928 -0.0191 -0.5542
 2046TIP3    H127629   0.026   1.914  15.836 -0.6946 -0.3540 -0.9881
 2046TIP3    H227630  -0.021   1.888  15.977  3.0962  1.0463  0.6704
 2047TIP3   OH227631   4.767   1.770   3.828 -0.1773 -0.4407  0.1769
 2047TIP3    H127632   4.799   1.802   3.912 -2.1538  0.8768  0.5057
 2047TIP3    H227633   4.820   1.693   3.809  1.7213  0.4323  1.6040
 2048TIP3   OH227634   1.901   0.913  14.853  0.7675 -0.5113 -0.4172
 2048TIP3    H127635   1.833   0.846  14.847  0.6441 -0.5237  0.8420
 2048TIP3    H227636   1.983   0.864  14.857  0.6991 -0.5794  0.1917
 2049TIP3   OH227637   3.157   2.497   0.838 -0.1328  0.0359  0.5095
 2049TIP3    H127638   3.098   2.422   0.831 -1.2669  0.8679  0.8317
 2049TIP3    H227639   3.099   2.572   0.845  0.9704  1.0310 -0.5182
 2050TIP3   OH227640   0.070   0.919   1.056 -0.2591 -0.3966  0.4449
 2050TIP3    H127641  -0.009   0.948   1.010 -0.0947 -0.9903 -0.2396
 2050TIP3    H227642   0.132   0.990   1.044  0.1183 -0.9367 -1.1590
 2051TIP3   OH227643   5.098   4.592   5.334  0.3112  0.2876  0.0891
 2051TIP3    H127644   5.068   4.517   5.385  0.1952 -0.4276 -1.0018
 2051TIP3    H227645   5.183   4.564   5.298 -0.4824  0.0024 -1.6850
 2052TIP3   OH227646   4.689   0.363  13.770 -0.3046  0.6631  0.2994
 2052TIP3    H127647   4.720   0.438  13.719 -2.5724  1.4100 -0.0933
 2052TIP3    H227648   4.594   0.363  13.758 -0.4134 -2.2362  0.3735
 2053TIP3   OH227649   0.535   6.052  10.551 -0.1872  0.2621 -0.4798
 2053TIP3    H127650   0.447   6.089  10.538 -0.3174  0.2242  0.2619
 2053TIP3    H227651   0.524   5.989  10.622  0.1637 -0.7664 -1.3050
 2054TIP3   OH227652   4.816   4.415  10.362 -0.3151  0.7875 -0.1559
 2054TIP3    H127653   4.804   4.348  10.429  0.1360  0.7094 -0.1532
 2054TIP3    H227654   4.728   4.430  10.328 -0.0576 -2.8235 -3.0525
 2055TIP3   OH227655   4.475   3.173   1.626 -0.2096  0.4570 -0.3946
 2055TIP3    H127656   4.413   3.117   1.579 -1.3723  0.7523  0.7184
 2055TIP3    H227657   4.482   3.251   1.571 -0.6473  0.3222 -0.6530
 2056TIP3   OH227658   5.122   6.431  17.101 -0.0722 -0.2904 -0.6625
 2056TIP3    H127659   5.213   6.412  17.126  0.8358  2.4440 -1.4861
 2056TIP3    H227660   5.099   6.508  17.152 -0.7566  0.9844 -2.7470
 2057TIP3   OH227661   1.163   5.426  16.224 -0.4418 -0.1311  0.1431
 2057TIP3    H127662   1.089   5.367  16.210 -0.1987 -0.7163  1.1667
 2057TIP3    H227663   1.124   5.513  16.229 -0.9230 -0.3111 -0.4344
 2058TIP3   OH227664   4.182   5.640  14.223 -0.4218  0.1449 -0.0461
 2058TIP3    H127665   4.113   5.599  14.276 -0.1141 -1.3296 -0.7436
 2058TIP3    H227666   4.251   5.661  14.285 -1.1410  0.8733  0.5309
 2059TIP3   OH227667   4.888   3.319  14.916 -0.3138 -0.1147  0.4568
 2059TIP3    H127668   4.884   3.398  14.971  2.1896 -0.1034  0.7638
 2059TIP3    H227669   4.870   3.247  14.977 -0.5800  0.0846  0.6175
 2060TIP3   OH227670   5.104   2.071  14.132  0.1544  0.8580  0.6377
 2060TIP3    H127671   5.060   2.131  14.072  1.2451  1.7619  0.7271
 2060TIP3    H227672   5.067   2.091  14.218 -1.1556 -0.2002  0.3541
 2061TIP3   OH227673   3.792   1.841   1.146  0.7361 -0.5063  0.4420
 2061TIP3    H127674   3.880   1.861   1.114  0.5209 -0.2343  0.0140
 2061TIP3    H227675   3.798   1.853   1.240  0.9060  0.4647  0.3129
 2062TIP3   OH227676   6.513   5.698   3.610 -0.0890  0.0395  0.6772
 2062TIP3    H127677   6.512   5.653   3.694 -0.1877 -1.1686  0.0530
 2062TIP3    H227678   6.457   5.775   3.623  1.6926  1.1425  2.3545
 2063TIP3   OH227679   1.033   1.695   2.281 -0.0815  0.3693  0.0558
 2063TIP3    H127680   1.068   1.655   2.202 -0.9277 -0.2213 -0.0239
 2063TIP3    H227681   0.949   1.732   2.255 -0.0261  0.8326  0.5076
 2064TIP3   OH227682   5.671   1.493  15.553  0.2287  0.8191  0.1285
 2064TIP3    H127683   5.675   1.398  15.565  0.5794  0.6177 -1.3101
 2064TIP3    H227684   5.751   1.526  15.595  0.1358  0.4822  0.5779
 2065TIP3   OH227685   0.258   0.513   4.226  0.2334 -0.3762 -0.3708
 2065TIP3    H127686   0.179   0.464   4.204 -0.0797  0.5116 -1.3035
 2065TIP3    H227687   0.232   0.605   4.220  0.8204 -0.0557  1.3010
 2066TIP3   OH227688   6.592   6.440   6.733  0.7395  0.5365  0.3411
 2066TIP3    H127689   6.535   6.513   6.709  1.2796  1.8845  2.8118
 2066TIP3    H227690   6.533   6.365   6.740 -0.2945  1.3152  0.2704
 2067TIP3   OH227691   3.907   4.928  10.427  0.1139 -0.0422 -0.0658
 2067TIP3    H127692   3.905   4.953  10.519 -2.4365  2.0066 -0.5645
 2067TIP3    H227693   3.827   4.876  10.414  0.5286 -0.4612 -1.0851
 2068TIP3   OH227694   2.996   1.122  12.556  0.3050 -0.1147  0.3707
 2068TIP3    H127695   3.001   1.217  12.551 -2.6977  0.0803 -1.1273
 2068TIP3    H227696   3.085   1.092  12.536  1.2910  2.3271  0.7456
 2069TIP3   OH227697   6.621   0.840   1.667  0.0491  0.9216  0.6817
 2069TIP3    H127698   6.590   0.860   1.579  0.8979 -1.8182 -0.3611
 2069TIP3    H227699   6.542   0.839   1.721 -0.8782  0.0579 -0.6358
 2070TIP3   OH227700   4.065   2.807  15.819  0.0450 -0.2159  0.3085
 2070TIP3    H127701   4.135   2.872  15.829  0.2198 -0.1491 -1.1190
 2070TIP3    H227702   3.988   2.848  15.858  0.5984  0.0697  1.1095
 2071TIP3   OH227703   5.736   4.189   4.075  0.1667 -0.3806 -0.1856
 2071TIP3    H127704   5.784   4.133   4.014 -1.1552 -0.2027 -1.4100
 2071TIP3    H227705   5.774   4.168   4.161  0.7912 -1.9630 -0.8217
 2072TIP3   OH227706   4.906   3.475   3.554 -0.2625  0.8249  0.6691
 2072TIP3    H127707   4.957   3.524   3.618 -0.2807  1.3461  0.2831
 2072TIP3    H227708   4.929   3.513   3.470 -0.3188  0.2107  0.3692
 2073TIP3   OH227709   0.402   2.635   5.608 -0.5616  0.0968 -0.1642
 2073TIP3    H127710   0.337   2.678   5.664 -0.0564  0.3332  0.2515
 2073TIP3    H227711   0.437   2.565   5.662 -1.8514 -1.2928 -1.0671
 2074TIP3   OH227712   0.893   2.015   2.512 -0.1279 -0.1870 -0.0152
 2074TIP3    H127713   0.802   1.986   2.499 -0.2925  0.6811 -0.9257
 2074TIP3    H227714   0.946   1.940   2.488 -0.6018 -0.5409  0.0278
 2075TIP3   OH227715   1.783   2.056   4.328 -0.0336  0.2006 -0.0436
 2075TIP3    H127716   1.781   2.001   4.249 -1.4396  1.0580 -0.6296
 2075TIP3    H227717   1.703   2.034   4.375 -0.0761  0.9806  0.2596
 2076TIP3   OH227718   4.794   2.592  11.238  0.2633 -0.2056  0.1783
 2076TIP3    H127719   4.770   2.683  11.221  1.5437  0.1462  0.1762
 2076TIP3    H227720   4.833   2.562  11.156  2.6637  0.2118  1.1071
 2077TIP3   OH227721   5.653   3.359   3.504 -0.0388 -0.2173  0.4611
 2077TIP3    H127722   5.625   3.343   3.594  0.9234  0.0007  0.8090
 2077TIP3    H227723   5.676   3.272   3.471 -2.0940 -0.5646 -0.1930
 2078TIP3   OH227724   1.966   5.463  13.603 -0.5486  0.0025 -0.2286
 2078TIP3    H127725   1.910   5.530  13.643  0.1358 -0.3432  1.3935
 2078TIP3    H227726   2.031   5.512  13.554 -0.1436  0.5333  0.8236
 2079TIP3   OH227727   5.914   2.429   3.361  0.3107 -0.2309 -0.3631
 2079TIP3    H127728   5.909   2.405   3.268  2.5242  0.0255 -0.6197
 2079TIP3    H227729   5.992   2.486   3.366  0.5593 -0.6771  1.7401
 2080TIP3   OH227730   4.548   0.316   0.089 -0.0542  0.2736  0.2963
 2080TIP3    H127731   4.455   0.304   0.105 -0.1264  2.1191  1.7057
 2080TIP3    H227732   4.585   0.331   0.177  1.6394 -0.7616 -0.1931
 2081TIP3   OH227733   2.002   3.545  14.757  0.4590  0.0784  0.3329
 2081TIP3    H127734   1.917   3.506  14.775  0.2390  0.8582  1.0304
 2081TIP3    H227735   2.005   3.555  14.662  0.3109 -1.1388  0.1868
 2082TIP3   OH227736   2.037   5.664  15.389 -0.0182 -0.3675  0.5012
 2082TIP3    H127737   2.127   5.636  15.370 -0.2155  0.1520 -1.3427
 2082TIP3    H227738   1.997   5.588  15.432  1.5082 -0.3283  2.0929
 2083TIP3   OH227739   1.451   5.112   2.743  0.3819 -0.1521 -0.2714
 2083TIP3    H127740   1.397   5.167   2.800  1.0454 -0.0428  0.2685
 2083TIP3    H227741   1.405   5.111   2.659 -0.0278  0.6100 -0.0605
 2084TIP3   OH227742   3.852   2.088  16.950 -0.6306 -0.4028 -0.0377
 2084TIP3    H127743   3.830   2.026  17.019 -1.6294 -0.8606 -0.7349
 2084TIP3    H227744   3.820   2.046  16.870 -3.7606  2.0962 -0.2938
 2085TIP3   OH227745   2.642   2.377   5.603 -0.3029 -0.1698 -0.3365
 2085TIP3    H127746   2.578   2.311   5.628 -0.6336 -0.1199 -1.0112
 2085TIP3    H227747   2.600   2.425   5.531  1.4181 -1.7024 -2.4979
 2086TIP3   OH227748   3.298   5.015  11.239  0.6057 -0.0676 -0.1179
 2086TIP3    H127749   3.255   5.003  11.323 -0.8094 -1.7466 -1.0181
 2086TIP3    H227750   3.343   4.932  11.222 -0.6637 -0.4602 -1.8242
 2087TIP3   OH227751   5.420   5.794   5.274  0.5856 -0.6101 -0.3825
 2087TIP3    H127752   5.490   5.845   5.314  0.1268  0.9042 -1.3982
 2087TIP3    H227753   5.369   5.761   5.347  0.4223  1.1198  0.3241
 2088TIP3   OH227754   0.444   2.800  14.285 -0.0596 -0.6382 -0.3884
 2088TIP3    H127755   0.491   2.882  14.269 -0.8611  0.1077  0.9031
 2088TIP3    H227756   0.417   2.805  14.377  2.6942 -3.8192  0.8076
 2089TIP3   OH227757   3.379   4.490  14.896 -0.4678  0.1956  0.0859
 2089TIP3    H127758   3.314   4.522  14.959  0.0404 -1.0345  1.2750
 2089TIP3    H227759   3.445   4.445  14.949 -0.1436 -1.0975 -1.3342
 2090TIP3   OH227760   4.191   3.208   5.354 -0.4436  0.0977  0.0371
 2090TIP3    H127761   4.262   3.272   5.349 -0.4000  0.1791  1.3199
 2090TIP3    H227762   4.191   3.166   5.268  0.3791  0.9089 -0.3864
 2091TIP3   OH227763   5.472   6.498  16.393 -0.3322  0.0077  0.5583
 2091TIP3    H127764   5.383   6.528  16.411 -0.0050  1.2035  0.2873
 2091TIP3    H227765   5.470   6.468  16.302 -0.7225 -1.0905  0.9091
 2092TIP3   OH227766   4.964   5.568  12.203  0.3498  0.4548 -0.0191
 2092TIP3    H127767   5.001   5.653  12.177 -0.9666  0.5338 -1.7805
 2092TIP3    H227768   4.990   5.508  12.133 -1.3187  0.1258 -0.3997
 2093TIP3   OH227769   5.743   3.237   1.266  0.1596  0.0455  0.3504
 2093TIP3    H127770   5.698   3.154   1.252  1.8781 -1.4074  2.6476
 2093TIP3    H227771   5.752   3.275   1.178 -2.4247 -1.1643 -0.5289
 2094TIP3   OH227772   3.351   6.215   2.630  0.2715  0.3188  0.3751
 2094TIP3    H127773   3.336   6.148   2.697 -1.3305  0.2188 -0.0545
 2094TIP3    H227774   3.328   6.297   2.673 -0.2515  0.3101  0.1159
 2095TIP3   OH227775   5.954   1.132  11.686 -0.1453  0.4841  0.0993
 2095TIP3    H127776   5.978   1.157  11.597  1.1872 -1.0913 -0.0182
 2095TIP3    H227777   5.864   1.100  11.678  0.6190 -1.5457 -1.1157
 2096TIP3   OH227778   1.018   5.228  14.037 -0.5357 -0.1767  0.1201
 2096TIP3    H127779   1.004   5.172  14.114  0.1098 -0.0623  0.3277
 2096TIP3    H227780   0.965   5.306  14.055 -0.6684 -0.3023  0.2832
 2097TIP3   OH227781   2.005   3.978  13.614 -0.0999  0.1556  0.3088
 2097TIP3    H127782   2.049   4.057  13.581 -1.2417  0.7300  0.0817
 2097TIP3    H227783   1.951   3.949  13.540  0.6288 -1.1014  0.2524
 2098TIP3   OH227784   4.583   5.737   2.925  0.1844 -0.7338  0.3977
 2098TIP3    H127785   4.535   5.753   2.844 -0.5655  0.9764  1.1443
 2098TIP3    H227786   4.590   5.822   2.967  1.3958 -1.4248  1.6962
 2099TIP3   OH227787   6.257   3.524  12.196  0.2213 -0.3362  0.6202
 2099TIP3    H127788   6.166   3.526  12.165  0.3514  3.3149  0.1024
 2099TIP3    H227789   6.261   3.590  12.265  2.7876  0.7965 -0.4861
 2100TIP3   OH227790   5.181   0.923   3.882  0.0090 -0.1351  0.2915
 2100TIP3    H127791   5.213   0.918   3.792 -1.1540 -0.3675 -0.1247
 2100TIP3    H227792   5.144   0.836   3.899 -1.4828  0.4755  0.3138
 2101TIP3   OH227793   4.489   4.473   3.464  0.5292 -0.5442 -0.2661
 2101TIP3    H127794   4.464   4.381   3.458 -0.3383 -0.2816 -0.8023
 2101TIP3    H227795   4.473   4.496   3.555  2.3051 -1.3392  0.2935
 2102TIP3   OH227796   1.822   4.673   3.990  0.7606 -0.4516  0.1470
 2102TIP3    H127797   1.753   4.620   4.028  0.3512  0.4129  0.6435
 2102TIP3    H227798   1.896   4.663   4.050 -0.1721  1.6450  1.7922
 2103TIP3   OH227799   0.398   6.146   5.464  0.2983  0.4790  0.1341
 2103TIP3    H127800   0.367   6.233   5.492  1.1529  0.2923  1.8131
 2103TIP3    H227801   0.333   6.085   5.500  0.8414  0.2972  0.8173
 2104TIP3   OH227802   5.642   0.384   5.371  0.7724  0.1402  0.3624
 2104TIP3    H127803   5.720   0.426   5.336  0.6254  3.0178  3.0572
 2104TIP3    H227804   5.577   0.392   5.302  1.8814  0.8598 -0.6382
 2105TIP3   OH227805   5.786   6.589   2.263 -0.1895 -0.0498  0.0152
 2105TIP3    H127806   5.712   6.612   2.206 -0.5363  0.5177  0.6770
 2105TIP3    H227807   5.841   6.667   2.264 -0.5550  0.2021  1.0195
 2106TIP3   OH227808   3.977   3.970  12.447  0.0387  0.1228 -0.2335
 2106TIP3    H127809   3.964   4.025  12.370  2.5892 -0.1366 -0.9402
 2106TIP3    H227810   3.994   4.032  12.518 -1.2016  0.3206 -0.0816
 2107TIP3   OH227811   3.304   6.060  15.454 -0.1628 -0.3053 -0.4312
 2107TIP3    H127812   3.338   5.985  15.404 -1.8484 -1.0253 -0.5843
 2107TIP3    H227813   3.235   6.096  15.398  0.8724  1.6364 -0.5199
 2108TIP3   OH227814   2.088   4.925   0.867  0.0710 -0.1866 -0.2112
 2108TIP3    H127815   2.006   4.969   0.845 -0.4072 -1.4520 -1.0748
 2108TIP3    H227816   2.066   4.869   0.942  0.0015 -0.9032 -0.7563
 2109TIP3   OH227817   4.643   4.952   1.649  0.2884 -0.5154 -0.3139
 2109TIP3    H127818   4.599   5.015   1.707  0.8648 -1.3566  1.1045
 2109TIP3    H227819   4.651   4.873   1.703  1.4363 -1.1256 -1.3417
 2110TIP3   OH227820   0.720   1.055  12.960  0.2497 -0.6913 -0.2607
 2110TIP3    H127821   0.814   1.067  12.957  0.2546 -0.1524  1.1820
 2110TIP3    H227822   0.686   1.136  12.999 -0.6356 -1.5177  0.7747
 2111TIP3   OH227823   1.827   1.486  16.163 -0.1981 -0.2008  0.7700
 2111TIP3    H127824   1.780   1.406  16.139 -1.0899  0.7404 -0.8262
 2111TIP3    H227825   1.763   1.537  16.213  0.2514 -0.3022  1.4674
 2112TIP3   OH227826   3.257   5.322  15.551  0.3482 -0.0958  0.1590
 2112TIP3    H127827   3.250   5.392  15.486  0.0666 -0.9735 -0.7747
 2112TIP3    H227828   3.277   5.368  15.633  0.2434  1.0671 -0.4429
 2113TIP3   OH227829   1.437   4.167  13.724 -0.0837 -0.3785  0.2363
 2113TIP3    H127830   1.526   4.202  13.727 -0.3605  0.6621 -1.8822
 2113TIP3    H227831   1.437   4.095  13.787  2.2065 -0.3012  0.3902
 2114TIP3   OH227832   0.115   4.525  15.306  0.1819  0.8858  0.2737
 2114TIP3    H127833   0.033   4.544  15.261  0.4865  0.2960 -0.5454
 2114TIP3    H227834   0.162   4.608  15.306  1.9099  0.1573 -4.1115
 2115TIP3   OH227835   2.501   4.902   4.665 -0.1423 -0.2512 -0.1304
 2115TIP3    H127836   2.437   4.842   4.629  1.7297 -2.8013  0.5383
 2115TIP3    H227837   2.471   4.920   4.754 -1.6257  1.2928 -0.8946
 2116TIP3   OH227838   1.595   5.154   3.181  0.4437  0.3311  0.4254
 2116TIP3    H127839   1.500   5.159   3.194  0.1661 -1.9043 -0.2742
 2116TIP3    H227840   1.617   5.237   3.139 -1.5816  0.0573 -1.3830
 2117TIP3   OH227841   3.231   2.080  15.487  0.0169 -0.0726 -0.4639
 2117TIP3    H127842   3.267   2.167  15.501  1.4958 -0.9552  1.7677
 2117TIP3    H227843   3.273   2.025  15.554 -0.6553 -2.5621 -1.9413
 2118TIP3   OH227844   0.020   2.419   2.290 -0.3103  0.3296 -0.1313
 2118TIP3    H127845   0.080   2.462   2.230 -0.5470 -0.0443 -0.6420
 2118TIP3    H227846   0.040   2.458   2.375  3.8120 -2.8151  0.6601
 2119TIP3   OH227847   3.215   5.183  13.697 -0.2426  0.0125 -0.1665
 2119TIP3    H127848   3.277   5.230  13.754  1.5124 -3.0116  0.6384
 2119TIP3    H227849   3.148   5.151  13.757  1.1869 -2.5007  0.2362
 2120TIP3   OH227850   5.672   0.408  11.435  0.1613 -0.4174  0.5102
 2120TIP3    H127851   5.702   0.318  11.448  3.9362  0.4119 -1.0209
 2120TIP3    H227852   5.621   0.404  11.354 -0.8366 -1.3325  1.1552
 2121TIP3   OH227853   3.021   0.156   1.327 -0.7001 -1.0185  0.0983
 2121TIP3    H127854   3.110   0.124   1.315  0.1209  1.1591 -0.2299
 2121TIP3    H227855   2.966   0.095   1.278  0.9051 -0.9883 -1.8720
 2122TIP3   OH227856   3.857   0.443   3.537  0.0319  0.2524  0.5970
 2122TIP3    H127857   3.924   0.506   3.562  2.6841 -2.3539  0.6153
 2122TIP3    H227858   3.784   0.459   3.597  2.0584  0.9550  3.0400
 2123TIP3   OH227859   0.316   1.668   0.967 -0.6115 -0.1136 -0.4441
 2123TIP3    H127860   0.400   1.623   0.957 -0.9297 -0.2596 -3.4672
 2123TIP3    H227861   0.340   1.760   0.983  0.1178 -0.2339 -0.8156
 2124TIP3   OH227862   3.969   5.342  16.057  0.2850  0.2067  0.0191
 2124TIP3    H127863   3.906   5.324  15.986 -1.9408  0.6945  1.7435
 2124TIP3    H227864   3.964   5.264  16.113  1.1581  0.3093  0.2494
 2125TIP3   OH227865   4.206   5.021   6.622  0.3521  0.7077  0.3511
 2125TIP3    H127866   4.241   5.101   6.661  0.8720  1.6309 -1.8478
 2125TIP3    H227867   4.111   5.032   6.625  0.3620  0.6053  1.5862
 2126TIP3   OH227868   2.173   1.274  15.872  0.2078 -0.3146 -0.1135
 2126TIP3    H127869   2.081   1.247  15.867  0.7447 -2.4625  0.5016
 2126TIP3    H227870   2.199   1.286  15.780  0.0138 -2.4539 -0.5077
 2127TIP3   OH227871   5.905   6.065  14.102  0.2835 -0.6035  0.2216
 2127TIP3    H127872   5.921   6.120  14.178  0.1957  0.0504 -0.2228
 2127TIP3    H227873   5.825   6.099  14.063 -0.0654 -1.3828  0.2280
 2128TIP3   OH227874   1.186   0.356   2.916  0.7648 -0.3749  0.3745
 2128TIP3    H127875   1.175   0.328   2.825 -0.7349 -0.4057  0.5372
 2128TIP3    H227876   1.281   0.353   2.931  1.2196  1.3338 -1.7081
 2129TIP3   OH227877   3.037   1.000   5.337 -0.1799 -0.4939  0.4748
 2129TIP3    H127878   3.083   1.043   5.266  2.2373 -1.0920  1.5931
 2129TIP3    H227879   3.014   1.071   5.397  0.4382 -0.3186  0.5114
 2130TIP3   OH227880   3.746   0.475   2.510  0.4726 -0.0870  0.0787
 2130TIP3    H127881   3.652   0.492   2.509  0.6065  0.8504  1.2996
 2130TIP3    H227882   3.761   0.428   2.592  1.1398  0.2383  0.1479
 2131TIP3   OH227883   6.284   0.358   0.424  0.9670  0.5315  0.1751
 2131TIP3    H127884   6.274   0.453   0.420 -0.3326  0.4530  0.8383
 2131TIP3    H227885   6.362   0.344   0.478  0.4191  1.2283  1.1705
 2132TIP3   OH227886   6.726   5.035   1.339 -0.1430  0.2015 -0.1462
 2132TIP3    H127887   6.639   5.046   1.378  0.6539 -1.5143  2.3799
 2132TIP3    H227888   6.737   4.940   1.332  1.8923  0.3314  0.5607
 2133TIP3   OH227889   2.234   5.435  15.973 -0.3961  0.6633 -0.2122
 2133TIP3    H127890   2.208   5.423  16.064  0.5814  0.3992  0.0459
 2133TIP3    H227891   2.211   5.526  15.953  2.8623  2.0270  1.5292
 2134TIP3   OH227892   4.850   5.506   5.789 -0.0159  0.4707 -0.1945
 2134TIP3    H127893   4.760   5.528   5.811 -0.3523  0.3652 -1.3974
 2134TIP3    H227894   4.876   5.442   5.855 -0.7034  0.7400  0.3526
 2135TIP3   OH227895   1.837   0.571   5.253  0.0364 -0.2845 -0.3633
 2135TIP3    H127896   1.795   0.649   5.216 -1.0174  0.2050  1.7263
 2135TIP3    H227897   1.802   0.499   5.202 -0.1673  0.4651 -1.3229
 2136TIP3   OH227898   3.272   0.825  12.200 -0.0102 -0.2301 -0.2669
 2136TIP3    H127899   3.358   0.819  12.159  0.7066 -1.5255  1.3131
 2136TIP3    H227900   3.253   0.735  12.228 -0.1784  0.6550  2.6983
 2137TIP3   OH227901   1.546   6.162  13.466  0.0772  0.6105  0.0468
 2137TIP3    H127902   1.469   6.139  13.414  0.5655  1.7974 -1.2569
 2137TIP3    H227903   1.561   6.086  13.522 -0.3230 -0.8338 -1.7272
 2138TIP3   OH227904   0.990   6.784   0.971  0.4694  0.0439  0.4767
 2138TIP3    H127905   0.955   6.773   1.059 -0.7091 -0.8061 -0.0704
 2138TIP3    H227906   1.085   6.789   0.984  0.3585 -0.6005  1.7514
 2139TIP3   OH227907   3.629   5.072   4.754 -0.4023 -0.1530 -0.6532
 2139TIP3    H127908   3.572   5.149   4.753 -0.3392 -0.0478  0.8801
 2139TIP3    H227909   3.702   5.095   4.697  0.0314  1.2818  0.4280
 2140TIP3   OH227910   0.974   5.005  12.416  0.4685 -0.5254  0.1625
 2140TIP3    H127911   0.974   5.052  12.500 -2.1624 -0.6185  0.3151
 2140TIP3    H227912   0.955   4.914  12.439  0.4872 -0.6919 -0.4652
 2141TIP3   OH227913   1.149   0.416  16.501  0.5172 -0.0539 -0.3811
 2141TIP3    H127914   1.069   0.367  16.524  1.0673  0.5286  3.5200
 2141TIP3    H227915   1.116   0.498  16.464 -0.6110 -0.6973 -0.8697
 2142TIP3   OH227916   1.899   2.389   0.843 -0.0518  0.0183  0.0353
 2142TIP3    H127917   1.882   2.349   0.928 -0.6326 -0.2739 -0.2078
 2142TIP3    H227918   1.979   2.439   0.855 -0.3461  0.3107  0.8615
 2143TIP3   OH227919   1.484   0.024   5.170 -0.0148  0.3239 -0.2314
 2143TIP3    H127920   1.397   0.061   5.178  0.9082  2.2010  3.2744
 2143TIP3    H227921   1.526   0.075   5.101 -0.4385  2.3997  0.9680
 2144TIP3   OH227922   4.885   4.616  10.574 -0.1421 -0.2286 -0.3280
 2144TIP3    H127923   4.902   4.602  10.481 -0.1460 -0.0982 -0.3486
 2144TIP3    H227924   4.794   4.587  10.586  0.2974 -1.5731 -0.0796
 2145TIP3   OH227925   5.891   5.523  10.372 -0.6341 -0.3003  0.7644
 2145TIP3    H127926   5.826   5.453  10.382 -0.4891 -0.4696  0.5642
 2145TIP3    H227927   5.922   5.513  10.281 -0.4638 -0.1063  0.8006
 2146TIP3   OH227928   2.985   2.770  16.225  0.5416  0.5033 -0.0623
 2146TIP3    H127929   3.007   2.680  16.200  1.7777  0.8638 -0.3490
 2146TIP3    H227930   3.066   2.805  16.263 -0.0436  1.3658  0.4376
 2147TIP3   OH227931   5.053   6.655   0.048 -0.4082  0.0523  0.0910
 2147TIP3    H127932   5.073   6.747   0.063 -0.0438 -0.1349  0.7672
 2147TIP3    H227933   4.976   6.638   0.101 -0.4777 -0.0358 -0.0373
 2148TIP3   OH227934   2.688   1.188  13.085 -0.0268 -0.2508 -0.2395
 2148TIP3    H127935   2.654   1.145  13.163 -0.4926 -1.3376 -1.0173
 2148TIP3    H227936   2.759   1.244  13.118 -0.3483 -0.5273  0.9782
 2149TIP3   OH227937   1.569   5.859   4.108 -0.6993  0.0650  0.2141
 2149TIP3    H127938   1.520   5.777   4.100  0.2600 -0.5004  0.0613
 2149TIP3    H227939   1.634   5.856   4.037  1.9360 -0.8762  2.4880
 2150TIP3   OH227940   3.353   0.688   4.314 -0.0153 -0.3856 -0.6378
 2150TIP3    H127941   3.326   0.654   4.399  1.2680 -1.8957 -0.7868
 2150TIP3    H227942   3.401   0.768   4.335  0.2152 -0.6959  0.0582
 2151TIP3   OH227943   1.750   1.084   2.957 -0.0570 -0.7646 -0.1511
 2151TIP3    H127944   1.779   1.020   3.023 -0.8169  1.2678  2.3270
 2151TIP3    H227945   1.666   1.051   2.927  0.1377 -1.5599  0.1365
 2152TIP3   OH227946   3.813   0.240  12.959 -0.2331  1.1854 -0.1421
 2152TIP3    H127947   3.751   0.226  12.887  0.1660  0.4011 -0.3481
 2152TIP3    H227948   3.881   0.174  12.945 -0.0260  1.1756  0.8225
 2153TIP3   OH227949   6.124   4.182   5.771 -0.7832  0.3941  0.1581
 2153TIP3    H127950   6.142   4.259   5.825 -0.4099 -0.3756  1.1808
 2153TIP3    H227951   6.202   4.127   5.782 -0.9530 -0.0445 -0.7251
 2154TIP3   OH227952   5.796   5.027  10.309  0.3944  0.4078  0.0895
 2154TIP3    H127953   5.778   4.966  10.237 -0.6572 -1.1996  1.6315
 2154TIP3    H227954   5.741   5.103  10.290  0.8457  0.4271 -1.2668
 2155TIP3   OH227955   1.510   6.399  14.063 -0.3623 -0.0932 -0.1553
 2155TIP3    H127956   1.514   6.445  14.146 -1.4029 -1.3053  0.6053
 2155TIP3    H227957   1.495   6.468  13.998  0.5947  0.8752  0.6199
 2156TIP3   OH227958   1.305   2.447   1.311  0.2902 -0.1410  0.0207
 2156TIP3    H127959   1.331   2.521   1.365 -1.5232  0.8573 -0.3836
 2156TIP3    H227960   1.251   2.392   1.368 -2.0842  1.1952 -0.8259
 2157TIP3   OH227961   5.552   6.405  16.782 -0.1735  0.0047  0.1427
 2157TIP3    H127962   5.570   6.377  16.872 -1.8063  0.3316  0.5938
 2157TIP3    H227963   5.457   6.395  16.772 -0.2059  1.3000 -1.0813
 2158TIP3   OH227964   0.694   5.573  16.137 -0.1200 -0.6778  0.3085
 2158TIP3    H127965   0.601   5.592  16.126 -0.0293 -0.8492 -0.8142
 2158TIP3    H227966   0.739   5.644  16.091  0.2721 -1.4388 -0.5009
 2159TIP3   OH227967   0.095   3.368  14.794  0.0083 -0.2266  0.0249
 2159TIP3    H127968   0.008   3.329  14.790 -0.2698  0.2739  1.0276
 2159TIP3    H227969   0.113   3.395  14.703 -0.2413 -1.6602 -0.4686
 2160TIP3   OH227970   1.775   1.365   0.927  0.1579 -0.5644 -0.1892
 2160TIP3    H127971   1.859   1.411   0.929 -0.2812  0.3868 -1.6896
 2160TIP3    H227972   1.796   1.277   0.895  0.8868 -1.1860  1.8582
 2161TIP3   OH227973   4.535   0.958  12.847  0.0068 -0.2969  0.8343
 2161TIP3    H127974   4.588   0.879  12.841  2.4711  1.2862  0.5169
 2161TIP3    H227975   4.444   0.926  12.848  0.8255 -3.0014 -1.1106
 2162TIP3   OH227976   0.114   4.591   5.806  0.2677  0.3586  0.6311
 2162TIP3    H127977   0.126   4.602   5.712 -0.9425  0.4510  0.4640
 2162TIP3    H227978   0.030   4.546   5.814 -0.1641  1.2991  1.6904
 2163TIP3   OH227979   2.494   3.336   2.499 -0.3899  0.0309  0.1025
 2163TIP3    H127980   2.577   3.307   2.536  0.8056  1.5983 -1.1999
 2163TIP3    H227981   2.506   3.429   2.482 -1.8077 -0.0361 -1.6381
 2164TIP3   OH227982   3.732   5.642  16.024 -0.8881  0.0539 -0.2908
 2164TIP3    H127983   3.802   5.649  16.089 -0.9316 -0.3366 -0.2037
 2164TIP3    H227984   3.684   5.724  16.033  0.3045  0.8976 -1.2176
 2165TIP3   OH227985   6.418   4.036   5.400  0.1243 -0.6323 -0.1077
 2165TIP3    H127986   6.387   3.986   5.325  1.1759 -0.1227 -0.9172
 2165TIP3    H227987   6.513   4.040   5.388  0.0762  1.6388 -0.1584
 2166TIP3   OH227988   0.786   1.470   2.167 -0.4994  0.0006  0.3445
 2166TIP3    H127989   0.873   1.471   2.207  0.1643 -2.1769 -0.8554
 2166TIP3    H227990   0.755   1.561   2.173  0.5031  0.2302  3.5697
 2167TIP3   OH227991   6.727   1.930  11.377  0.6555 -0.2717 -0.1208
 2167TIP3    H127992   6.811   1.910  11.419 -0.6773 -1.6694  2.0471
 2167TIP3    H227993   6.689   1.844  11.358 -0.2410  0.3440 -1.2348
 2168TIP3   OH227994   1.430   4.241  17.081  0.5841  0.3729  0.3368
 2168TIP3    H127995   1.417   4.322  17.130 -1.6440  0.3847 -0.1830
 2168TIP3    H227996   1.441   4.174  17.149  3.0955  1.1098  0.7743
 2169TIP3   OH227997   6.055   6.763  14.468 -0.6807 -0.0747 -0.1659
 2169TIP3    H127998   6.002   6.842  14.464 -1.3267 -0.3676  1.5479
 2169TIP3    H227999   6.144   6.794  14.487 -0.3943  0.3521 -2.0144
 2170TIP3   OH228000   3.498   1.924  12.285  0.0431  0.0821  0.2406
 2170TIP3    H128001   3.438   1.877  12.227 -0.3309  2.5225 -1.4754
 2170TIP3    H228002   3.463   2.013  12.289  3.3084  1.5686 -0.6283
 2171TIP3   OH228003   6.656   3.757   4.730 -0.3085 -0.1043  0.0258
 2171TIP3    H128004   6.664   3.766   4.635 -2.2125  2.0378 -0.0252
 2171TIP3    H228005   6.601   3.831   4.756 -0.6861 -1.2202  2.6856
 2172TIP3   OH228006   1.153   5.899  13.553 -0.3960  0.4304  0.3980
 2172TIP3    H128007   1.180   5.938  13.470 -1.4849  0.6440  0.1178
 2172TIP3    H228008   1.133   5.808  13.531 -1.4618  0.6893  0.2336
 2173TIP3   OH228009   1.570   2.697  11.195  0.4397  0.1901 -0.3781
 2173TIP3    H128010   1.528   2.765  11.143  1.2172  0.2010 -1.0086
 2173TIP3    H228011   1.629   2.745  11.254  0.6699  0.0888 -0.5248
 2174TIP3   OH228012   5.300   1.126   2.207  0.0785 -0.7616 -0.8758
 2174TIP3    H128013   5.211   1.143   2.239  0.4398 -0.2420 -0.1186
 2174TIP3    H228014   5.317   1.035   2.232  0.5195 -0.2443  0.9015
 2175TIP3   OH228015   5.787   5.101   5.749 -0.1346  0.1547 -0.0236
 2175TIP3    H128016   5.821   5.179   5.704 -0.5053  0.0743 -0.4573
 2175TIP3    H228017   5.864   5.062   5.791 -0.0478  1.0830  0.7061
 2176TIP3   OH228018   1.425   3.975  13.930 -0.0381  0.4301  0.4355
 2176TIP3    H128019   1.492   3.993  13.996  0.0606 -1.1369  0.8093
 2176TIP3    H228020   1.358   3.926  13.978 -0.6664  0.5440 -0.3125
 2177TIP3   OH228021   0.817   2.212   6.014  0.1595  0.1960 -0.1355
 2177TIP3    H128022   0.831   2.191   6.107  0.1899 -0.8132 -0.3577
 2177TIP3    H228023   0.820   2.127   5.970  0.1011  0.6686 -1.0593
 2178TIP3   OH228024   4.329   4.110  13.104  0.0571  0.1725  0.7833
 2178TIP3    H128025   4.410   4.094  13.154  0.9510 -1.1172 -0.9736
 2178TIP3    H228026   4.290   4.024  13.093 -1.7536  0.8050  1.8192
 2179TIP3   OH228027   6.798   4.417   1.529  0.4391  0.5883  0.1049
 2179TIP3    H128028   6.833   4.328   1.528  0.5584  0.6243  0.9059
 2179TIP3    H228029   6.820   4.452   1.443 -0.7223 -0.5749 -0.7106
 2180TIP3   OH228030   6.583   6.407   0.942 -0.1526 -0.3842 -0.3449
 2180TIP3    H128031   6.623   6.492   0.926 -0.3461 -0.5648 -1.8879
 2180TIP3    H228032   6.491   6.418   0.918 -0.2163 -0.9874 -0.4039
 2181TIP3   OH228033   1.954   1.662   3.457  0.0940  0.1507 -0.3954
 2181TIP3    H128034   1.913   1.682   3.541  0.8949  0.4418 -0.0601
 2181TIP3    H228035   1.961   1.747   3.413 -0.9763 -0.1006 -1.0673
 2182TIP3   OH228036   1.685   3.962   1.621  0.3710 -0.3781  0.6395
 2182TIP3    H128037   1.701   3.940   1.529 -1.6146 -1.5587  0.5137
 2182TIP3    H228038   1.634   4.043   1.618  0.3671 -0.3781  0.7010
 2183TIP3   OH228039   3.748   3.876   0.497 -0.4989 -0.3324 -0.1004
 2183TIP3    H128040   3.695   3.851   0.573  0.1751  2.0979  1.2648
 2183TIP3    H228041   3.813   3.806   0.489 -0.5202 -0.5985  1.6539
 2184TIP3   OH228042   3.485   3.205  15.371  0.1448 -0.5587  0.4947
 2184TIP3    H128043   3.476   3.221  15.277  1.1105  0.3388  0.5467
 2184TIP3    H228044   3.395   3.198  15.402 -0.1934 -0.4664 -0.4322
 2185TIP3   OH228045   6.772   0.772  14.255  0.4093 -0.3253  0.0482
 2185TIP3    H128046   6.742   0.852  14.213 -0.8470 -0.6530  0.2767
 2185TIP3    H228047   6.774   0.792  14.348 -0.7402 -0.7842  0.1934
 2186TIP3   OH228048   0.392   1.778  16.558 -0.5678 -0.1637  0.4043
 2186TIP3    H128049   0.374   1.791  16.465  1.2729 -0.0670  0.0356
 2186TIP3    H228050   0.482   1.807  16.570 -0.5112 -0.9036  2.0720
 2187TIP3   OH228051   5.123   1.863   5.026 -0.0548  0.3046  0.2063
 2187TIP3    H128052   5.172   1.894   4.950 -1.0438 -0.4216 -0.7724
 2187TIP3    H228053   5.165   1.780   5.049 -1.1071 -0.5867 -0.9681
 2188TIP3   OH228054   4.912   2.896   2.506  0.0697  0.3238  0.8959
 2188TIP3    H128055   4.957   2.834   2.563  1.1610  1.0204  0.8198
 2188TIP3    H228056   4.938   2.983   2.538  0.3710  0.7306 -0.3711
 2189TIP3   OH228057   3.320   5.184  11.931 -0.3094  0.5648 -0.1317
 2189TIP3    H128058   3.255   5.119  11.960 -0.0656 -0.9758 -2.7101
 2189TIP3    H228059   3.269   5.254  11.891 -0.5354 -0.9768 -2.8084
 2190TIP3   OH228060   5.699   0.341   6.409 -0.0034 -0.2618 -0.2896
 2190TIP3    H128061   5.624   0.286   6.433 -1.6830  1.0031 -2.2097
 2190TIP3    H228062   5.760   0.281   6.366 -1.0295 -0.9369 -0.8444
 2191TIP3   OH228063   3.087   4.764  12.088  0.1545 -0.0099 -0.0364
 2191TIP3    H128064   3.004   4.755  12.040  0.6031  1.1275 -1.0776
 2191TIP3    H228065   3.064   4.748  12.179 -0.6010 -2.9536 -0.6586
 2192TIP3   OH228066   2.920   1.795   5.596 -0.7709  0.3566  0.4189
 2192TIP3    H128067   2.865   1.863   5.635 -0.2879  0.4921  0.8834
 2192TIP3    H228068   2.859   1.732   5.559 -1.2302  0.9176  0.2100
 2193TIP3   OH228069   5.364   3.949   0.725 -0.3024  0.4672  0.3785
 2193TIP3    H128070   5.399   4.038   0.729  1.0128 -0.0551  3.0808
 2193TIP3    H228071   5.435   3.894   0.760 -2.0857 -1.2705  1.5228
 2194TIP3   OH228072   3.545   5.026  14.148  0.5012  0.4786 -0.7051
 2194TIP3    H128073   3.624   4.990  14.190 -1.3284 -1.3076  1.4407
 2194TIP3    H228074   3.523   4.962  14.081 -1.8604 -1.9298  2.0798
 2195TIP3   OH228075   3.169   5.164   6.041  0.8451 -0.5334  0.0094
 2195TIP3    H128076   3.237   5.225   6.015  1.7335 -1.0594  1.0444
 2195TIP3    H228077   3.175   5.092   5.978  0.0060  0.2617 -1.0159
 2196TIP3   OH228078   5.650   5.582   5.295 -0.1786  0.6770 -0.1794
 2196TIP3    H128079   5.627   5.566   5.386 -0.0893  0.8196 -0.1323
 2196TIP3    H228080   5.581   5.539   5.245 -0.1283  0.4411 -0.0475
 2197TIP3   OH228081   3.259   6.337   2.406 -0.3415 -0.2459  0.2492
 2197TIP3    H128082   3.311   6.414   2.427 -0.8456  0.2138 -0.1678
 2197TIP3    H228083   3.291   6.269   2.466  0.3027  0.2009  0.4200
 2198TIP3   OH228084   0.638   5.749   1.930 -0.1896 -0.4050 -0.4761
 2198TIP3    H128085   0.576   5.718   1.864  0.0160  1.3003 -1.5504
 2198TIP3    H228086   0.723   5.742   1.887  0.2750 -1.7423  0.6093
 2199TIP3   OH228087   5.297   3.842  14.125 -0.0630 -0.7793  0.3795
 2199TIP3    H128088   5.339   3.847  14.040 -0.7227 -2.9567 -0.1273
 2199TIP3    H228089   5.245   3.761  14.122  1.3759 -1.9695  3.5089
 2200TIP3   OH228090   2.184   2.924   1.979 -0.0696  0.0746  0.1294
 2200TIP3    H128091   2.218   2.958   1.896  3.0474 -0.5505  1.0376
 2200TIP3    H228092   2.190   2.829   1.970  1.0256  0.0145  1.3091
 2201TIP3   OH228093   1.384   6.760   2.016  0.3763  0.1870  0.3268
 2201TIP3    H128094   1.434   6.686   1.983  0.2972  0.1537  0.2809
 2201TIP3    H228095   1.311   6.769   1.955  0.6001  0.5494  0.1106
 2202TIP3   OH228096   4.535   1.359  11.953 -0.4293  0.3949  0.5176
 2202TIP3    H128097   4.503   1.443  11.988 -1.5265  0.7334 -1.1787
 2202TIP3    H228098   4.579   1.318  12.027 -0.4749  2.1628  1.5937
 2203TIP3   OH228099   4.336   4.615  14.754 -0.5151  0.3331 -0.3464
 2203TIP3    H128100   4.294   4.530  14.756  0.9007 -0.3766  0.9606
 2203TIP3    H228101   4.400   4.609  14.682 -0.6587  0.4234 -0.4831
 2204TIP3   OH228102   1.388   6.697   3.336  0.0020 -0.7145  0.5564
 2204TIP3    H128103   1.436   6.693   3.419 -0.4158 -1.3470  0.7779
 2204TIP3    H228104   1.453   6.726   3.272  0.4852 -0.8252  0.9885
 2205TIP3   OH228105   1.017   0.762   4.863  0.2653 -0.3570 -0.2277
 2205TIP3    H128106   1.082   0.804   4.807  0.2081  0.8279  0.5670
 2205TIP3    H228107   0.963   0.833   4.895  1.4408 -0.6647  2.8253
 2206TIP3   OH228108   0.333   3.583  15.488 -0.4994  0.8396  0.1302
 2206TIP3    H128109   0.258   3.527  15.466 -0.2184  0.6591 -0.3998
 2206TIP3    H228110   0.391   3.527  15.539 -1.1679  1.2689  1.3956
 2207TIP3   OH228111   5.983   5.039   1.476  0.3435  0.0022 -0.5417
 2207TIP3    H128112   5.985   4.987   1.556  0.0602  0.9869  0.1202
 2207TIP3    H228113   5.905   5.094   1.484  0.2366  0.0275 -1.5532
 2208TIP3   OH228114   3.687   1.443  14.366  0.5714  0.1928 -0.3595
 2208TIP3    H128115   3.678   1.506  14.437  0.1326 -0.7942  0.4799
 2208TIP3    H228116   3.763   1.474  14.316  0.6599  1.1013  0.3174
 2209TIP3   OH228117   1.308   5.912   0.842  0.3332 -0.6681  0.6214
 2209TIP3    H128118   1.348   5.946   0.922 -1.1343 -1.6326  1.8169
 2209TIP3    H228119   1.231   5.967   0.828  0.6336 -0.4371 -0.2166
 2210TIP3   OH228120   2.740   4.939  10.639  0.0545  0.8095 -0.1402
 2210TIP3    H128121   2.774   4.877  10.575 -0.5720 -0.7797  0.9874
 2210TIP3    H228122   2.752   4.895  10.723 -1.4029  1.7452  0.6087
 2211TIP3   OH228123   0.033   0.117  16.645  0.1395  0.2788  0.5375
 2211TIP3    H128124   0.022   0.139  16.738  1.1007 -1.4173  1.1197
 2211TIP3    H228125   0.120   0.149  16.623  0.3165 -0.1935  0.5263
 2212TIP3   OH228126   5.839   3.592   3.175  0.2288 -0.0336  0.4532
 2212TIP3    H128127   5.897   3.518   3.159  1.0249  0.7323 -0.3656
 2212TIP3    H228128   5.802   3.576   3.262 -0.8535 -2.1702 -0.3261
 2213TIP3   OH228129   6.072   6.840   0.195 -0.0134 -0.5922  0.2349
 2213TIP3    H128130   6.063   6.897   0.118  1.6485  0.8056  0.9965
 2213TIP3    H228131   6.106   6.758   0.160 -2.2295 -1.1308 -0.8601
 2214TIP3   OH228132   3.137   6.469  12.917  0.7417 -0.3827  0.2002
 2214TIP3    H128133   3.046   6.490  12.940  0.7175  0.6508 -0.7236
 2214TIP3    H228134   3.181   6.458  13.001 -0.3998 -1.7143  0.6560
 2215TIP3   OH228135   0.336   1.343  15.855 -0.5639  0.2850 -0.4124
 2215TIP3    H128136   0.336   1.323  15.949  1.3450 -1.7043 -0.7437
 2215TIP3    H228137   0.404   1.409  15.845 -2.1196  1.9983 -0.2126
 2216TIP3   OH228138   0.694   1.924   3.633 -0.3005 -0.5084  0.7348
 2216TIP3    H128139   0.649   1.963   3.708 -2.4484 -1.3454 -0.0744
 2216TIP3    H228140   0.732   1.843   3.668 -0.8787 -0.6599  1.0165
 2217TIP3   OH228141   4.913   1.234  17.191  1.0386 -0.3830 -0.0051
 2217TIP3    H128142   4.928   1.142  17.210  1.6562 -0.2602  0.1283
 2217TIP3    H228143   4.943   1.280  17.269 -1.6020 -0.1980  0.9949
 2218TIP3   OH228144   1.919   1.054  17.090  0.5600  0.1557  0.0568
 2218TIP3    H128145   1.970   1.087  17.016 -0.4481  1.7954  0.0523
 2218TIP3    H228146   1.846   1.114  17.098  0.7930  0.2143  2.5758
 2219TIP3   OH228147   5.493   3.843  13.811  0.1577  0.4246  0.0027
 2219TIP3    H128148   5.405   3.860  13.777  0.3709 -0.7966 -1.2281
 2219TIP3    H228149   5.552   3.881  13.746  0.5517 -0.1049  0.0419
 2220TIP3   OH228150   4.242   3.067   6.239  0.2970  0.2926  0.1723
 2220TIP3    H128151   4.185   3.113   6.301  0.7492  0.1389  0.7086
 2220TIP3    H228152   4.331   3.086   6.270  0.5970  1.2568 -1.1470
 2221TIP3   OH228153   4.649   6.669   4.035 -0.4318  0.2096 -0.2013
 2221TIP3    H128154   4.658   6.699   3.944 -1.1776  0.9742 -0.0360
 2221TIP3    H228155   4.702   6.729   4.086 -0.5441  0.1842 -0.0535
 2222TIP3   OH228156   6.671   2.220  16.388 -0.0031 -0.3669  0.0624
 2222TIP3    H128157   6.754   2.266  16.380 -0.6419  0.6738 -0.8698
 2222TIP3    H228158   6.643   2.238  16.478 -0.4393  1.4772 -0.4017
 2223TIP3   OH228159   5.995   0.339  16.932 -0.1328 -0.6806  0.2386
 2223TIP3    H128160   6.007   0.425  16.891  1.1714 -0.8198  0.3013
 2223TIP3    H228161   5.980   0.279  16.858  0.1639 -0.6006  0.1147
 2224TIP3   OH228162   5.360   1.475  11.452 -0.0793 -0.0646 -0.4371
 2224TIP3    H128163   5.406   1.474  11.368  1.4149 -1.6739  0.3500
 2224TIP3    H228164   5.292   1.409  11.443  0.0326 -0.1845 -0.3955
 2225TIP3   OH228165   4.790   3.897   0.701 -0.5939 -0.0340 -0.5291
 2225TIP3    H128166   4.787   3.959   0.775 -0.0278 -0.8349  0.1900
 2225TIP3    H228167   4.809   3.952   0.625 -3.5256  1.1566 -0.5150
 2226TIP3   OH228168   5.114   4.065   0.673  0.6135  0.3214  0.0173
 2226TIP3    H128169   5.184   4.010   0.707 -0.4215 -2.1326 -1.5310
 2226TIP3    H228170   5.038   4.043   0.727  0.5784  1.5473  0.4845
 2227TIP3   OH228171   1.917   2.551   2.119  0.1411 -0.7472 -0.6824
 2227TIP3    H128172   1.988   2.585   2.065  0.0962 -2.2514 -1.7624
 2227TIP3    H228173   1.901   2.619   2.184  1.5878  0.2369 -1.3090
 2228TIP3   OH228174   6.794   0.309  12.303 -0.2452  0.4088  0.8326
 2228TIP3    H128175   6.863   0.310  12.236 -0.5949  0.1795  0.4727
 2228TIP3    H228176   6.720   0.353  12.262  0.0450  1.7125  1.6136
 2229TIP3   OH228177   4.652   5.257  16.818  0.2559 -0.1980  0.0895
 2229TIP3    H128178   4.599   5.320  16.769  3.2041  2.7077  0.2337
 2229TIP3    H228179   4.612   5.253  16.905 -3.0198 -2.7712 -1.3164
 2230TIP3   OH228180   5.561   0.407  12.782  0.1967 -0.4470  0.3879
 2230TIP3    H128181   5.528   0.317  12.782  0.0868 -0.4465 -1.2354
 2230TIP3    H228182   5.656   0.397  12.775  0.4552 -0.4278  3.0568
 2231TIP3   OH228183   1.903   0.602  16.658 -0.1776  0.5934  0.1916
 2231TIP3    H128184   1.869   0.597  16.569  0.4411 -0.7947  0.0133
 2231TIP3    H228185   1.847   0.667  16.701 -1.1394  0.5311 -0.9099
 2232TIP3   OH228186   4.044   6.787  15.931  1.2830 -0.2903 -0.2476
 2232TIP3    H128187   4.128   6.827  15.909  0.7585  1.6106  0.9908
 2232TIP3    H228188   3.999   6.777  15.847  2.7442 -1.4439 -0.9433
 2233TIP3   OH228189   6.509   1.815  12.759 -0.0010  0.7271 -0.0068
 2233TIP3    H128190   6.554   1.762  12.825  1.9913  0.6948 -1.3079
 2233TIP3    H228191   6.434   1.761  12.732  1.4214 -1.0376 -0.6061
 2234TIP3   OH228192   6.459   5.721   1.705  0.2834  0.4194 -0.1478
 2234TIP3    H128193   6.483   5.721   1.612 -0.2041 -2.6850 -0.3718
 2234TIP3    H228194   6.375   5.768   1.707  0.1144  0.2165 -1.3396
 2235TIP3   OH228195   2.627   5.296  13.460 -0.1250  0.0228 -0.2776
 2235TIP3    H128196   2.647   5.278  13.368  0.6077  1.6409 -0.4814
 2235TIP3    H228197   2.536   5.326  13.459  0.4680  1.9598 -0.8219
 2236TIP3   OH228198   2.330   4.844  13.488  0.5362  0.3563  0.3599
 2236TIP3    H128199   2.250   4.862  13.538  0.7451  0.7862  0.5426
 2236TIP3    H228200   2.368   4.767  13.531 -0.4330 -0.6497 -0.5108
 2237TIP3   OH228201   2.259   2.798  11.321  0.5921  0.3231  0.3429
 2237TIP3    H128202   2.165   2.814  11.328  0.4443  0.0889 -0.8692
 2237TIP3    H228203   2.298   2.884  11.308  0.4059  0.2995 -0.4047
 2238TIP3   OH228204   2.282   3.684   4.675 -0.1985  0.4445  0.1644
 2238TIP3    H128205   2.336   3.705   4.751  0.6760  3.0185 -1.0577
 2238TIP3    H228206   2.219   3.619   4.708  1.3338  0.0416  2.5507
 2239TIP3   OH228207   3.443   4.807   1.691  0.3789  0.0117  0.4584
 2239TIP3    H128208   3.493   4.888   1.686 -0.5280  0.5930  0.6447
 2239TIP3    H228209   3.453   4.767   1.604  0.9557  0.2422  0.4155
 2240TIP3   OH228210   5.107   5.506  12.765 -0.3657 -0.3998  0.5733
 2240TIP3    H128211   5.041   5.437  12.753 -0.4408 -0.0782 -1.2163
 2240TIP3    H228212   5.076   5.555  12.842 -0.5003 -2.1026  1.6575
 2241TIP3   OH228213   4.369   6.177  11.131 -0.3810  0.0073 -0.0612
 2241TIP3    H128214   4.356   6.215  11.218 -0.5891  0.3246 -0.2334
 2241TIP3    H228215   4.447   6.222  11.097 -0.0304 -0.4363  0.1388
 2242TIP3   OH228216   3.924   4.450  15.271 -0.1108 -0.0691  0.6167
 2242TIP3    H128217   3.918   4.540  15.304  0.5735 -0.2459  1.2414
 2242TIP3    H228218   3.985   4.455  15.198  0.8318 -0.2071  1.3716
 2243TIP3   OH228219   1.952   1.729  13.761 -0.4320  0.3125 -0.7705
 2243TIP3    H128220   1.877   1.674  13.781  0.0947  0.1983  1.0765
 2243TIP3    H228221   2.022   1.696  13.818  0.6572  1.1872 -1.5650
 2244TIP3   OH228222   2.159   0.418  15.414  0.1144 -0.9469 -0.5515
 2244TIP3    H128223   2.175   0.390  15.504  0.6326 -1.8735 -0.9284
 2244TIP3    H228224   2.166   0.514  15.418 -0.1901 -0.9553  0.4507
 2245TIP3   OH228225   6.705   0.962  16.382  0.5334 -0.1557  0.0902
 2245TIP3    H128226   6.783   0.911  16.361 -1.4132 -2.5759 -1.9535
 2245TIP3    H228227   6.700   1.028  16.313  1.3165  0.7605  0.8778
 2246TIP3   OH228228   0.185   6.575   4.262  0.0850  0.0712 -0.6519
 2246TIP3    H128229   0.118   6.506   4.254 -0.9715  1.2845 -3.6918
 2246TIP3    H228230   0.254   6.535   4.315 -1.7235 -2.2906  0.1185
 2247TIP3   OH228231   3.523   0.864   1.315  0.2777 -0.1572  0.6340
 2247TIP3    H128232   3.585   0.921   1.269  1.1299 -1.2481  0.3821
 2247TIP3    H228233   3.470   0.924   1.368  1.3689  0.8444  0.6460
 2248TIP3   OH228234   3.557   3.983   3.487 -0.3192 -0.3466 -0.3767
 2248TIP3    H128235   3.551   4.057   3.426 -0.7261 -1.0708 -1.2455
 2248TIP3    H228236   3.567   3.906   3.430 -1.5757 -1.1331  0.4269
 2249TIP3   OH228237   5.614   3.893  12.081 -0.3877  0.1279 -0.4034
 2249TIP3    H128238   5.581   3.956  12.145 -0.1428  0.6249 -0.7628
 2249TIP3    H228239   5.645   3.946  12.008  0.2427 -0.3784 -0.5205
 2250TIP3   OH228240   2.589   4.805   1.177 -0.0573  0.1591 -0.0255
 2250TIP3    H128241   2.607   4.881   1.233 -1.1181  0.9060 -0.6671
 2250TIP3    H228242   2.559   4.737   1.238 -2.0497  1.2372  0.2847
 2251TIP3   OH228243   1.469   0.998  13.025  0.3315 -0.1440  0.0314
 2251TIP3    H128244   1.491   0.925  12.967 -1.7313  0.0974 -1.1338
 2251TIP3    H228245   1.479   0.962  13.113  0.9217 -1.3266 -0.4884
 2252TIP3   OH228246   4.717   6.633   4.497  0.0905  0.1593 -0.8532
 2252TIP3    H128247   4.680   6.574   4.563 -2.6921  3.3465  0.7683
 2252TIP3    H228248   4.792   6.673   4.540 -0.2934  0.4938 -0.4804
 2253TIP3   OH228249   0.369   0.786  14.523 -0.0616 -0.1383 -0.0889
 2253TIP3    H128250   0.277   0.811  14.517  0.0637 -0.0469 -4.2961
 2253TIP3    H228251   0.371   0.695  14.494  1.0994 -0.5963  1.3127
 2254TIP3   OH228252   0.042   6.649  14.392  0.0829 -0.0513 -0.0583
 2254TIP3    H128253   0.130   6.661  14.357 -0.2173  2.1685 -0.1755
 2254TIP3    H228254   0.051   6.574  14.452  2.3532  0.8940  0.9061
 2255TIP3   OH228255   0.062   0.202   5.067  0.2848  0.2272 -0.1428
 2255TIP3    H128256  -0.020   0.198   5.017  0.3275 -1.2443 -0.1484
 2255TIP3    H228257   0.071   0.114   5.104  1.4609  0.6103  0.5179
 2256TIP3   OH228258   0.540   5.413  12.175 -0.6378  0.2036 -0.1168
 2256TIP3    H128259   0.489   5.487  12.205 -0.4023 -0.0331  0.9174
 2256TIP3    H228260   0.554   5.429  12.081 -0.5035  1.5032  0.1126
 2257TIP3   OH228261   5.568   5.695   2.741 -0.1867 -0.1500  0.3345
 2257TIP3    H128262   5.569   5.780   2.697 -0.2640  0.2299  1.0518
 2257TIP3    H228263   5.512   5.709   2.817  0.9075 -0.4504  1.2114
 2258TIP3   OH228264   4.767   1.210   1.794 -0.2533 -0.2685 -0.1078
 2258TIP3    H128265   4.781   1.210   1.888 -1.4772  0.2318  0.0956
 2258TIP3    H228266   4.686   1.260   1.781  1.6084  2.5749 -1.6933
 2259TIP3   OH228267   4.896   5.658   2.618  0.1278 -0.3251  0.9385
 2259TIP3    H128268   4.910   5.707   2.700  0.3986  2.0142 -0.4180
 2259TIP3    H228269   4.983   5.650   2.580 -0.2641  0.8672 -0.2920
 2260TIP3   OH228270   3.039   3.387  11.110 -0.1016  0.1664  0.4705
 2260TIP3    H128271   3.007   3.299  11.090 -2.2297  1.3537 -1.9707
 2260TIP3    H228272   3.132   3.384  11.088 -1.1870 -0.0799 -5.7027
 2261TIP3   OH228273   1.702   0.646   2.254 -0.3572  0.5430 -0.2729
 2261TIP3    H128274   1.751   0.571   2.221  0.2592  1.5945 -1.8487
 2261TIP3    H228275   1.685   0.700   2.177 -5.1571 -0.3236 -0.1352
 2262TIP3   OH228276   4.748   0.446   0.846  0.3464 -0.1865  0.3017
 2262TIP3    H128277   4.675   0.443   0.907 -0.1987 -0.2958 -0.3388
 2262TIP3    H228278   4.708   0.465   0.761  1.1651  0.6918  0.0903
 2263TIP3   OH228279   1.421   0.612  13.581 -0.8686 -0.1917  0.3196
 2263TIP3    H128280   1.416   0.672  13.656 -0.1099 -1.6870  1.6031
 2263TIP3    H228281   1.407   0.525  13.618 -0.3833 -0.9862 -1.2766
 2264TIP3   OH228282   1.190   2.678   2.755  0.1271 -0.0770  0.1334
 2264TIP3    H128283   1.097   2.698   2.745  0.4599  1.0707 -0.8779
 2264TIP3    H228284   1.219   2.733   2.828  0.3152  0.6835 -0.4999
 2265TIP3   OH228285   6.166   2.883   5.874 -0.1218 -0.0824 -0.3038
 2265TIP3    H128286   6.138   2.796   5.903  1.5167 -0.0783  1.5311
 2265TIP3    H228287   6.097   2.942   5.906  0.1967 -0.4260  1.0899
 2266TIP3   OH228288   6.028   4.514   1.315 -0.0983 -0.1436  0.2284
 2266TIP3    H128289   5.970   4.586   1.291 -0.0070 -0.8666 -2.4732
 2266TIP3    H228290   5.970   4.439   1.328  0.0366 -0.3550 -0.3369
 2267TIP3   OH228291   3.707   3.433  15.742  0.3776  0.2202 -0.6491
 2267TIP3    H128292   3.721   3.514  15.691  0.1702  0.9866  0.4828
 2267TIP3    H228293   3.628   3.451  15.793  1.5253  0.1341  1.2191
 2268TIP3   OH228294   6.397   3.645  11.932 -0.9807 -0.2457 -0.4748
 2268TIP3    H128295   6.320   3.615  11.981  0.8350 -2.6353  1.1382
 2268TIP3    H228296   6.362   3.709  11.871 -3.9356  0.3052  1.5630
 2269TIP3   OH228297   5.834   6.354   3.317 -0.5496  0.7359 -0.1247
 2269TIP3    H128298   5.848   6.406   3.396  0.7888 -1.5119  1.2338
 2269TIP3    H228299   5.739   6.342   3.312 -0.6161  0.2503  1.6398
 2270TIP3   OH228300   4.189   4.654  11.301  0.3652 -0.0558 -0.2300
 2270TIP3    H128301   4.136   4.575  11.291  0.7454 -0.1630 -1.6355
 2270TIP3    H228302   4.256   4.631  11.365  0.5124 -0.9036 -0.6735
 2271TIP3   OH228303   3.289   1.815   3.653 -0.4562  0.0651  0.3188
 2271TIP3    H128304   3.230   1.823   3.579  1.2433 -2.4124 -1.4811
 2271TIP3    H228305   3.349   1.889   3.645 -1.5481  0.9758  0.4810
 2272TIP3   OH228306   2.182   0.305  12.591  0.7542 -0.3008 -0.2864
 2272TIP3    H128307   2.136   0.296  12.674  1.5422  0.5628  0.2588
 2272TIP3    H228308   2.154   0.229  12.540 -1.7596  0.5072 -0.2421
 2273TIP3   OH228309   2.211   0.805  12.312  0.5576  0.1413 -0.2891
 2273TIP3    H128310   2.154   0.840  12.380  0.2551  0.4446 -0.6900
 2273TIP3    H228311   2.159   0.738  12.268  0.5478  0.3351 -0.5782
 2274TIP3   OH228312   6.417   5.629   4.200  0.1004  0.0909  0.0925
 2274TIP3    H128313   6.477   5.585   4.139  0.1992 -0.0846  0.3117
 2274TIP3    H228314   6.337   5.643   4.150  0.1112 -0.2335 -0.0188
 2275TIP3   OH228315   3.250   2.841   0.696  0.3205 -0.0131  0.1685
 2275TIP3    H128316   3.182   2.813   0.757  1.3399 -0.8607  0.9395
 2275TIP3    H228317   3.268   2.763   0.643  0.6734  0.2144 -0.0495
 2276TIP3   OH228318   3.390   2.162   0.579 -0.2253  0.0044  0.0502
 2276TIP3    H128319   3.306   2.169   0.623 -0.4934 -1.9220 -0.0914
 2276TIP3    H228320   3.419   2.072   0.595  1.6228  0.5007 -0.2367
 2277TIP3   OH228321   6.685   4.245  15.007 -0.0372  0.0685  0.4347
 2277TIP3    H128322   6.689   4.270  14.914  1.1657  0.2710  0.5365
 2277TIP3    H228323   6.722   4.319  15.053 -0.3308 -0.1749  1.0696
 2278TIP3   OH228324   6.356   3.568   5.768  0.4820  0.5392  0.4659
 2278TIP3    H128325   6.409   3.526   5.701  0.6453  1.4468  0.0256
 2278TIP3    H228326   6.267   3.566   5.733  0.3109 -0.3502  0.9010
 2279TIP3   OH228327   3.694   2.383  11.542 -0.3028  0.1806 -0.1176
 2279TIP3    H128328   3.729   2.452  11.598 -0.3094  0.6974 -0.7441
 2279TIP3    H228329   3.614   2.354  11.587  0.2341 -0.1377  0.6704
 2280TIP3   OH228330   3.913   6.571   4.498  0.0850 -0.1898 -0.2940
 2280TIP3    H128331   3.967   6.508   4.546 -1.3209  0.6736  2.6053
 2280TIP3    H228332   3.827   6.529   4.492 -0.1714  0.3796 -0.6509
 2281TIP3   OH228333   3.143   5.784   2.045 -0.4785 -0.2559  0.3665
 2281TIP3    H128334   3.197   5.851   2.002 -0.2095  0.5215  1.8619
 2281TIP3    H228335   3.174   5.701   2.008  1.6018  0.1781  1.0018
 2282TIP3   OH228336   3.352   5.716  12.267 -1.2229 -0.4806  0.1709
 2282TIP3    H128337   3.388   5.796  12.305  2.2679 -0.2851 -2.8934
 2282TIP3    H228338   3.390   5.646  12.320 -1.2304 -0.1407  0.6309
 2283TIP3   OH228339   0.098   1.105   4.749 -0.3473  0.0030  0.4126
 2283TIP3    H128340   0.105   1.010   4.746 -0.8133 -0.0468  0.8084
 2283TIP3    H228341   0.173   1.136   4.697 -0.1653 -0.5729  0.3216
 2284TIP3   OH228342   2.071   1.457  13.570  0.8343 -0.4413 -0.3467
 2284TIP3    H128343   2.144   1.497  13.616  2.3144 -0.8154 -2.2331
 2284TIP3    H228344   2.105   1.440  13.482 -1.9682  0.6844 -1.7664
 2285TIP3   OH228345   3.290   6.465   1.558  0.0686 -0.3549 -0.0420
 2285TIP3    H128346   3.314   6.443   1.648  0.2203 -1.0210 -0.2384
 2285TIP3    H228347   3.335   6.547   1.541 -0.3429  0.0225  0.6445
 2286TIP3   OH228348   3.138   3.466  14.698 -0.0355 -0.1716  0.0901
 2286TIP3    H128349   3.108   3.392  14.646  2.2950 -1.8248  0.9366
 2286TIP3    H228350   3.059   3.514  14.720 -1.3570 -0.8270 -2.7807
 2287TIP3   OH228351   6.640   6.684  14.263  0.5132 -0.2281  0.5227
 2287TIP3    H128352   6.658   6.610  14.206  0.2721  0.5033 -0.5558
 2287TIP3    H228353   6.721   6.700  14.310  1.0737 -0.1808 -0.4356
 2288TIP3   OH228354   1.888   5.023  16.670 -0.3426  0.2065  0.2436
 2288TIP3    H128355   1.833   4.948  16.693 -0.1068  0.0191  0.2058
 2288TIP3    H228356   1.883   5.081  16.747  1.1872 -0.8474  1.2008
 2289TIP3   OH228357   5.085   4.291  11.564  0.2694 -0.1917  0.3790
 2289TIP3    H128358   5.117   4.352  11.497 -0.7561  0.7555  0.7316
 2289TIP3    H228359   5.081   4.342  11.644 -0.0878 -0.8744  0.8118
 2290TIP3   OH228360   2.502   2.264  13.585 -0.0067 -0.4297  0.5432
 2290TIP3    H128361   2.581   2.286  13.634  0.0613  0.0798  0.2135
 2290TIP3    H228362   2.431   2.279  13.648  0.1008 -0.0671  0.5802
 2291TIP3   OH228363   0.635   1.912   1.269 -0.4606 -0.5454 -0.0518
 2291TIP3    H128364   0.606   1.984   1.325  2.8103  1.4097 -0.6735
 2291TIP3    H228365   0.694   1.952   1.206 -0.6408 -3.3904 -2.2080
 2292TIP3   OH228366   0.159   4.445   5.433  0.3462  0.8112 -0.5013
 2292TIP3    H128367   0.231   4.472   5.377  0.0044  0.8176 -0.9453
 2292TIP3    H228368   0.197   4.381   5.493  0.2720 -0.8480 -2.1349
 2293TIP3   OH228369   1.951   5.745  15.874 -0.3295  0.5487 -0.4884
 2293TIP3    H128370   1.896   5.678  15.914 -1.2793  1.5339 -0.1124
 2293TIP3    H228371   1.941   5.822  15.930  1.9249  0.5918 -0.0423
 2294TIP3   OH228372   4.086   4.199  12.040 -0.4463 -0.2067 -0.2075
 2294TIP3    H128373   4.074   4.262  11.969  1.5670 -1.0775 -1.4180
 2294TIP3    H228374   4.157   4.234  12.093  1.5620 -1.9214 -1.6018
 2295TIP3   OH228375   5.976   6.245   2.959  0.0340 -0.0450 -0.4260
 2295TIP3    H128376   6.034   6.228   2.884  1.4598  2.5804 -0.0456
 2295TIP3    H228377   5.972   6.341   2.965 -1.2616 -0.1747  1.9554
 2296TIP3   OH228378   0.537   3.349  17.157 -0.0275  0.0530 -0.8088
 2296TIP3    H128379   0.568   3.439  17.146  0.5821 -0.1348 -0.6090
 2296TIP3    H228380   0.463   3.342  17.095  0.8057  0.2571 -1.8605
 2297TIP3   OH228381   2.599   5.468  15.290  0.0160 -0.0923 -0.5386
 2297TIP3    H128382   2.551   5.395  15.252 -0.5371  0.5005 -0.9998
 2297TIP3    H228383   2.617   5.526  15.216 -0.2673  0.6354 -0.0494
 2298TIP3   OH228384   1.399   2.607  13.935  0.2139 -0.3869 -0.0973
 2298TIP3    H128385   1.341   2.543  13.976 -1.3034  1.8541  1.4582
 2298TIP3    H228386   1.418   2.670  14.004  1.3028  1.0760 -1.6573
 2299TIP3   OH228387   3.385   4.900   4.652  0.4878  0.1839  0.2986
 2299TIP3    H128388   3.445   4.966   4.687  0.7213 -0.5195  1.2660
 2299TIP3    H228389   3.435   4.819   4.654 -0.6396 -0.5230  1.6540
 2300TIP3   OH228390   5.906   6.726   1.942  0.1004  0.1487  0.0845
 2300TIP3    H128391   5.853   6.771   1.876 -0.4725  0.9793  1.0694
 2300TIP3    H228392   5.902   6.633   1.917 -1.5880  0.2244 -0.0552
 2301TIP3   OH228393   6.228   6.368  11.357 -0.0485 -0.0379 -0.6357
 2301TIP3    H128394   6.176   6.386  11.279 -1.6280 -0.0119  0.3971
 2301TIP3    H228395   6.288   6.298  11.330  0.2643  0.7825 -2.1982
 2302TIP3   OH228396   4.168   0.952  16.094  0.3838  0.0321 -0.1681
 2302TIP3    H128397   4.258   0.950  16.127  0.3342  0.3687 -0.0065
 2302TIP3    H228398   4.117   0.909  16.162  0.1449  1.5445  0.6502
 2303TIP3   OH228399   2.308   1.314   5.709 -0.6335 -0.2796  1.0316
 2303TIP3    H128400   2.356   1.313   5.791 -0.5069 -1.7336  0.9738
 2303TIP3    H228401   2.290   1.222   5.691  0.6538 -0.1584 -1.3359
 2304TIP3   OH228402   0.454   5.781   1.349  0.2530 -0.6031  0.3636
 2304TIP3    H128403   0.389   5.851   1.350  0.4863 -0.3853  0.4145
 2304TIP3    H228404   0.426   5.722   1.279 -0.6546 -1.1403  1.1582
 2305TIP3   OH228405   4.011   0.247   4.383  0.3751 -0.2128 -0.2565
 2305TIP3    H128406   4.073   0.195   4.434  1.6606  0.4015 -1.1382
 2305TIP3    H228407   4.046   0.337   4.387 -1.5721  0.5733  0.9018
 2306TIP3   OH228408   3.819   5.784   3.044 -0.3172 -0.2319 -0.1331
 2306TIP3    H128409   3.861   5.870   3.031 -0.7582 -0.1200 -0.8748
 2306TIP3    H228410   3.867   5.745   3.117  1.9383 -0.6485 -1.7192
 2307TIP3   OH228411   5.320   2.282  15.517  0.5507 -0.0184 -0.5074
 2307TIP3    H128412   5.307   2.202  15.569 -2.5577  1.6895  1.6878
 2307TIP3    H228413   5.351   2.251  15.432  1.0901 -3.3917  0.7656
 2308TIP3   OH228414   1.413   4.119  15.225 -0.2632  0.3020 -0.5051
 2308TIP3    H128415   1.485   4.127  15.162  0.8210  2.6348  0.8735
 2308TIP3    H228416   1.454   4.087  15.305 -1.4952 -1.8973 -0.6689
 2309TIP3   OH228417   0.968   2.833  13.439 -0.1363 -0.4807  0.5009
 2309TIP3    H128418   0.991   2.844  13.531  0.8608 -0.0509  0.2071
 2309TIP3    H228419   0.913   2.755  13.438 -0.3515 -0.3587  1.4879
 2310TIP3   OH228420   2.120   2.757   6.677  0.2374  0.1587 -0.0979
 2310TIP3    H128421   2.099   2.712   6.759  1.5533 -0.4891 -0.1040
 2310TIP3    H228422   2.050   2.729   6.617  0.1252 -0.5923  0.3627
 2311TIP3   OH228423   1.812   6.633  15.351 -0.5416  0.4026  0.2321
 2311TIP3    H128424   1.763   6.578  15.411 -2.0281  1.2720 -0.1356
 2311TIP3    H228425   1.746   6.691  15.313  0.5516  0.6452 -1.3695
 2312TIP3   OH228426   0.331   6.041   1.162 -0.2956 -0.6032  0.1770
 2312TIP3    H128427   0.242   6.061   1.135  0.7506  0.4387 -2.9794
 2312TIP3    H228428   0.346   5.952   1.131  0.5482  0.1837 -1.8178
 2313TIP3   OH228429   4.631   2.957   0.750 -0.1709  0.1820  0.5552
 2313TIP3    H128430   4.633   2.892   0.820  2.9576 -0.0400  0.4007
 2313TIP3    H228431   4.583   2.915   0.679  1.8591 -2.1059  0.4030
 2314TIP3   OH228432   0.454   4.990  15.881  0.0265 -0.1310  0.3395
 2314TIP3    H128433   0.498   5.027  15.958 -0.5226  1.1535  0.0643
 2314TIP3    H228434   0.453   5.061  15.817 -1.4755 -0.4703 -0.0503
 2315TIP3   OH228435   6.655   4.134   1.994  0.5178  0.1737 -0.0697
 2315TIP3    H128436   6.632   4.161   2.083 -1.9801  0.4472 -0.7070
 2315TIP3    H228437   6.576   4.090   1.962  1.8216 -1.0811 -1.7256
 2316TIP3   OH228438   2.151   4.461   5.155  0.1801 -0.3445 -0.1322
 2316TIP3    H128439   2.113   4.490   5.238  0.6406  0.4508 -0.1895
 2316TIP3    H228440   2.206   4.387   5.179 -0.7107 -0.9519  0.0782
 2317TIP3   OH228441   0.592   0.354  11.912 -0.4541 -0.1014  0.4526
 2317TIP3    H128442   0.548   0.345  11.996 -0.4323  1.4067  0.6530
 2317TIP3    H228443   0.620   0.445  11.909  1.0602 -0.5616 -0.4629
 2318TIP3   OH228444   5.381   5.432  16.953 -0.4834 -0.2060 -0.4002
 2318TIP3    H128445   5.427   5.447  16.871  1.1767  1.2191  0.6962
 2318TIP3    H228446   5.340   5.516  16.973 -0.7500 -0.4897  0.2816
 2319TIP3   OH228447   6.092   0.912  12.098 -0.5596 -0.4006 -0.2234
 2319TIP3    H128448   6.000   0.924  12.121 -0.1221  0.0720  1.4893
 2319TIP3    H228449   6.091   0.861  12.017 -2.3152 -0.5582 -0.1368
 2320TIP3   OH228450   3.423   1.879   4.557 -0.0111 -0.1690 -0.0406
 2320TIP3    H128451   3.402   1.871   4.464 -1.4867  1.0213  0.1466
 2320TIP3    H228452   3.381   1.804   4.598  0.3209 -0.4887 -0.2775
 2321TIP3   OH228453   0.804   4.004  16.361  0.3548 -0.1449 -0.2937
 2321TIP3    H128454   0.720   4.042  16.385  0.8964  1.7227 -1.1684
 2321TIP3    H228455   0.788   3.910  16.356 -1.2077 -0.0185  1.3471
 2322TIP3   OH228456   4.278   4.111  14.754  0.5877  0.3204  0.4355
 2322TIP3    H128457   4.214   4.066  14.809  0.6807 -1.5412 -0.8779
 2322TIP3    H228458   4.338   4.041  14.726  0.7211  1.2362 -1.7486
 2323TIP3   OH228459   2.618   0.807   3.146  0.4823  0.6584  0.1291
 2323TIP3    H128460   2.533   0.764   3.150  0.9635 -0.8716 -3.0553
 2323TIP3    H228461   2.622   0.860   3.226 -2.0039 -1.7768  2.0444
 2324TIP3   OH228462   4.931   2.946   0.021 -0.3774  0.8745  0.4316
 2324TIP3    H128463   4.871   2.997  -0.035  0.2416 -0.2230 -1.3156
 2324TIP3    H228464   4.984   2.895  -0.041 -0.0330 -0.8505  2.0628
 2325TIP3   OH228465   2.024   4.834  16.514 -0.1980 -0.0725  0.3379
 2325TIP3    H128466   2.115   4.849  16.486 -0.5520 -0.0649 -0.8469
 2325TIP3    H228467   2.010   4.897  16.584  0.2387  0.9961 -0.5070
 2326TIP3   OH228468   1.035   4.600   1.532  0.4140 -0.0226 -0.2857
 2326TIP3    H128469   1.015   4.650   1.611 -0.3827 -0.1049 -0.4309
 2326TIP3    H228470   1.123   4.630   1.506  0.9756 -0.5000  1.0153
 2327TIP3   OH228471   2.463   0.013   0.951 -0.1889  0.4214  0.1232
 2327TIP3    H128472   2.464   0.109   0.955  0.5651  0.5167 -1.5825
 2327TIP3    H228473   2.376  -0.009   0.918 -0.1102  0.5769 -0.1985
 2328TIP3   OH228474   6.448   0.925  12.945  0.5058 -0.3595  0.1333
 2328TIP3    H128475   6.484   0.869  12.876 -0.1141 -0.4853 -0.0961
 2328TIP3    H228476   6.477   0.885  13.027  1.8214  0.1706 -0.0452
 2329TIP3   OH228477   3.736   5.692  11.884 -0.0910  0.4167 -0.0461
 2329TIP3    H128478   3.732   5.596  11.877  0.7178  0.4130 -0.6012
 2329TIP3    H228479   3.819   5.710  11.928  0.3883  0.8905 -1.0968
 2330TIP3   OH228480   0.071   2.913   3.449 -0.1265  0.4403  0.1948
 2330TIP3    H128481   0.129   2.975   3.494  0.1150  1.4124 -1.3867
 2330TIP3    H228482   0.128   2.843   3.418 -0.4228 -0.7467  2.1336
 2331TIP3   OH228483   3.167   6.217   4.409 -0.0086 -0.1977  0.1873
 2331TIP3    H128484   3.106   6.280   4.371 -0.9523  0.6841  2.9376
 2331TIP3    H228485   3.154   6.137   4.358 -0.1500  1.2311 -2.1601
 2332TIP3   OH228486   3.511   0.760  15.491 -0.5612  0.4050  0.2148
 2332TIP3    H128487   3.602   0.740  15.469 -0.1293 -0.3968  2.5336
 2332TIP3    H228488   3.502   0.853  15.469  0.6393  0.3717 -0.5404
 2333TIP3   OH228489   6.585   6.677   6.446  0.6370 -0.4235 -0.0055
 2333TIP3    H128490   6.516   6.705   6.386  1.1113 -1.0533 -0.8583
 2333TIP3    H228491   6.539   6.629   6.515  0.1071  0.1566  0.0526
 2334TIP3   OH228492   4.192   1.302   4.196  0.1654  0.0149 -0.1416
 2334TIP3    H128493   4.136   1.227   4.214 -0.2987  0.9471  2.8997
 2334TIP3    H228494   4.136   1.364   4.151 -0.0509 -0.6154 -0.7606
 2335TIP3   OH228495   0.597   5.400   1.495 -0.4083 -0.2341 -0.2829
 2335TIP3    H128496   0.555   5.350   1.565 -1.4459 -0.2019 -0.8611
 2335TIP3    H228497   0.629   5.479   1.538 -0.4043 -0.5402  0.2851
 2336TIP3   OH228498   4.671   6.589  14.668  0.2824  0.8881 -0.5292
 2336TIP3    H128499   4.646   6.540  14.747 -1.2641 -0.2797 -1.6847
 2336TIP3    H228500   4.759   6.559  14.648 -0.0383 -0.2673 -0.3131
 2337TIP3   OH228501   5.256   6.449   5.444 -0.0847  1.1336 -0.2617
 2337TIP3    H128502   5.161   6.455   5.453 -0.1149  0.4653 -0.0639
 2337TIP3    H228503   5.277   6.361   5.476  0.7625  1.7657  0.9856
 2338TIP3   OH228504   6.321   0.997   5.728 -0.3900  0.8151  0.2599
 2338TIP3    H128505   6.370   1.040   5.797  0.2607  2.1241 -0.9638
 2338TIP3    H228506   6.297   1.068   5.668  0.0461 -0.4063 -1.4231
 2339TIP3   OH228507   1.120   5.297  15.478 -0.1900 -0.0375  0.3514
 2339TIP3    H128508   1.100   5.204  15.469  0.2087  0.0715 -3.9125
 2339TIP3    H228509   1.172   5.318  15.400 -0.8668  3.9154  0.7479
 2340TIP3   OH228510   3.206   5.204  16.947  0.5156  0.2149  0.3105
 2340TIP3    H128511   3.153   5.132  16.981 -0.9862  1.0391 -0.2078
 2340TIP3    H228512   3.254   5.166  16.873  0.9305 -0.6267  0.9990
 2341TIP3   OH228513   4.242   6.823  14.279 -0.0868  0.1080 -0.7308
 2341TIP3    H128514   4.287   6.792  14.358 -1.0185  1.9618  0.6124
 2341TIP3    H228515   4.312   6.835  14.215  0.8819 -0.1824  0.2384
 2342TIP3   OH228516   0.598   2.197  15.663  0.2845  0.0322 -0.0193
 2342TIP3    H128517   0.561   2.163  15.581 -0.7859  1.3628 -0.1318
 2342TIP3    H228518   0.688   2.219  15.641  0.3742 -0.7466 -0.4929
 2343TIP3   OH228519   5.518   2.485  12.276 -0.0318  0.1615 -0.1960
 2343TIP3    H128520   5.465   2.523  12.346 -0.4552 -0.5251 -0.1395
 2343TIP3    H228521   5.582   2.430  12.321 -0.0643  0.0120 -0.3320
 2344TIP3   OH228522   2.151   4.062   2.261 -0.0476 -0.0113 -0.1343
 2344TIP3    H128523   2.164   3.971   2.234 -2.3285 -0.7549  1.0269
 2344TIP3    H228524   2.057   4.075   2.258 -0.0386  1.4115  2.4546
 2345TIP3   OH228525   6.230   5.094   0.044  0.4925  0.6662 -1.2510
 2345TIP3    H128526   6.323   5.088   0.024  0.7990  0.0959  0.2260
 2345TIP3    H228527   6.192   5.014   0.008  1.2343 -0.9386  1.2897
 2346TIP3   OH228528   3.563   5.915   0.652 -0.0129  0.2670  0.1975
 2346TIP3    H128529   3.650   5.949   0.674 -0.1080  1.0202 -0.4986
 2346TIP3    H228530   3.521   5.899   0.736  1.3820 -1.7483  0.5838
 2347TIP3   OH228531   6.148   1.281  14.247 -0.2418 -0.1397  0.4411
 2347TIP3    H128532   6.212   1.329  14.298 -0.3365 -1.2114  1.6208
 2347TIP3    H228533   6.076   1.265  14.307 -1.2770  0.3247 -0.6235
 2348TIP3   OH228534   3.840   4.644   4.015 -0.0599 -0.0482  0.3343
 2348TIP3    H128535   3.779   4.575   4.040 -0.1812  0.4614  1.4892
 2348TIP3    H228536   3.841   4.641   3.919 -0.8418 -0.9644  0.3373
 2349TIP3   OH228537   0.052   1.068  12.810  0.2446 -0.2905  0.3070
 2349TIP3    H128538   0.059   0.982  12.851 -1.1298 -0.5727 -0.0008
 2349TIP3    H228539  -0.040   1.093  12.823  0.8094  1.5423  1.2016
 2350TIP3   OH228540   6.611   5.074   6.674 -0.2815  0.1288  0.1864
 2350TIP3    H128541   6.537   5.128   6.703  0.8585  0.0274  3.6800
 2350TIP3    H228542   6.574   4.986   6.664 -0.8577  0.3037  0.7261
 2351TIP3   OH228543   1.396   6.126  11.943  0.5749  0.6051 -0.0794
 2351TIP3    H128544   1.482   6.099  11.912  0.1108 -0.1731 -0.7610
 2351TIP3    H228545   1.345   6.045  11.944 -0.4791  1.2322 -0.8209
 2352TIP3   OH228546   3.402   6.303   5.570  0.0653 -0.5864  0.4392
 2352TIP3    H128547   3.489   6.280   5.538  0.3046  0.9149 -0.0790
 2352TIP3    H228548   3.342   6.272   5.502  0.3522  0.0313 -0.1055
 2353TIP3   OH228549   5.049   6.562   1.911  0.4048 -0.1536 -0.4868
 2353TIP3    H128550   5.044   6.491   1.848 -1.8017  0.0626 -0.6558
 2353TIP3    H228551   4.977   6.545   1.972  1.2918  0.6735  0.8446
 2354TIP3   OH228552   3.787   0.780  15.451 -0.3012  0.2741 -0.6119
 2354TIP3    H128553   3.844   0.802  15.378  0.7021 -0.0246  0.0573
 2354TIP3    H228554   3.782   0.861  15.502  0.4102  0.0107 -0.1048
 2355TIP3   OH228555   0.919   3.299  16.155  0.1864  0.0393  0.0905
 2355TIP3    H128556   0.963   3.279  16.072 -0.4683  1.3379 -0.6064
 2355TIP3    H228557   0.903   3.214  16.195 -0.4377 -0.6915 -1.6278
 2356TIP3   OH228558   0.207   1.181   1.427  0.2463 -0.0551 -0.1035
 2356TIP3    H128559   0.157   1.113   1.472 -1.1286  2.8061  3.1263
 2356TIP3    H228560   0.293   1.179   1.469 -0.7128  1.9433  2.1383
 2357TIP3   OH228561   0.548   1.821  11.469  0.3650 -0.1956 -0.0123
 2357TIP3    H128562   0.454   1.830  11.484  0.3209 -0.0978 -0.3498
 2357TIP3    H228563   0.580   1.775  11.547  0.1219  0.2240  0.3337
 2358TIP3   OH228564   3.044   6.332  16.483 -0.1948  0.4836 -0.3780
 2358TIP3    H128565   3.089   6.284  16.414  0.4540  0.6386 -0.0740
 2358TIP3    H228566   3.080   6.297  16.565 -2.2014 -0.9426 -0.0338
 2359TIP3   OH228567   0.768   6.569   6.423  0.3309 -0.1550 -0.4078
 2359TIP3    H128568   0.769   6.645   6.481  0.1248  0.0250 -0.6379
 2359TIP3    H228569   0.682   6.573   6.380 -0.0066 -0.9602  0.1648
 2360TIP3   OH228570   5.689   0.533   1.473 -0.4128 -0.6107  0.0161
 2360TIP3    H128571   5.601   0.567   1.456 -0.2918 -0.1734  0.2328
 2360TIP3    H228572   5.711   0.568   1.560 -0.0077 -0.6740 -0.0601
 2361TIP3   OH228573   3.743   2.922   4.496 -0.2576 -0.3495 -0.4474
 2361TIP3    H128574   3.657   2.893   4.525 -0.9975  0.3695 -1.7923
 2361TIP3    H228575   3.747   3.015   4.521 -0.0348 -0.2818 -0.7286
 2362TIP3   OH228576   1.260   1.921   0.481 -0.0975  0.1995 -0.4014
 2362TIP3    H128577   1.340   1.971   0.468 -0.5285  1.0432  0.0820
 2362TIP3    H228578   1.192   1.976   0.441 -0.4409 -0.5040 -0.8074
 2363TIP3   OH228579   2.428   3.703  10.769  0.0004  0.3570 -0.5534
 2363TIP3    H128580   2.426   3.674  10.860  1.5082  1.1101 -0.2409
 2363TIP3    H228581   2.499   3.652  10.730 -0.6880 -0.0177 -1.3528
 2364TIP3   OH228582   6.762   3.137   6.393 -0.5670  0.2044  0.5619
 2364TIP3    H128583   6.673   3.101   6.392 -1.1500  1.5441  1.7417
 2364TIP3    H228584   6.750   3.229   6.371  0.7070  0.1094 -0.6440
 2365TIP3   OH228585   0.425   2.163  16.339  0.1653 -0.4051 -0.1381
 2365TIP3    H128586   0.510   2.183  16.299  0.6791  0.0494  1.1531
 2365TIP3    H228587   0.363   2.218  16.291  0.8158  0.3653 -0.1106
 2366TIP3   OH228588   1.063   3.522  15.990 -0.0583  0.7468 -0.2719
 2366TIP3    H128589   1.054   3.579  16.066  0.5216  0.2286  0.1990
 2366TIP3    H228590   1.073   3.434  16.027  0.4733  0.5182 -0.9373
 2367TIP3   OH228591   5.825   4.711   1.606  0.7200 -0.0953  0.0825
 2367TIP3    H128592   5.823   4.629   1.654 -1.7487 -0.5585 -0.6227
 2367TIP3    H228593   5.907   4.710   1.558  0.5033 -2.4532 -0.3507
 2368TIP3   OH228594   4.609   1.678  15.458 -0.7039 -0.0501 -0.0895
 2368TIP3    H128595   4.599   1.672  15.363 -0.7308  0.0505 -0.0940
 2368TIP3    H228596   4.685   1.734  15.470 -0.8734  0.1762 -0.0520
 2369TIP3   OH228597   3.388   1.080   1.469  0.2240 -0.2576  0.1785
 2369TIP3    H128598   3.346   1.143   1.410 -0.2958 -0.4483  0.3392
 2369TIP3    H228599   3.321   1.013   1.484  0.1709  0.0395  1.3771
 2370TIP3   OH228600   5.522   2.794   0.789  0.0820  0.2052 -0.0406
 2370TIP3    H128601   5.435   2.797   0.829  0.0582 -0.8162  0.0263
 2370TIP3    H228602   5.512   2.835   0.704 -0.8319 -1.2234 -0.6497
 2371TIP3   OH228603   6.020   3.706  16.707  0.6463 -0.1601  0.2283
 2371TIP3    H128604   6.082   3.756  16.654  0.2906 -0.4070 -0.4369
 2371TIP3    H228605   6.006   3.759  16.785  1.9456 -0.2615  0.5492
 2372TIP3   OH228606   2.247   5.752  11.685 -0.3782  0.1304  0.2391
 2372TIP3    H128607   2.182   5.756  11.615  0.1723 -0.5005 -0.3245
 2372TIP3    H228608   2.225   5.674  11.735  0.4454 -0.5914 -0.4844
 2373TIP3   OH228609   1.390   6.436  11.209  0.7221  0.4416 -0.3608
 2373TIP3    H128610   1.375   6.350  11.170  1.8066  0.2750 -0.4337
 2373TIP3    H228611   1.370   6.498  11.138  0.4294  0.2287 -0.4640
 2374TIP3   OH228612   0.255   6.492   6.628  0.2257  0.0494  0.5028
 2374TIP3    H128613   0.312   6.517   6.555  0.5855  0.2543  0.8572
 2374TIP3    H228614   0.307   6.431   6.680 -0.2791 -0.6434  0.2116
 2375TIP3   OH228615   0.219   4.256   5.610  0.0695 -0.4543 -0.3065
 2375TIP3    H128616   0.310   4.228   5.608  0.6927  1.3552  0.4475
 2375TIP3    H228617   0.171   4.180   5.642  1.3391 -1.3755 -0.5309
 2376TIP3   OH228618   0.988   0.242  16.843 -0.7110 -0.7341 -0.2821
 2376TIP3    H128619   0.911   0.211  16.890  0.6809 -2.3667  1.0381
 2376TIP3    H228620   0.983   0.337  16.847 -1.2568 -0.8076  2.2115
 2377TIP3   OH228621   2.759   2.998  11.566 -0.8320  0.7882 -0.5923
 2377TIP3    H128622   2.760   3.019  11.659 -1.5472  0.0250 -0.4053
 2377TIP3    H228623   2.845   2.960  11.549 -1.0221  0.1061 -0.0442
 2378TIP3   OH228624   1.828   6.487   1.467 -0.5221 -0.4941 -0.1705
 2378TIP3    H128625   1.803   6.452   1.553  0.8531  0.0598  0.4951
 2378TIP3    H228626   1.754   6.467   1.410 -1.8832 -0.0397  1.3698
 2379TIP3   OH228627   3.072   6.561   0.041 -0.1320 -0.4204 -0.5978
 2379TIP3    H128628   3.126   6.629   0.002  0.7476  0.5672  2.0894
 2379TIP3    H228629   2.986   6.601   0.053  0.2885  0.1415  0.6637
 2380TIP3   OH228630   5.006   2.279   6.056 -0.4009  0.2649 -0.2712
 2380TIP3    H128631   5.069   2.289   5.984 -0.8623  0.2227 -0.6889
 2380TIP3    H228632   4.931   2.332   6.030 -0.5592  0.2793  0.2006
 2381TIP3   OH228633   5.211   3.547  13.594 -0.5444 -0.5673  0.3416
 2381TIP3    H128634   5.132   3.600  13.598 -0.8575 -1.0633  0.7622
 2381TIP3    H228635   5.262   3.574  13.670  0.2991  0.6929 -0.6427
 2382TIP3   OH228636   1.042   1.176   0.805 -0.2959  0.2295 -0.0887
 2382TIP3    H128637   1.111   1.233   0.838  0.2036 -1.4453  1.9771
 2382TIP3    H228638   0.977   1.236   0.769  0.8250  2.0150  0.6954
 2383TIP3   OH228639   5.210   2.879  15.828 -0.4787 -0.0031 -0.0916
 2383TIP3    H128640   5.134   2.929  15.798 -0.7767 -1.2346 -1.5550
 2383TIP3    H228641   5.283   2.939  15.817 -1.2199  1.2436  1.4490
 2384TIP3   OH228642   3.198   2.150  13.307 -0.4202  0.1908 -0.0607
 2384TIP3    H128643   3.201   2.173  13.215 -0.8502  0.4372 -0.0148
 2384TIP3    H228644   3.145   2.070  13.310  1.4490 -1.1126 -0.2748
 2385TIP3   OH228645   5.202   5.295   1.480 -0.1522  0.1234  0.0233
 2385TIP3    H128646   5.130   5.304   1.418 -0.0602 -0.1448 -0.1233
 2385TIP3    H228647   5.277   5.335   1.437 -0.0556 -0.1815 -0.0972
 2386TIP3   OH228648   2.822   3.295   1.622  0.8369 -0.0281  0.4184
 2386TIP3    H128649   2.900   3.346   1.645  1.4252 -0.6232 -0.2348
 2386TIP3    H228650   2.846   3.205   1.641  0.7037 -0.3415 -0.8214
 2387TIP3   OH228651   4.243   3.779   3.561 -0.1213  0.1675  0.1103
 2387TIP3    H128652   4.191   3.802   3.638 -0.6212 -3.1204  0.9299
 2387TIP3    H228653   4.188   3.716   3.514  1.5038 -0.3641 -1.1821
 2388TIP3   OH228654   3.883   1.048  11.230 -0.3046  0.1702 -0.7083
 2388TIP3    H128655   3.884   1.075  11.138 -0.6548 -0.7506 -0.9970
 2388TIP3    H228656   3.790   1.031  11.249 -0.0548 -1.3937 -0.7350
 2389TIP3   OH228657   1.724   1.621   2.896 -0.5055 -0.0064  0.3791
 2389TIP3    H128658   1.644   1.587   2.936  0.2150  0.1635  2.0410
 2389TIP3    H228659   1.786   1.549   2.902 -0.3837  0.0051 -0.5264
 2390TIP3   OH228660   6.391   1.260   4.591 -0.0921  0.7367 -0.6777
 2390TIP3    H128661   6.401   1.259   4.686  2.0415 -0.2535 -0.8564
 2390TIP3    H228662   6.431   1.343   4.564  0.6545  0.3448 -0.8030
 2391TIP3   OH228663   6.124   0.676   2.525 -0.1720 -0.6532  0.2363
 2391TIP3    H128664   6.175   0.744   2.570 -1.1725 -0.5050  1.1780
 2391TIP3    H228665   6.100   0.614   2.594 -2.3592 -0.0319  0.1038
 2392TIP3   OH228666   3.962   2.577   2.975  0.1785 -0.1233 -0.4001
 2392TIP3    H128667   4.042   2.624   2.953  0.4283 -0.6107 -0.5558
 2392TIP3    H228668   3.922   2.556   2.890  0.9174 -1.6155 -0.4219
 2393TIP3   OH228669   1.229   1.123  13.090 -0.5799  0.2741 -0.0397
 2393TIP3    H128670   1.191   1.061  13.153  1.0127 -1.5726 -0.7698
 2393TIP3    H228671   1.316   1.088  13.073  2.5220  5.2387  3.0194
 2394TIP3   OH228672   6.556   2.611   6.624 -0.4190 -0.0375  0.1324
 2394TIP3    H128673   6.554   2.670   6.700 -0.5094  1.4188 -0.9551
 2394TIP3    H228674   6.508   2.658   6.556  0.4767 -0.8790 -1.1289
 2395TIP3   OH228675   1.954   4.368   3.089 -0.1274  0.2678  0.5487
 2395TIP3    H128676   1.858   4.375   3.085 -0.0322  1.8090  0.1506
 2395TIP3    H228677   1.979   4.346   2.999 -0.0287  1.6451  0.2105
 2396TIP3   OH228678   6.536   0.025  13.010 -0.3855  0.4670 -0.2035
 2396TIP3    H128679   6.625   0.014  13.045 -1.4109 -0.4579  2.3449
 2396TIP3    H228680   6.540  -0.010  12.922  1.6877  0.0666 -0.0013
 2397TIP3   OH228681   0.654   2.048   2.199  0.0098  0.6878  0.3482
 2397TIP3    H128682   0.746   2.068   2.212  0.4514 -0.2374 -1.1299
 2397TIP3    H228683   0.632   1.988   2.270  0.9692 -0.2490 -0.1141
 2398TIP3   OH228684   6.590   3.394   2.866  0.4355  0.6453  0.4489
 2398TIP3    H128685   6.684   3.377   2.867  0.4324  0.3577 -1.0634
 2398TIP3    H228686   6.578   3.459   2.797 -0.6382 -0.6444 -0.6434
 2399TIP3   OH228687   2.945   1.983  16.110 -0.1619 -0.0272  0.1891
 2399TIP3    H128688   2.967   2.073  16.132 -1.2916  0.2188  0.3614
 2399TIP3    H228689   3.016   1.931  16.149  0.0828  0.7165  0.7649
 2400TIP3   OH228690   1.942   3.907   3.592 -0.2147  0.2041 -0.3750
 2400TIP3    H128691   1.892   3.850   3.650  0.6126 -1.1356 -0.9242
 2400TIP3    H228692   1.960   3.853   3.515  1.8855  0.7036 -0.2885
 2401TIP3   OH228693   6.413   0.456  12.546 -0.3521 -0.0072 -0.1358
 2401TIP3    H128694   6.365   0.399  12.486 -0.3769 -1.4177  1.1783
 2401TIP3    H228695   6.452   0.397  12.610  0.0842  1.4140  0.9723
 2402TIP3   OH228696   6.343   1.103  12.764  0.6461  0.0944 -0.2576
 2402TIP3    H128697   6.340   1.063  12.677 -1.0726  0.1115 -0.2362
 2402TIP3    H228698   6.382   1.035  12.819 -0.8943 -1.0535 -0.5035
 2403TIP3   OH228699   4.501   2.455   1.909  0.1882  0.2191  0.2400
 2403TIP3    H128700   4.485   2.361   1.908  1.4102 -0.0290  1.1578
 2403TIP3    H228701   4.535   2.472   1.997 -1.6360  1.8280  0.6939
 2404TIP3   OH228702   0.762   3.100   4.037 -0.2044 -0.2710  0.5860
 2404TIP3    H128703   0.805   3.015   4.032  1.9857  0.8592 -3.2344
 2404TIP3    H228704   0.826   3.158   4.078 -1.4817 -0.2089  2.6692
 2405TIP3   OH228705   3.992   1.189   2.712  0.0486 -0.4932  0.0482
 2405TIP3    H128706   3.897   1.194   2.704  0.0665 -0.9410 -0.5009
 2405TIP3    H228707   4.007   1.118   2.774 -0.0399  1.8142  2.9448
 2406TIP3   OH228708   1.487   2.894   5.895 -0.2250  0.1971  0.0449
 2406TIP3    H128709   1.417   2.953   5.869 -2.1401 -1.4513  1.1272
 2406TIP3    H228710   1.492   2.903   5.990 -1.0530 -1.7843  0.3344
 2407TIP3   OH228711   0.471   0.726   5.909 -0.2425  0.3508 -0.0419
 2407TIP3    H128712   0.390   0.749   5.954 -0.2404 -1.1583  0.8031
 2407TIP3    H228713   0.461   0.633   5.887  0.5592  0.5692 -1.4713
 2408TIP3   OH228714   1.328   5.352   5.765  0.1157  0.1241  0.4965
 2408TIP3    H128715   1.293   5.421   5.709  0.1043  1.3955  2.0096
 2408TIP3    H228716   1.259   5.285   5.767 -1.4715  1.7111  1.8681
 2409TIP3   OH228717   0.083   0.265  11.799 -0.4932 -0.4564 -0.1616
 2409TIP3    H128718   0.177   0.275  11.782 -0.0919 -1.2426  1.3435
 2409TIP3    H228719   0.049   0.354  11.794  0.1215 -0.2757 -1.7250
 2410TIP3   OH228720   5.424   0.380   1.371 -0.0162 -0.0035  0.3578
 2410TIP3    H128721   5.434   0.461   1.420 -0.8645  0.2943  0.0627
 2410TIP3    H228722   5.428   0.406   1.279 -1.1340 -0.1603  0.2525
 2411TIP3   OH228723   2.456   6.595   2.538  0.3210 -0.5090 -0.2097
 2411TIP3    H128724   2.364   6.578   2.516  0.0155  1.8351 -1.0603
 2411TIP3    H228725   2.493   6.633   2.458  1.2496  1.2258  0.9866
 2412TIP3   OH228726   5.389   6.786  12.895  0.2503 -0.2212 -0.0933
 2412TIP3    H128727   5.432   6.755  12.974 -0.5251  0.3491  0.5655
 2412TIP3    H228728   5.393   6.712  12.835 -0.7074 -1.2896  1.1019
 2413TIP3   OH228729   0.623   4.281   3.791  0.8671  0.1552 -0.5123
 2413TIP3    H128730   0.713   4.293   3.759  0.9103 -0.8933 -0.8304
 2413TIP3    H228731   0.571   4.266   3.712  0.7881 -1.3514 -0.2057
 2414TIP3   OH228732   3.039   0.932   1.964  0.2413  0.1001  0.2723
 2414TIP3    H128733   3.013   0.992   2.034  0.0735  0.8199 -0.3906
 2414TIP3    H228734   3.133   0.943   1.956 -0.0009  1.6135 -1.0155
 2415TIP3   OH228735   0.040   6.057   1.542  0.3900 -0.4682 -0.0616
 2415TIP3    H128736   0.057   6.151   1.531 -0.4342 -0.5359 -2.4038
 2415TIP3    H228737  -0.054   6.051   1.558  0.5095 -0.8812  0.5040
 2416TIP3   OH228738   1.386   1.733   5.767  0.8251  0.7166 -0.4756
 2416TIP3    H128739   1.337   1.779   5.835  1.2175 -1.5554  1.4736
 2416TIP3    H228740   1.463   1.699   5.812  1.2349 -0.6751 -2.1308
 2417TIP3   OH228741   0.784   2.318   2.308  0.2240  0.1323 -0.0171
 2417TIP3    H128742   0.697   2.287   2.334  0.2580 -0.2087 -0.3009
 2417TIP3    H228743   0.773   2.344   2.216  0.1112  1.2893  0.3190
 2418TIP3   OH228744   0.041   6.779   5.453  0.2544 -0.3256 -1.2606
 2418TIP3    H128745   0.013   6.746   5.538 -0.0255 -1.5128 -1.7880
 2418TIP3    H228746   0.005   6.867   5.449  0.1264 -0.3146 -0.2251
 2419TIP3   OH228747   6.630   2.431   4.513  0.4035  0.2443  0.4888
 2419TIP3    H128748   6.583   2.501   4.558  0.1830  0.1169  0.4623
 2419TIP3    H228749   6.587   2.425   4.427 -0.5924 -0.9152  1.0251
 2420TIP3   OH228750   5.455   0.953   4.391  0.3574  0.1195 -0.0063
 2420TIP3    H128751   5.524   0.993   4.337  1.1224 -1.3493 -0.1733
 2420TIP3    H228752   5.502   0.891   4.447 -0.7996 -0.6445  0.1457
 2421TIP3   OH228753   1.739   3.686   4.695  0.1142 -0.5744 -0.3424
 2421TIP3    H128754   1.689   3.663   4.616  0.1375  1.0591 -0.8824
 2421TIP3    H228755   1.790   3.762   4.669  0.2988 -0.1415  1.1954
 2422TIP3   OH228756   2.858   6.744  13.746  0.3234  0.1827 -0.4260
 2422TIP3    H128757   2.775   6.761  13.791  0.0002  0.1417 -0.9836
 2422TIP3    H228758   2.831   6.721  13.656  0.8592 -1.0961 -0.2783
 2423TIP3   OH228759   4.308   3.871  14.928 -0.3687 -0.0504  0.5405
 2423TIP3    H128760   4.276   3.840  14.843 -0.1717  0.0820  0.4154
 2423TIP3    H228761   4.345   3.793  14.969 -0.7470 -0.1809  0.6407
 2424TIP3   OH228762   4.580   1.523   2.377 -0.1219 -0.4592  0.2804
 2424TIP3    H128763   4.505   1.464   2.378 -1.2198  0.7376 -2.5195
 2424TIP3    H228764   4.548   1.604   2.417 -0.5404  0.2063 -1.3211
 2425TIP3   OH228765   4.547   5.392  11.717 -0.0263 -0.2391 -0.1206
 2425TIP3    H128766   4.568   5.440  11.637  1.3250 -0.2842  0.1663
 2425TIP3    H228767   4.500   5.314  11.687  0.1759 -0.0913 -0.8487
 2426TIP3   OH228768   1.485   2.481  17.170 -0.0309  0.3046 -0.4346
 2426TIP3    H128769   1.540   2.541  17.220  2.0289  0.5789 -2.8620
 2426TIP3    H228770   1.403   2.527  17.158  0.4047  1.3258  0.3885
 2427TIP3   OH228771   6.314   0.140   3.684 -0.4874  0.2701 -0.2592
 2427TIP3    H128772   6.224   0.146   3.652 -0.3879  1.2863 -0.4014
 2427TIP3    H228773   6.330   0.225   3.724  1.0236  0.8243 -1.9284
 2428TIP3   OH228774   6.128   3.791  13.753  0.4796 -0.2412 -0.1489
 2428TIP3    H128775   6.123   3.721  13.818  0.7251 -0.2437 -0.1320
 2428TIP3    H228776   6.128   3.872  13.804 -0.8273 -0.1873 -0.2083
 2429TIP3   OH228777   1.774   3.189   3.448 -0.4793 -0.2774  0.1448
 2429TIP3    H128778   1.729   3.175   3.532 -1.7962 -0.7232 -0.5935
 2429TIP3    H228779   1.816   3.105   3.429 -1.0432 -0.5079 -0.1150
 2430TIP3   OH228780   2.939   0.229  14.901  0.2497  0.3335 -0.3030
 2430TIP3    H128781   2.959   0.304  14.845 -0.4077 -0.2134 -1.2962
 2430TIP3    H228782   2.847   0.209  14.883  0.1592 -0.1533  0.6251
 2431TIP3   OH228783   4.706   5.243   0.603 -0.4611 -0.4073 -0.5457
 2431TIP3    H128784   4.704   5.259   0.508 -0.3999  0.8771 -0.3479
 2431TIP3    H228785   4.614   5.230   0.627 -0.4527 -1.0093 -0.8123
 2432TIP3   OH228786   2.752   3.424  16.920 -0.3792 -0.4244  0.9388
 2432TIP3    H128787   2.692   3.489  16.957 -0.5495 -0.9033  1.5199
 2432TIP3    H228788   2.698   3.347  16.905 -0.9738  0.5581 -2.9322
 2433TIP3   OH228789   6.538   2.484   0.300 -0.0990  0.3934 -0.2101
 2433TIP3    H128790   6.598   2.521   0.235  0.7583 -2.0267 -0.8974
 2433TIP3    H228791   6.592   2.472   0.378 -0.5048  1.0306  0.1781
 2434TIP3   OH228792   4.835   1.394  15.507  0.2097  0.3613 -0.1616
 2434TIP3    H128793   4.894   1.339  15.560  1.3395  0.1773 -1.5665
 2434TIP3    H228794   4.757   1.404  15.562  0.3430 -1.8571  0.5383
 2435TIP3   OH228795   3.573   2.107   0.864 -0.0114  0.0341  0.1731
 2435TIP3    H128796   3.646   2.111   0.802 -0.7673 -0.1578 -0.7494
 2435TIP3    H228797   3.576   2.017   0.898  0.2897  0.0813  0.2785
 2436TIP3   OH228798   4.632   4.512  11.905 -0.2900  0.0154 -0.6477
 2436TIP3    H128799   4.612   4.533  11.996  0.1314  0.0243 -0.5537
 2436TIP3    H228800   4.557   4.462  11.875 -0.5424  0.2236 -0.3686
 2437TIP3   OH228801   1.216   1.839  14.784 -0.3660  0.8083  0.3467
 2437TIP3    H128802   1.299   1.842  14.832  0.4908  0.7686 -1.0848
 2437TIP3    H228803   1.204   1.746  14.763 -0.6101  0.8583  0.2660
 2438TIP3   OH228804   3.532   0.746  13.935  0.1852 -0.3384  0.2698
 2438TIP3    H128805   3.561   0.793  13.857 -2.4041 -1.7424 -1.7296
 2438TIP3    H228806   3.485   0.811  13.987  1.6406  0.5357  0.5391
 2439TIP3   OH228807   5.703   1.350   1.659 -0.5728 -0.1381 -0.2975
 2439TIP3    H128808   5.739   1.338   1.747 -1.5670  0.7074  0.2523
 2439TIP3    H228809   5.773   1.322   1.600  0.8940  1.2207  0.7213
 2440TIP3   OH228810   6.507   3.086   1.836 -0.2843  0.5012 -0.4400
 2440TIP3    H128811   6.494   2.991   1.843  1.8716  0.2708  1.3353
 2440TIP3    H228812   6.581   3.095   1.775 -0.7407  1.0940 -0.9216
 2441TIP3   OH228813   1.801   0.106  16.114  0.2246  0.0054  0.9729
 2441TIP3    H128814   1.786   0.200  16.102  2.1407  0.2739  0.3120
 2441TIP3    H228815   1.843   0.100  16.200  1.8728  0.0247  0.2124
 2442TIP3   OH228816   1.018   4.358  15.923 -1.0184  0.3843 -0.2468
 2442TIP3    H128817   0.975   4.306  15.855 -0.9272 -0.6966  0.4798
 2442TIP3    H228818   1.014   4.302  16.001  1.8116  0.1795 -0.1637
 2443TIP3   OH228819   1.677   0.622   1.360  0.1420 -0.0028  0.0370
 2443TIP3    H128820   1.655   0.640   1.452 -0.8783 -1.5625  0.1269
 2443TIP3    H228821   1.772   0.619   1.359  0.2504  1.7518  0.6830
 2444TIP3   OH228822   5.222   3.158   5.060 -0.2533 -0.4678  0.2221
 2444TIP3    H128823   5.179   3.182   5.142  0.4614 -0.3596  0.5659
 2444TIP3    H228824   5.294   3.101   5.086 -0.7309 -1.4095 -0.4341
 2445TIP3   OH228825   0.523   3.112   2.719  0.0160 -0.0387  0.5745
 2445TIP3    H128826   0.613   3.137   2.742  1.2557 -0.9064 -2.7109
 2445TIP3    H228827   0.528   3.017   2.705 -1.8638 -0.3840  1.9161
 2446TIP3   OH228828   5.546   6.510  15.068 -0.3265  0.0548 -0.0113
 2446TIP3    H128829   5.617   6.573  15.083  0.1786 -0.6548  0.5977
 2446TIP3    H228830   5.585   6.443  15.012 -0.3921 -0.5500  0.6614
 2447TIP3   OH228831   1.635   1.723  11.741  0.3711  0.3647  0.0830
 2447TIP3    H128832   1.701   1.735  11.672 -1.0188 -1.3114 -1.6445
 2447TIP3    H228833   1.569   1.789  11.723  0.2444  0.2465  0.1173
 2448TIP3   OH228834   4.279   6.745  16.861 -0.3053  0.4146  0.3080
 2448TIP3    H128835   4.302   6.652  16.863  1.8018  0.8095 -1.4964
 2448TIP3    H228836   4.317   6.781  16.941 -1.0260 -0.2351  0.9571
 2449TIP3   OH228837   2.137   1.354   0.595 -0.9846 -0.5775  0.1604
 2449TIP3    H128838   2.132   1.441   0.634  0.8135 -0.2556 -0.2200
 2449TIP3    H228839   2.064   1.351   0.533 -0.4930  1.0732 -0.5712
 2450TIP3   OH228840   0.414   4.601   5.858 -0.4900 -0.1333 -0.2693
 2450TIP3    H128841   0.342   4.556   5.902 -0.3774 -1.9857 -1.8536
 2450TIP3    H228842   0.371   4.663   5.799 -0.6764  0.5349  0.5315
 2451TIP3   OH228843   2.874   0.660   2.292  0.1419 -0.5957 -0.0790
 2451TIP3    H128844   2.904   0.689   2.378 -0.5354 -1.1844  0.3668
 2451TIP3    H228845   2.801   0.601   2.311 -3.3970  2.9888 -1.1557
 2452TIP3   OH228846   0.913   4.149  10.950 -0.7389 -0.3134  0.3595
 2452TIP3    H128847   0.850   4.148  10.878  0.0186  0.6253 -0.3527
 2452TIP3    H228848   0.968   4.072  10.934 -0.5968 -0.1306 -0.0559
 2453TIP3   OH228849   1.530   4.950  12.408 -0.1467 -0.6636 -0.8954
 2453TIP3    H128850   1.513   5.032  12.454 -0.4341 -1.3637  0.2893
 2453TIP3    H228851   1.605   4.970  12.352 -0.8149  0.6673 -1.3697
 2454TIP3   OH228852   5.620   6.770  17.014  0.0949  0.5507 -0.0948
 2454TIP3    H128853   5.578   6.751  17.098  0.3286 -0.7942 -0.2710
 2454TIP3    H228854   5.552   6.756  16.948 -0.4148  2.6745 -0.1018
 2455TIP3   OH228855   5.626   6.071  15.372  0.0040 -0.6696 -0.8062
 2455TIP3    H128856   5.538   6.107  15.359 -0.6722 -1.6533  0.6574
 2455TIP3    H228857   5.640   6.014  15.296 -0.4531 -0.1746 -1.2674
 2456TIP3   OH228858   6.589   2.979   3.928  0.4012 -0.2331  0.2237
 2456TIP3    H128859   6.533   2.975   3.850  0.9291 -1.4559 -0.1156
 2456TIP3    H228860   6.533   3.018   3.996 -0.5569 -0.5630 -0.3600
 2457TIP3   OH228861   2.407   0.017  14.167 -0.0477 -0.5276  0.2299
 2457TIP3    H128862   2.482   0.070  14.139 -0.0468 -0.9711 -0.6461
 2457TIP3    H228863   2.418   0.008  14.261  0.5463  0.1170  0.2284
 2458TIP3   OH228864   5.096   1.476  16.312  0.1053 -0.0976 -0.5351
 2458TIP3    H128865   5.144   1.393  16.304 -0.8116 -0.5852 -1.2405
 2458TIP3    H228866   5.148   1.529  16.372 -0.0431 -1.7409  1.1101
 2459TIP3   OH228867   1.145   1.491  11.647  0.2859 -0.0205 -0.4491
 2459TIP3    H128868   1.213   1.551  11.618 -0.9767  1.6726 -0.0615
 2459TIP3    H228869   1.065   1.543  11.649 -0.5226 -1.1879  1.7613
 2460TIP3   OH228870   3.753   1.850   2.046  0.0531 -0.4683 -0.2868
 2460TIP3    H128871   3.828   1.902   2.077 -1.9410  1.6847  1.2756
 2460TIP3    H228872   3.759   1.768   2.095 -0.0778  0.7821  1.9511
 2461TIP3   OH228873   2.645   3.511  13.263  0.2117  0.6420 -0.1359
 2461TIP3    H128874   2.562   3.466  13.278 -0.4119  1.6879 -0.3370
 2461TIP3    H228875   2.639   3.591  13.316  1.5581  0.2120  0.7393
 2462TIP3   OH228876   1.901   6.678  13.189  0.3563 -0.1072 -0.1559
 2462TIP3    H128877   1.957   6.707  13.261 -1.2445  1.0945  0.6549
 2462TIP3    H228878   1.953   6.694  13.110  2.0611 -1.2423  0.6615
 2463TIP3   OH228879   4.318   1.121   1.828  1.1249  0.1262 -0.1829
 2463TIP3    H128880   4.370   1.151   1.754  2.2504  0.9948  0.9334
 2463TIP3    H228881   4.357   1.163   1.905 -0.4102 -0.2389  0.8463
 2464TIP3   OH228882   5.534   0.762   0.644 -0.7371  0.4723  0.5118
 2464TIP3    H128883   5.548   0.684   0.590  1.5476  1.0999  0.0850
 2464TIP3    H228884   5.490   0.824   0.586  0.7910  0.7760 -0.3984
 2465TIP3   OH228885   6.412   0.182   4.741  0.5491  0.0368 -0.3355
 2465TIP3    H128886   6.317   0.168   4.746  0.6900 -1.2789 -1.0032
 2465TIP3    H228887   6.427   0.205   4.649  0.7098  1.7574  0.0888
 2466TIP3   OH228888   2.258   4.887   0.470 -0.1874 -0.3322 -0.4985
 2466TIP3    H128889   2.344   4.870   0.432  0.8910  1.9698  0.7335
 2466TIP3    H228890   2.263   4.849   0.558  0.7765  2.4206  0.7354
 2467TIP3   OH228891   5.459   2.720   2.625 -0.6798  0.3677 -0.1752
 2467TIP3    H128892   5.399   2.793   2.614  1.2384  2.0166 -0.2553
 2467TIP3    H228893   5.546   2.760   2.626  0.3500 -1.6875  1.8990
 2468TIP3   OH228894   1.769   1.622   1.420 -0.2072 -0.2046 -0.6398
 2468TIP3    H128895   1.755   1.527   1.423  0.5557 -0.3089 -0.0255
 2468TIP3    H228896   1.810   1.637   1.335  1.3886 -0.6970  0.0020
 2469TIP3   OH228897   1.191   3.074   5.933 -0.6018  0.0673 -0.5289
 2469TIP3    H128898   1.114   3.023   5.908 -0.7531 -0.6359  1.2045
 2469TIP3    H228899   1.193   3.069   6.028  1.8849 -0.3586 -0.5406
 2470TIP3   OH228900   6.074   2.858   2.186  0.1192 -0.5298 -0.0069
 2470TIP3    H128901   6.118   2.811   2.115 -1.3307  0.6758 -1.7862
 2470TIP3    H228902   5.991   2.811   2.197 -0.1956  0.0306  0.0268
 2471TIP3   OH228903   6.781   6.509  14.639  0.0329 -0.5809  0.3634
 2471TIP3    H128904   6.779   6.413  14.639 -0.2942 -0.5830 -0.7802
 2471TIP3    H228905   6.693   6.535  14.613  1.2034 -0.0677 -3.9491
 2472TIP3   OH228906   4.333   3.158  11.945 -0.6421 -0.4990  0.5489
 2472TIP3    H128907   4.389   3.148  12.021  2.9774 -0.7736 -1.8898
 2472TIP3    H228908   4.360   3.241  11.906 -0.7036 -1.4319 -1.6332
 2473TIP3   OH228909   0.716   4.373  15.649  0.3225 -0.0751  0.5283
 2473TIP3    H128910   0.714   4.305  15.581 -1.1594  1.8597 -1.5266
 2473TIP3    H228911   0.799   4.419  15.635  0.0967  0.2136  0.0824
 2474TIP3   OH228912   0.275   5.811   4.084 -0.2968  0.0310  0.1164
 2474TIP3    H128913   0.310   5.727   4.115 -0.7493 -0.1887  0.0323
 2474TIP3    H228914   0.347   5.873   4.098  0.1769 -0.4407 -0.1652
 2475TIP3   OH228915   4.092   3.104  17.151  0.2579 -0.0940  0.4897
 2475TIP3    H128916   4.145   3.129  17.075  0.2301  0.4853  0.6533
 2475TIP3    H228917   4.015   3.061  17.114 -0.1973  0.9934  0.1244
 2476TIP3   OH228918   2.816   4.548  13.010 -0.0869 -0.1358 -0.8484
 2476TIP3    H128919   2.806   4.628  12.959 -1.8160 -1.4010 -2.7005
 2476TIP3    H228920   2.731   4.538  13.055  0.5759 -0.2821  0.4158
 2477TIP3   OH228921   5.909   1.189  13.399 -0.1810  0.5818 -0.2934
 2477TIP3    H128922   5.864   1.214  13.318  0.5257 -0.4999 -1.0501
 2477TIP3    H228923   5.996   1.226  13.390 -0.1000  0.4558 -0.0330
 2478TIP3   OH228924   3.751   0.570   4.695 -0.2136 -0.7926 -0.0900
 2478TIP3    H128925   3.761   0.640   4.630  4.1768 -0.9966  0.0645
 2478TIP3    H228926   3.704   0.501   4.649  0.5550  0.0367 -2.2658
 2479TIP3   OH228927   6.687   6.068   0.718  0.5565  0.4100 -0.7353
 2479TIP3    H128928   6.724   6.138   0.665 -2.0601  2.0879 -0.5479
 2479TIP3    H228929   6.683   5.993   0.658  1.7863  0.9099 -1.4826
 2480TIP3   OH228930   4.185   6.012   0.645 -0.4591  0.3527  0.0139
 2480TIP3    H128931   4.103   6.056   0.624 -0.7538 -0.4642 -0.5901
 2480TIP3    H228932   4.185   6.004   0.740 -2.1734 -1.6776 -0.0971
 2481TIP3   OH228933   2.414   4.971   6.014 -0.2872 -0.2106 -0.0028
 2481TIP3    H128934   2.440   5.004   6.100 -1.7452 -1.2888  0.8928
 2481TIP3    H228935   2.483   4.909   5.990  0.2964  0.3402  0.2114
 2482TIP3   OH228936   2.997   0.535  13.511 -0.1702  0.5531 -0.8828
 2482TIP3    H128937   2.984   0.555  13.604 -0.0112 -1.7942 -0.2978
 2482TIP3    H228938   3.092   0.540  13.499 -0.3016  2.5942 -1.4002
 2483TIP3   OH228939   5.136   3.105   4.534  0.5514 -0.2187  0.6554
 2483TIP3    H128940   5.163   3.015   4.517  0.2984  0.0262 -1.3078
 2483TIP3    H228941   5.055   3.115   4.484 -0.3854  0.6130  2.2334
 2484TIP3   OH228942   0.422   5.710  14.776  0.4944  0.1762 -0.2237
 2484TIP3    H128943   0.380   5.692  14.692  0.2798  1.0608 -0.3206
 2484TIP3    H228944   0.353   5.750  14.829  0.9601  0.7879 -0.0652
 2485TIP3   OH228945   1.873   0.158  13.311 -0.1012  0.2612 -0.3997
 2485TIP3    H128946   1.814   0.106  13.367 -1.8196  1.0375 -1.4358
 2485TIP3    H228947   1.958   0.153  13.356 -0.7246 -1.5991  0.6892
 2486TIP3   OH228948   2.073   1.422   5.904  0.4802 -0.1613  0.1174
 2486TIP3    H128949   2.131   1.397   5.976 -0.2282  1.6291  1.3808
 2486TIP3    H228950   2.132   1.452   5.835  1.1495 -1.2800  0.1751
 2487TIP3   OH228951   5.101   2.261   3.262 -0.1871  0.1374  0.2025
 2487TIP3    H128952   5.164   2.191   3.245 -0.8402 -0.7383  1.2504
 2487TIP3    H228953   5.034   2.220   3.318 -1.6058  1.0822 -0.7502
 2488TIP3   OH228954   0.308   4.056  12.045 -0.4554 -0.2362 -0.4488
 2488TIP3    H128955   0.242   4.071  12.113 -1.4411  0.0889 -1.4527
 2488TIP3    H228956   0.389   4.093  12.081 -1.1067  0.5240  0.2762
 2489TIP3   OH228957   0.399   1.730  12.814  0.7783  0.4379 -0.1103
 2489TIP3    H128958   0.405   1.650  12.867 -0.1476  0.2821 -0.2216
 2489TIP3    H228959   0.400   1.699  12.724 -0.9212  0.4116 -0.1552
 2490TIP3   OH228960   1.577   2.722  13.735  0.2166 -0.2036  0.6522
 2490TIP3    H128961   1.582   2.799  13.791 -0.8241  0.8523 -0.6396
 2490TIP3    H228962   1.516   2.664  13.780 -0.8431  0.7569  0.5192
 2491TIP3   OH228963   0.947   4.960   3.360  0.4365  0.0729 -0.0529
 2491TIP3    H128964   0.877   5.005   3.314  0.2455  0.0065  0.1713
 2491TIP3    H228965   0.974   5.020   3.429 -0.0592 -0.2976  0.4699
 2492TIP3   OH228966   1.178   4.218   5.529  0.1602 -0.2896  0.2521
 2492TIP3    H128967   1.258   4.239   5.480 -1.0454  2.1181 -0.8721
 2492TIP3    H228968   1.109   4.268   5.484 -2.1155 -2.6608  0.8471
 2493TIP3   OH228969   5.625   4.421   2.218  0.2398  0.1469 -0.1669
 2493TIP3    H128970   5.597   4.407   2.308 -0.6113  2.9705  0.0854
 2493TIP3    H228971   5.553   4.388   2.165 -0.3878  0.7675  0.2817
 2494TIP3   OH228972   0.886   1.109  16.628  0.1150 -0.0742  0.4385
 2494TIP3    H128973   0.957   1.132  16.568 -2.9725  2.4409 -2.6664
 2494TIP3    H228974   0.869   1.017  16.610  0.7202  0.0545 -0.9484
 2495TIP3   OH228975   0.630   0.763   1.067 -0.9903 -0.4894 -0.2237
 2495TIP3    H128976   0.659   0.677   1.036 -1.8088 -0.6747 -0.5010
 2495TIP3    H228977   0.656   0.824   0.998  1.1733 -0.2222  0.7530
 2496TIP3   OH228978   6.688   5.856   0.537 -0.3728 -0.4496  0.2978
 2496TIP3    H128979   6.661   5.872   0.447 -1.6681  0.3797  0.8185
 2496TIP3    H228980   6.778   5.890   0.542 -0.8504  0.9598 -0.2767
 2497TIP3   OH228981   6.092   3.281  12.320 -0.0536 -0.0489 -0.1256
 2497TIP3    H128982   6.144   3.203  12.299 -2.7163 -1.9443 -0.2353
 2497TIP3    H228983   6.074   3.321  12.236 -0.0282 -0.2505 -0.2275
 2498TIP3   OH228984   5.469   1.694  14.225  0.1373  0.2585 -0.2458
 2498TIP3    H128985   5.560   1.723  14.220 -0.1155  1.1964  0.1998
 2498TIP3    H228986   5.447   1.667  14.136  0.6493  0.6682 -0.5010
 2499TIP3   OH228987   0.934   6.056   0.285 -0.1206 -0.0730  0.6800
 2499TIP3    H128988   0.947   6.033   0.377 -0.1313  0.1148  0.7295
 2499TIP3    H228989   0.858   6.005   0.258 -0.2945  0.0865  0.8574
 2500TIP3   OH228990   5.360   2.420  13.703  0.4091 -0.1123  0.2498
 2500TIP3    H128991   5.286   2.426  13.765 -0.7749  3.1488 -1.2491
 2500TIP3    H228992   5.427   2.477  13.741  0.1947  0.8275 -0.7189
 2501TIP3   OH228993   2.552   5.950  16.671  0.0562 -0.9596  0.3537
 2501TIP3    H128994   2.517   5.867  16.703 -1.7411 -0.1813  0.5004
 2501TIP3    H228995   2.636   5.959  16.715  0.3706 -2.7667  0.2078
 2502TIP3   OH228996   5.592   4.233  13.019  0.1793 -0.1503 -0.2134
 2502TIP3    H128997   5.680   4.213  12.987  0.0830  0.0742 -0.6243
 2502TIP3    H228998   5.534   4.203  12.949  0.0101  1.1865 -0.6640
 2503TIP3   OH228999   6.166   0.436   3.879  0.4977 -0.4431 -0.1159
 2503TIP3    H129000   6.115   0.378   3.936  1.8766 -1.9306 -0.3147
 2503TIP3    H229001   6.183   0.514   3.932 -0.4587 -0.6757  0.5564
 2504TIP3   OH229002   6.205   4.750  15.472  0.3037 -0.3440  0.1014
 2504TIP3    H129003   6.203   4.686  15.543 -0.0815 -0.5464 -0.0897
 2504TIP3    H229004   6.142   4.817  15.497 -0.1976 -0.6636 -0.2748
 2505TIP3   OH229005   0.369   6.815   2.980  0.1554 -0.2726 -0.2040
 2505TIP3    H129006   0.407   6.739   3.023  0.0746 -0.1031  0.1761
 2505TIP3    H229007   0.325   6.863   3.051  0.7682  0.4734 -0.3125
 2506TIP3   OH229008   0.830   0.061   1.929  0.4100  0.1016 -0.1251
 2506TIP3    H129009   0.826   0.080   1.835 -1.0536 -1.0254 -0.3246
 2506TIP3    H229010   0.922   0.044   1.946  0.7998  0.9729 -1.2171
 2507TIP3   OH229011   0.335   4.499   1.567 -0.2191 -0.6027  0.1356
 2507TIP3    H129012   0.349   4.593   1.583  2.2957 -0.7148 -0.8722
 2507TIP3    H229013   0.260   4.496   1.508 -1.8924  0.5706  2.0828
 2508TIP3   OH229014   4.396   5.243   3.187 -0.6004  0.3921 -0.1290
 2508TIP3    H129015   4.359   5.326   3.216  0.2007  0.6783  0.0871
 2508TIP3    H229016   4.359   5.178   3.248 -0.2082  0.7691  0.5130
 2509TIP3   OH229017   3.417   2.381   1.307  0.1922  0.4648  0.0282
 2509TIP3    H129018   3.441   2.377   1.214 -1.9243  1.2139 -0.5995
 2509TIP3    H229019   3.434   2.293   1.340 -1.4539 -0.5988 -1.7353
 2510TIP3   OH229020   4.941   0.698  11.955 -0.0948 -0.0437  0.1102
 2510TIP3    H129021   4.990   0.615  11.950  0.8780  0.5345 -0.1195
 2510TIP3    H229022   4.880   0.694  11.880 -0.7092 -0.9420  0.6306
 2511TIP3   OH229023   3.695   0.457  16.114 -0.4340 -0.1189 -0.1426
 2511TIP3    H129024   3.743   0.495  16.041  0.2862 -0.4188  0.1606
 2511TIP3    H229025   3.700   0.524  16.183 -0.5096 -0.1218 -0.1346
 2512TIP3   OH229026   5.904   5.651  17.098 -0.1943  0.2111  0.6708
 2512TIP3    H129027   5.879   5.570  17.054 -1.3425  1.1649 -0.5210
 2512TIP3    H229028   6.000   5.653  17.092 -0.2419 -0.3227 -0.6494
 2513TIP3   OH229029   5.215   1.839  14.575  0.6242  0.1684 -0.0214
 2513TIP3    H129030   5.125   1.832  14.543  0.4366 -0.7435  0.6647
 2513TIP3    H229031   5.259   1.760  14.542  0.4507 -0.7443  1.8104
 2514TIP3   OH229032   5.020   5.806  14.862 -0.1017 -0.0431  0.4471
 2514TIP3    H129033   4.928   5.783  14.872 -0.1775 -0.1618 -0.5134
 2514TIP3    H229034   5.043   5.778  14.774  0.0278  2.7915 -0.5032
 2515TIP3   OH229035   3.315   2.837  13.647 -0.0083 -0.1969  0.4022
 2515TIP3    H129036   3.347   2.757  13.605 -0.2038  0.4450 -1.0576
 2515TIP3    H229037   3.266   2.807  13.723  1.4013 -1.3544  0.8701
 2516TIP3   OH229038   2.403   1.440   1.245  0.1790 -0.3834 -0.6616
 2516TIP3    H129039   2.463   1.368   1.265 -0.8476 -0.8691  0.8320
 2516TIP3    H229040   2.368   1.418   1.159  0.3260 -1.3743 -0.4826
 2517TIP3   OH229041   3.810   5.274   5.597 -0.0883  0.3480 -0.8335
 2517TIP3    H129042   3.771   5.186   5.601  0.9858 -0.1900 -1.7722
 2517TIP3    H229043   3.737   5.331   5.573 -0.5184 -0.4907 -1.5536
 2518TIP3   OH229044   2.713   0.655   1.326 -0.4885 -0.2386  0.3211
 2518TIP3    H129045   2.746   0.706   1.401 -0.9985  0.1445  0.2933
 2518TIP3    H229046   2.619   0.651   1.340 -0.4960 -0.8643  0.1212
 2519TIP3   OH229047   3.668   0.897   0.133  0.6059 -0.0056  0.4137
 2519TIP3    H129048   3.656   0.832   0.201 -2.0068  0.9144  0.9498
 2519TIP3    H229049   3.760   0.890   0.109  0.6390 -3.2649  1.0333
 2520TIP3   OH229050   1.832   2.294   5.724 -0.1766 -0.3907 -0.1711
 2520TIP3    H129051   1.902   2.281   5.788 -1.3010 -1.0514  0.9540
 2520TIP3    H229052   1.875   2.339   5.652  1.1224  0.4628  1.0714
 2521TIP3   OH229053   4.851   2.080   0.549 -0.5072 -0.1858  0.6655
 2521TIP3    H129054   4.887   2.146   0.490 -0.5727 -0.0773  0.7473
 2521TIP3    H229055   4.925   2.054   0.603 -0.4515 -0.2697  0.5507
 2522TIP3   OH229056   2.641   6.503  14.391 -0.2274  0.4501  0.0270
 2522TIP3    H129057   2.634   6.458  14.475 -2.3404  0.0745 -0.2859
 2522TIP3    H229058   2.733   6.528  14.384  0.1179 -0.0792  2.1402
 2523TIP3   OH229059   2.727   2.191  16.508 -0.2261 -0.3278  0.5650
 2523TIP3    H129060   2.639   2.180  16.543 -0.1432 -1.2588  0.5293
 2523TIP3    H229061   2.773   2.110  16.533 -0.1445 -1.0293 -1.5904
 2524TIP3   OH229062   0.861   0.760  13.335 -0.0665 -0.3773 -0.3528
 2524TIP3    H129063   0.902   0.796  13.414  2.7444 -0.2738 -1.7294
 2524TIP3    H229064   0.831   0.674  13.361  1.0943 -0.4743  0.7982
 2525TIP3   OH229065   4.386   0.610   1.358 -0.1889 -0.3102  0.4359
 2525TIP3    H129066   4.467   0.576   1.322  1.1027  0.9495  1.9834
 2525TIP3    H229067   4.346   0.658   1.286  0.5267 -0.7758 -0.2951
 2526TIP3   OH229068   5.970   3.287  14.663 -0.0317  0.1021  0.2273
 2526TIP3    H129069   6.061   3.282  14.636 -0.5400  1.0110 -1.9318
 2526TIP3    H229070   5.947   3.380  14.653 -1.3006 -0.1786  0.2756
 2527TIP3   OH229071   2.161   3.987  14.107  0.1038 -0.2054 -0.6211
 2527TIP3    H129072   2.168   3.954  14.017 -0.1549 -0.0780 -0.6892
 2527TIP3    H229073   2.244   3.963  14.147  0.0960 -0.5447 -0.8003
 2528TIP3   OH229074   3.109   5.715  11.477 -0.0895  0.1004 -0.7067
 2528TIP3    H129075   3.139   5.756  11.396  1.3984 -0.9071 -0.7147
 2528TIP3    H229076   3.106   5.621  11.457  2.1534 -0.4010  0.8790
 2529TIP3   OH229077   5.786   1.793   1.320 -0.0221  0.3476  0.1584
 2529TIP3    H129078   5.752   1.769   1.406  0.1795  0.6411  0.3187
 2529TIP3    H229079   5.755   1.723   1.262 -1.5102  0.9547  0.1623
 2530TIP3   OH229080   3.951   5.091   5.189  0.5572 -0.4879  0.1230
 2530TIP3    H129081   3.864   5.070   5.221  0.4264 -0.9075 -0.4744
 2530TIP3    H229082   4.001   5.115   5.267 -0.6067  1.7212  0.2612
 2531TIP3   OH229083   5.307   2.260  17.077  0.6110 -0.2624 -0.2684
 2531TIP3    H129084   5.360   2.310  17.015  1.1468 -1.9022 -1.1886
 2531TIP3    H229085   5.355   2.265  17.160  1.1912 -0.1295 -0.6075
 2532TIP3   OH229086   5.759   2.879   0.436  0.0464 -0.2420 -0.2698
 2532TIP3    H129087   5.824   2.868   0.506 -0.7449 -0.4320  0.4470
 2532TIP3    H229088   5.807   2.858   0.356  0.7180 -0.9583  0.3035
 2533TIP3   OH229089   3.796   2.586   0.700  0.1142  0.0217  0.1965
 2533TIP3    H129090   3.726   2.651   0.688  0.1526  0.2699  1.2601
 2533TIP3    H229091   3.824   2.598   0.790  1.7617  0.1363 -0.3127
 2534TIP3   OH229092   6.424   1.165  15.680 -0.1876  0.1429 -0.4419
 2534TIP3    H129093   6.361   1.121  15.736  0.9001  1.8014  2.2712
 2534TIP3    H229094   6.503   1.112  15.687 -0.0727  0.3061 -0.4953
 2535TIP3   OH229095   1.278   5.375  12.897  0.1341  0.1273 -0.0003
 2535TIP3    H129096   1.325   5.452  12.927 -2.2329  1.6899 -0.0416
 2535TIP3    H229097   1.324   5.347  12.819  2.0682  0.4106  0.9872
 2536TIP3   OH229098   0.031   5.103  13.422  0.3223 -0.5831 -0.1694
 2536TIP3    H129099   0.079   5.172  13.468 -0.1828 -0.1576 -0.2620
 2536TIP3    H229100   0.074   5.096  13.337 -0.1419  0.2077 -0.4742
 2537TIP3   OH229101   6.327   2.165  11.795  0.2239  0.2455  0.4554
 2537TIP3    H129102   6.305   2.115  11.716 -0.2571 -1.8972  1.8862
 2537TIP3    H229103   6.342   2.254  11.762  1.7599 -0.8941 -2.2937
 2538TIP3   OH229104   2.465   1.779  10.596 -0.0767  0.2605 -0.1411
 2538TIP3    H129105   2.539   1.763  10.654 -0.3036  2.0732  0.7145
 2538TIP3    H229106   2.402   1.711  10.618 -0.0979  0.8193  1.6768
 2539TIP3   OH229107   0.233   4.585  12.385 -0.3055  0.5976 -0.2384
 2539TIP3    H129108   0.164   4.643  12.353  0.1011  0.9968 -0.3895
 2539TIP3    H229109   0.295   4.643  12.428 -0.7003  0.1131  1.0592
 2540TIP3   OH229110   4.258   2.811  14.630  0.3280 -0.1031 -0.4233
 2540TIP3    H129111   4.184   2.859  14.594 -0.6562  0.8132  2.5254
 2540TIP3    H229112   4.333   2.870  14.621  0.0968  0.1224 -0.8738
 2541TIP3   OH229113   0.184   1.162  13.046  0.7918 -0.3573 -0.0128
 2541TIP3    H129114   0.106   1.216  13.029  0.1902 -0.8176  1.1370
 2541TIP3    H229115   0.212   1.132  12.960 -0.0536  0.1705 -0.4898
 2542TIP3   OH229116   0.826   2.215  17.011  0.0272  0.3758 -0.2233
 2542TIP3    H129117   0.789   2.271  17.079  0.4829 -1.5167  1.7136
 2542TIP3    H229118   0.909   2.256  16.987 -0.9758  2.0244 -0.9933
 2543TIP3   OH229119   0.176   3.309   3.429 -0.0865 -0.6257  0.1974
 2543TIP3    H129120   0.206   3.373   3.493 -1.8402  0.2338  0.2124
 2543TIP3    H229121   0.178   3.225   3.476  2.5341 -0.7066  0.0745
 2544TIP3   OH229122   5.566   0.367   2.522  0.2387  0.5239 -0.3405
 2544TIP3    H129123   5.516   0.286   2.522 -0.0746  0.6732 -2.1943
 2544TIP3    H229124   5.654   0.341   2.549 -0.0118 -0.3127 -0.3022
 2545TIP3   OH229125   1.001   4.939  14.787  0.0488 -0.1371  0.4170
 2545TIP3    H129126   0.926   4.880  14.775  1.1833 -1.6241  0.4071
 2545TIP3    H229127   1.074   4.881  14.806  1.6441  1.1070 -1.5249
 2546TIP3   OH229128   1.012   6.585  15.571  0.4983 -0.1173  0.4830
 2546TIP3    H129129   1.086   6.526  15.563 -0.2149 -1.0933  0.8700
 2546TIP3    H229130   0.944   6.533  15.613  0.4584  1.5252  2.5991
 2547TIP3   OH229131   1.306   1.603   4.223  0.2093 -0.2158  0.2324
 2547TIP3    H129132   1.364   1.566   4.290 -0.2449  0.1405  0.8210
 2547TIP3    H229133   1.271   1.683   4.262 -3.2120 -2.0102  1.2180
 2548TIP3   OH229134   2.633   1.635   4.114  0.5807  0.2936 -0.0413
 2548TIP3    H129135   2.567   1.578   4.152  0.5680  0.3186 -0.0261
 2548TIP3    H229136   2.657   1.592   4.031 -0.9243  1.2959 -1.0523
 2549TIP3   OH229137   2.345   4.128   2.427 -0.8006  0.5136  0.3780
 2549TIP3    H129138   2.395   4.138   2.346  1.2706  0.0712  1.5474
 2549TIP3    H229139   2.260   4.093   2.398  0.1558 -0.4118 -1.5253
 2550TIP3   OH229140   3.716   2.375   3.264  0.4916  0.3550  0.1779
 2550TIP3    H129141   3.742   2.467   3.252  0.7167  0.1788 -0.7432
 2550TIP3    H229142   3.621   2.376   3.254  0.5713  0.3738 -0.6050
 2551TIP3   OH229143   1.524   3.347  13.706 -0.2088  0.0562  0.0143
 2551TIP3    H129144   1.441   3.354  13.753  0.4520 -0.0649  1.2372
 2551TIP3    H229145   1.506   3.386  13.620 -1.3177  0.7194  0.5211
 2552TIP3   OH229146   5.668   0.329   3.797 -0.2517 -0.3737 -0.4588
 2552TIP3    H129147   5.759   0.300   3.786 -0.0326 -0.9567  2.1965
 2552TIP3    H229148   5.627   0.310   3.713  1.9389 -0.5931 -1.5588
 2553TIP3   OH229149   2.372   0.855  12.902  0.1880  0.7140 -0.7049
 2553TIP3    H129150   2.455   0.896  12.926  0.0684 -1.3077  4.5995
 2553TIP3    H229151   2.305   0.919  12.927  0.1236  0.4566 -0.2012
 2554TIP3   OH229152   6.314   0.900   0.824 -0.6991 -0.1662  0.1556
 2554TIP3    H129153   6.390   0.845   0.846 -0.1098  0.5764 -0.0023
 2554TIP3    H229154   6.245   0.837   0.803  0.1881 -0.8605 -0.7876
 2555TIP3   OH229155   1.982   0.037   5.545 -0.3700  0.4257  0.2036
 2555TIP3    H129156   1.911   0.027   5.481  1.7788 -0.9026 -2.1292
 2555TIP3    H229157   2.036   0.107   5.509 -0.0296  0.8860  1.5521
 2556TIP3   OH229158   3.854   3.633  14.638 -0.2246 -0.0142  0.2188
 2556TIP3    H129159   3.835   3.554  14.587  2.3152 -1.1633  0.8972
 2556TIP3    H229160   3.779   3.689  14.623 -1.5123 -2.0053 -1.3927
 2557TIP3   OH229161   6.457   2.731   2.939  0.4029  0.2992  0.2021
 2557TIP3    H129162   6.504   2.663   2.988 -0.1038  0.4377  0.8893
 2557TIP3    H229163   6.487   2.813   2.978 -0.4031  0.3881  0.6501
 2558TIP3   OH229164   4.791   2.165  16.501  0.4867  0.0245 -0.2927
 2558TIP3    H129165   4.729   2.098  16.471  0.3504  0.0600 -0.0897
 2558TIP3    H229166   4.742   2.247  16.497  0.3809 -0.0060  0.2868
 2559TIP3   OH229167   1.187   3.423   3.331  0.2207  0.0923  0.0753
 2559TIP3    H129168   1.141   3.355   3.282 -1.3005  2.1842 -1.5701
 2559TIP3    H229169   1.185   3.392   3.422 -2.0776 -1.1916 -0.3327
 2560TIP3   OH229170   3.239   6.820   1.735  0.2912 -0.6881  0.1983
 2560TIP3    H129171   3.192   6.738   1.750  1.3101 -1.4832 -0.7880
 2560TIP3    H229172   3.292   6.803   1.657  0.5411  0.9115 -0.0095
 2561TIP3   OH229173   0.824   1.097  13.356  0.1784 -0.2409 -0.0566
 2561TIP3    H129174   0.856   1.168  13.300 -0.7575  0.6520  0.5004
 2561TIP3    H229175   0.878   1.102  13.435 -0.7728  0.7846  0.5679
 2562TIP3   OH229176   0.182   0.175   4.038 -0.4543 -0.7237  0.4647
 2562TIP3    H129177   0.216   0.106   4.095  2.2379  0.4809  0.4708
 2562TIP3    H229178   0.221   0.158   3.953  2.3097  2.0126  1.0150
 2563TIP3   OH229179   6.414   1.184  14.499 -0.3867  0.2148 -0.2194
 2563TIP3    H129180   6.424   1.276  14.475  1.4845  1.1546  3.5196
 2563TIP3    H229181   6.336   1.182  14.555 -1.1200 -0.7890 -1.2164
 2564TIP3   OH229182   6.440   3.711  16.621 -0.7146  0.1679 -0.3522
 2564TIP3    H129183   6.486   3.629  16.641  1.8458  1.9489  1.7775
 2564TIP3    H229184   6.351   3.697  16.653 -0.7118 -2.1982 -1.2230
 2565TIP3   OH229185   2.493   6.650  16.914 -0.0506 -0.0419  0.3791
 2565TIP3    H129186   2.493   6.634  17.009  2.4069 -0.5112  0.3623
 2565TIP3    H229187   2.468   6.566  16.876 -1.0749  0.1550  0.5827
 2566TIP3   OH229188   0.018   0.172   3.333 -0.6439  0.0379 -0.0891
 2566TIP3    H129189  -0.013   0.184   3.422  0.1928 -1.2840  0.4100
 2566TIP3    H229190   0.033   0.261   3.301 -2.2636  0.5865  0.5830
 2567TIP3   OH229191   5.647   0.397  10.904  0.3425 -0.2934  0.5669
 2567TIP3    H129192   5.738   0.374  10.886  0.1716  0.0528 -0.8618
 2567TIP3    H229193   5.628   0.469  10.844 -0.9873 -0.6073  0.5715
 2568TIP3   OH229194   0.815   6.562   4.927 -0.4709 -0.1855 -0.1874
 2568TIP3    H129195   0.874   6.558   4.851  1.8418 -0.8400  1.5223
 2568TIP3    H229196   0.839   6.644   4.971 -0.9208 -0.4068  0.4769
 2569TIP3   OH229197   0.595   0.656   0.094 -0.0623 -0.0068  0.2173
 2569TIP3    H129198   0.534   0.618   0.030  1.7634 -1.1446 -0.9182
 2569TIP3    H229199   0.632   0.732   0.049  2.1791 -1.5387 -0.6790
 2570TIP3   OH229200   3.887   6.573   0.467 -0.1822 -0.5230 -0.1001
 2570TIP3    H129201   3.915   6.536   0.383  3.0769 -1.5400  1.2610
 2570TIP3    H229202   3.913   6.507   0.531 -2.5330  0.2423  1.7812
 2571TIP3   OH229203   5.871   4.033   2.145  0.9216  0.2273 -0.4581
 2571TIP3    H129204   5.945   4.084   2.180 -0.1586  1.7614 -0.3272
 2571TIP3    H229205   5.844   4.081   2.067  0.6782 -0.8760 -1.0682
 2572TIP3   OH229206   5.697   5.725  16.566 -0.3509 -0.4628  0.8308
 2572TIP3    H129207   5.709   5.814  16.532  1.1816 -0.3552  1.5972
 2572TIP3    H229208   5.620   5.692  16.518 -0.7230  1.1218  0.2598
 2573TIP3   OH229209   5.451   3.552   2.392  0.0214 -0.3529 -0.3530
 2573TIP3    H129210   5.470   3.475   2.338  1.5861 -1.3413  1.4714
 2573TIP3    H229211   5.520   3.552   2.458 -1.0260  1.5790  0.8251
 2574TIP3   OH229212   3.077   5.782   0.429 -0.0294  0.2830  0.0779
 2574TIP3    H129213   3.115   5.807   0.345 -1.0051 -0.4464 -0.6061
 2574TIP3    H229214   3.016   5.853   0.450 -1.7862 -0.7918 -1.1885
 2575TIP3   OH229215   0.084   3.010   1.803  0.0170  0.0080  0.0737
 2575TIP3    H129216   0.064   3.098   1.772 -1.4681  0.2687  1.6626
 2575TIP3    H229217   0.120   3.022   1.891 -1.2960 -1.0046  0.7874
 2576TIP3   OH229218   2.880   6.561  11.090 -0.1586  0.0148 -0.1045
 2576TIP3    H129219   2.798   6.576  11.042  1.1224  1.3622 -2.0132
 2576TIP3    H229220   2.908   6.474  11.063  0.3539  0.6081 -1.6158
 2577TIP3   OH229221   5.791   5.832   0.887 -0.4284  0.4734  0.5332
 2577TIP3    H129222   5.841   5.832   0.805  0.6779 -0.6796  1.1850
 2577TIP3    H229223   5.731   5.758   0.879 -1.9857  1.7364 -0.1659
 2578TIP3   OH229224   2.894   2.302   4.163 -0.0850  0.2716 -0.4502
 2578TIP3    H129225   2.881   2.359   4.088 -0.6181 -1.1459 -1.4866
 2578TIP3    H229226   2.858   2.350   4.237 -1.7803  0.7074 -1.5227
 2579TIP3   OH229227   2.491   2.119  15.423 -0.5679  0.4077 -0.0432
 2579TIP3    H129228   2.484   2.091  15.515 -1.1055 -1.3420 -0.5901
 2579TIP3    H229229   2.421   2.073  15.378 -1.1491  2.2575 -1.1360
 2580TIP3   OH229230   3.984   5.781  11.669  0.5476 -0.5319  0.2463
 2580TIP3    H129231   3.982   5.689  11.639  0.7172 -0.1919 -0.8635
 2580TIP3    H229232   3.947   5.778  11.757  0.1963 -1.6199  0.0859
 2581TIP3   OH229233   3.491   5.129  14.954 -0.2990 -0.4750 -0.3500
 2581TIP3    H129234   3.525   5.071  14.887  0.2817 -0.6067  0.0555
 2581TIP3    H229235   3.527   5.096  15.036  0.6735  0.9072 -0.1933
 2582TIP3   OH229236   1.730   3.942  11.039  0.2644  0.5827  0.0271
 2582TIP3    H129237   1.636   3.940  11.020  0.2609  1.0951 -0.0235
 2582TIP3    H229238   1.770   3.976  10.959  0.5110  0.1715 -0.0231
 2583TIP3   OH229239   2.864   5.862  10.886 -0.0310  0.5974  0.0284
 2583TIP3    H129240   2.907   5.777  10.899  1.1997  1.4339  1.9278
 2583TIP3    H229241   2.936   5.925  10.881 -0.9225  1.8784  1.8652
 2584TIP3   OH229242   0.284   0.058  12.103  0.3539  0.3870  0.7732
 2584TIP3    H129243   0.311   0.030  12.190  0.2251  0.3896  0.8141
 2584TIP3    H229244   0.198   0.018  12.091  0.7589 -0.3589  0.2885
 2585TIP3   OH229245   5.683   0.640  16.759  0.0912 -0.2574  0.0323
 2585TIP3    H129246   5.735   0.667  16.835  0.8516  2.5861 -1.3478
 2585TIP3    H229247   5.593   0.667  16.781  0.2774  0.3897  0.0281
 2586TIP3   OH229248   6.759   3.954   0.971 -0.2108  0.0536  0.2655
 2586TIP3    H129249   6.688   3.903   1.010 -0.2019 -0.5923 -0.5215
 2586TIP3    H229250   6.813   3.888   0.926 -0.4744  0.8010 -1.2124
 2587TIP3   OH229251   1.778   5.745   2.972  0.0016 -0.1433  0.2599
 2587TIP3    H129252   1.731   5.824   2.944  1.5721  0.7180 -0.0864
 2587TIP3    H229253   1.711   5.677   2.975 -1.2182  0.9735 -0.4105
 2588TIP3   OH229254   0.849   2.801  13.074 -0.0678  0.6329 -0.5556
 2588TIP3    H129255   0.769   2.804  13.021 -1.0315  1.1113  0.8450
 2588TIP3    H229256   0.846   2.882  13.126  0.3798 -0.1832  0.8078
 2589TIP3   OH229257   6.531   3.525   5.553 -0.0024 -0.4475  0.0664
 2589TIP3    H129258   6.624   3.516   5.535 -0.3243 -1.3649 -1.2959
 2589TIP3    H229259   6.500   3.591   5.490 -0.1931  0.2234  0.8459
 2590TIP3   OH229260   3.177   4.683   0.708 -0.1422 -0.0448 -0.8861
 2590TIP3    H129261   3.155   4.671   0.616 -1.0063  1.9261 -0.9794
 2590TIP3    H229262   3.093   4.703   0.750  0.2090 -1.0901  0.3880
 2591TIP3   OH229263   4.960   6.207   3.935  0.4641  0.2651  0.7029
 2591TIP3    H129264   4.938   6.294   3.969  0.2766 -0.0786  1.5018
 2591TIP3    H229265   5.010   6.223   3.855 -2.3655  1.0884 -1.0226
 2592TIP3   OH229266   5.220   2.535   2.384  0.0544 -0.0767 -0.3162
 2592TIP3    H129267   5.299   2.493   2.420 -1.5087 -3.3007 -0.2312
 2592TIP3    H229268   5.161   2.543   2.459 -0.9308 -1.0026 -0.9520
 2593TIP3   OH229269   4.383   3.688  13.189 -0.4389  0.2736  0.1226
 2593TIP3    H129270   4.329   3.614  13.159  1.1325 -0.5629 -0.7525
 2593TIP3    H229271   4.356   3.761  13.134 -0.3683 -0.2512 -0.6228
 2594TIP3   OH229272   5.478   1.893   2.732  0.1032  0.2239  0.2396
 2594TIP3    H129273   5.454   1.869   2.822 -0.5964 -1.5887 -0.3850
 2594TIP3    H229274   5.426   1.971   2.714 -1.4672 -0.6616  0.6984
 2595TIP3   OH229275   0.074   3.468  13.074  0.4666 -0.5247  0.5130
 2595TIP3    H129276   0.006   3.404  13.052 -1.0812  0.3941  2.3129
 2595TIP3    H229277   0.025   3.550  13.087  2.3848  1.1643 -2.0039
 2596TIP3   OH229278   4.190   0.823   2.679 -0.0662 -0.3278 -0.1821
 2596TIP3    H129279   4.241   0.895   2.642 -1.7508  0.4599 -1.0562
 2596TIP3    H229280   4.243   0.792   2.753  1.3802  0.8220 -0.6886
 2597TIP3   OH229281   4.594   0.455   1.314  0.0526 -0.5508  0.1500
 2597TIP3    H129282   4.625   0.480   1.401  0.6792  0.8341 -0.4358
 2597TIP3    H229283   4.671   0.463   1.257 -0.5204 -0.6942 -0.6682
 2598TIP3   OH229284   5.846   5.903   2.116 -0.9040 -0.0611 -0.7410
 2598TIP3    H129285   5.914   5.890   2.183  0.9723  1.0643 -2.3213
 2598TIP3    H229286   5.793   5.975   2.150  0.2883  0.7941 -0.6103
 2599TIP3   OH229287   3.436   1.239  15.883 -0.3258  0.3710  0.6088
 2599TIP3    H129288   3.471   1.271  15.966 -1.9781  2.0342  0.7452
 2599TIP3    H229289   3.489   1.283  15.816  1.9261 -2.0330  0.6788
 2600TIP3   OH229290   3.932   0.537   4.392  0.4118 -0.0723  0.0419
 2600TIP3    H129291   4.017   0.581   4.393  0.2436  0.4566 -2.1617
 2600TIP3    H229292   3.924   0.505   4.302 -1.4585 -0.6623  0.3831
 2601TIP3   OH229293   2.753   6.740  15.021 -0.2406 -0.3029 -0.5370
 2601TIP3    H129294   2.800   6.700  15.094 -1.7014  2.5690  2.2349
 2601TIP3    H229295   2.662   6.744  15.050 -1.5073 -1.6416 -3.8463
 2602TIP3   OH229296   0.334   3.806  14.338 -0.7514 -0.5361  0.3718
 2602TIP3    H129297   0.404   3.786  14.400 -1.5985 -2.2018  0.8354
 2602TIP3    H229298   0.304   3.894  14.363  1.2318  0.2727  0.0663
 2603TIP3   OH229299   0.093   0.090   4.690 -0.3472  0.4970  0.6246
 2603TIP3    H129300   0.030   0.122   4.626 -0.3427  0.3069  0.5228
 2603TIP3    H229301   0.103  -0.003   4.669  1.9215  1.0347 -1.0510
 2604TIP3   OH229302   6.063   1.921  14.559 -0.2145 -0.3056 -0.3815
 2604TIP3    H129303   6.113   1.881  14.631  1.8586  0.7809 -1.1148
 2604TIP3    H229304   6.045   2.010  14.588 -0.2814 -0.1850 -0.7821
 2605TIP3   OH229305   4.451   5.047   3.448 -0.2095 -0.5071 -0.2853
 2605TIP3    H129306   4.471   4.965   3.491 -0.1814 -0.4367 -0.1650
 2605TIP3    H229307   4.501   5.044   3.366 -0.4292 -0.7309 -0.4144
 2606TIP3   OH229308   3.383   1.800  11.834  0.4144 -0.4759 -0.4812
 2606TIP3    H129309   3.368   1.847  11.751  1.2512 -0.6893 -0.7627
 2606TIP3    H229310   3.317   1.730  11.834 -0.4365  0.2982 -0.3512
 2607TIP3   OH229311   3.369   0.958  15.773 -0.2329 -0.1893  0.4370
 2607TIP3    H129312   3.332   1.046  15.771 -1.9712 -0.8919 -0.0713
 2607TIP3    H229313   3.382   0.936  15.680 -0.7198 -0.8111  0.5092
 2608TIP3   OH229314   1.702   1.531  13.508 -0.7007  0.7931 -0.2298
 2608TIP3    H129315   1.678   1.611  13.460  0.0812  1.2442  0.1126
 2608TIP3    H229316   1.760   1.562  13.578  0.8231 -0.2349 -0.9916
 2609TIP3   OH229317   1.337   4.648  16.172 -0.3673  0.0846  0.1319
 2609TIP3    H129318   1.278   4.674  16.102  0.3354 -0.4288 -0.6658
 2609TIP3    H229319   1.292   4.675  16.252 -0.8709  1.3196 -0.5308
 2610TIP3   OH229320   5.601   3.000   1.213  0.1365 -0.6659 -0.0027
 2610TIP3    H129321   5.542   2.927   1.198 -0.0401 -1.2492  2.9332
 2610TIP3    H229322   5.688   2.966   1.190 -0.0621 -1.4945  0.4486
 2611TIP3   OH229323   5.404   4.103  13.243 -0.9498  0.1196  0.3678
 2611TIP3    H129324   5.354   4.180  13.216 -0.7838  0.0936 -0.0240
 2611TIP3    H229325   5.494   4.123  13.215 -1.1529 -0.8403 -1.0831
 2612TIP3   OH229326   5.746   3.780  15.984  0.7317  0.6244 -0.6548
 2612TIP3    H129327   5.744   3.857  16.040  0.4452  0.3874 -0.3285
 2612TIP3    H229328   5.804   3.719  16.031 -0.0190  0.1841 -0.2849
 2613TIP3   OH229329   2.118   6.408  12.873 -0.3685 -0.3918  0.4507
 2613TIP3    H129330   2.042   6.364  12.837 -1.1913  0.4796  1.0509
 2613TIP3    H229331   2.172   6.430  12.797 -0.8567 -0.7623 -0.0060
 2614TIP3   OH229332   3.342   5.158  16.693  0.0633 -0.3939  0.8829
 2614TIP3    H129333   3.360   5.111  16.612 -2.6485 -0.2493  0.1003
 2614TIP3    H229334   3.390   5.241  16.684 -0.5875 -0.1729 -0.8304
 2615TIP3   OH229335   0.191   5.277  12.415 -0.0112  0.5067 -0.1846
 2615TIP3    H129336   0.241   5.339  12.469 -1.6143  0.1902  1.8257
 2615TIP3    H229337   0.245   5.198  12.414  0.6305  0.9318 -0.1073
 2616TIP3   OH229338   6.099   1.409  14.859  0.3582 -0.1703 -0.0405
 2616TIP3    H129339   6.188   1.435  14.883 -0.5134  0.8916  2.3053
 2616TIP3    H229340   6.054   1.491  14.841  0.0283 -0.7499 -2.1087
 2617TIP3   OH229341   0.740   0.896   1.626 -1.0188 -0.9488  0.0454
 2617TIP3    H129342   0.760   0.942   1.545 -2.8913  0.7768  0.4856
 2617TIP3    H229343   0.815   0.914   1.683 -1.7849  1.9948  0.3157
 2618TIP3   OH229344   4.266   4.418   4.629  0.4787  0.2341 -0.6585
 2618TIP3    H129345   4.306   4.445   4.546  0.6259 -1.1605 -1.0711
 2618TIP3    H229346   4.311   4.337   4.652 -1.2334 -0.7177 -0.4946
 2619TIP3   OH229347   2.032   3.377   0.477 -0.4507 -0.1787 -0.0563
 2619TIP3    H129348   2.093   3.433   0.428 -1.8808  1.8129  0.3330
 2619TIP3    H229349   2.083   3.347   0.553  1.1678 -1.7027 -1.6129
 2620TIP3   OH229350   4.615   6.456   0.422  0.4522  0.0306  0.0331
 2620TIP3    H129351   4.618   6.367   0.456 -1.3011 -0.5885 -1.2880
 2620TIP3    H229352   4.706   6.486   0.424  0.9726 -1.5101  1.1753
 2621TIP3   OH229353   2.313   6.575   5.394 -0.6692 -0.2695 -0.3031
 2621TIP3    H129354   2.373   6.518   5.346 -0.7456 -1.0749  0.5164
 2621TIP3    H229355   2.364   6.653   5.415 -0.0122 -0.7808  0.0446
 2622TIP3   OH229356   3.714   2.439   5.658 -0.4663 -0.0614 -0.3996
 2622TIP3    H129357   3.758   2.356   5.671  0.0354  0.2192 -0.2891
 2622TIP3    H229358   3.733   2.463   5.567  1.6937  1.2425  0.3206
 2623TIP3   OH229359   5.905   0.820  14.623  0.5434 -0.0587 -0.1691
 2623TIP3    H129360   5.890   0.899  14.572  2.0688 -0.2694 -1.0195
 2623TIP3    H229361   5.959   0.765  14.566  0.1463 -1.4015  0.6912
 2624TIP3   OH229362   1.741   0.212   1.329  0.1109  0.3399 -0.4133
 2624TIP3    H129363   1.749   0.132   1.276 -1.4645  1.0745 -1.8361
 2624TIP3    H229364   1.828   0.223   1.369  0.8030 -1.2426 -1.3887
 2625TIP3   OH229365   2.985   1.355  13.657  0.1426 -0.5257 -0.6260
 2625TIP3    H129366   2.974   1.438  13.612  0.8644 -0.1914 -0.2107
 2625TIP3    H229367   3.021   1.296  13.591  1.6583  0.0929 -0.4003
 2626TIP3   OH229368   2.050   6.672   3.771 -0.4415  0.3326 -0.3179
 2626TIP3    H129369   2.117   6.716   3.719 -0.2426 -0.0230 -0.3632
 2626TIP3    H229370   1.997   6.625   3.706  0.5107 -1.0676 -0.1051
 2627TIP3   OH229371   0.486   4.915   0.357 -0.2468  0.0730  0.1585
 2627TIP3    H129372   0.448   4.950   0.438  1.3342  0.4211  0.7924
 2627TIP3    H229373   0.484   4.820   0.368 -2.2244  0.0137 -0.4580
 2628TIP3   OH229374   0.305   1.629  15.441  0.5153  0.1121 -0.1856
 2628TIP3    H129375   0.337   1.675  15.363  0.6321  0.7900  0.2610
 2628TIP3    H229376   0.245   1.691  15.483  1.6461  0.3582  1.1064
 2629TIP3   OH229377   6.392   1.424   0.911 -0.0498  0.6331  0.1467
 2629TIP3    H129378   6.322   1.411   0.847 -0.4717  1.7999  0.3579
 2629TIP3    H229379   6.470   1.388   0.868 -0.9145 -1.6010  0.2969
 2630TIP3   OH229380   4.054   1.198  16.037  0.3775 -0.2161 -0.5795
 2630TIP3    H129381   4.034   1.208  15.944 -3.9055  0.4554  0.2121
 2630TIP3    H229382   4.100   1.114  16.043  0.8930 -0.2087 -3.2573
 2631TIP3   OH229383   0.719   5.039  15.504  0.2380  0.1148  0.7921
 2631TIP3    H129384   0.729   4.948  15.530  1.4633  1.0677  4.1577
 2631TIP3    H229385   0.635   5.065  15.541  0.9314  0.9000  1.8700
 2632TIP3   OH229386   0.149   2.356   5.618 -0.0755  0.2386 -0.3768
 2632TIP3    H129387   0.087   2.421   5.652 -1.4000 -0.9678 -0.3757
 2632TIP3    H229388   0.229   2.405   5.603 -1.2558  2.0503 -1.1195
 2633TIP3   OH229389   3.768   2.908  14.384 -0.0158  0.0726  0.2829
 2633TIP3    H129390   3.740   2.824  14.421 -2.2925  0.8847  0.5724
 2633TIP3    H229391   3.780   2.890  14.291  0.6788 -0.8218  0.5305
 2634TIP3   OH229392   5.015   1.945  17.110 -0.5080 -0.2550 -0.1159
 2634TIP3    H129393   4.933   1.941  17.059 -0.2198 -0.7447 -0.5586
 2634TIP3    H229394   5.063   1.867  17.082  0.6659  0.6822 -0.8123
 2635TIP3   OH229395   0.801   4.080  14.673 -0.2227  0.3383 -0.0156
 2635TIP3    H129396   0.855   4.145  14.717 -0.2505  0.0915  0.3894
 2635TIP3    H229397   0.801   4.005  14.732 -0.2574  0.0003 -0.4401
 2636TIP3   OH229398   4.371   2.198  15.019  0.1767 -1.1040 -0.0106
 2636TIP3    H129399   4.307   2.162  15.080 -0.3180  0.8142  0.6753
 2636TIP3    H229400   4.395   2.283  15.056  2.0418 -1.1251 -1.0205
 2637TIP3   OH229401   1.782   4.575  14.221  0.1184  0.3046 -0.3217
 2637TIP3    H129402   1.833   4.649  14.190  0.8518  0.3496  0.9450
 2637TIP3    H229403   1.822   4.550  14.304 -1.2975 -0.2921  0.2304
 2638TIP3   OH229404   6.174   5.828  11.798  0.1719  0.2871 -0.1706
 2638TIP3    H129405   6.196   5.744  11.759 -0.3992  0.3017 -0.5373
 2638TIP3    H229406   6.123   5.806  11.876 -0.5041  0.2951 -0.5982
 2639TIP3   OH229407   3.460   6.130   0.398 -0.2765  0.2880  0.2667
 2639TIP3    H129408   3.402   6.205   0.386 -1.5216 -0.7114 -0.1285
 2639TIP3    H229409   3.536   6.166   0.444  0.3536  2.3419 -2.1101
 2640TIP3   OH229410   6.508   2.111  14.951 -0.1996 -0.9229  0.2228
 2640TIP3    H129411   6.422   2.089  14.988 -0.5323  0.4621  0.3162
 2640TIP3    H229412   6.571   2.068  15.009 -0.8099 -2.3487 -0.1135
 2641TIP3   OH229413   0.995   1.155   3.462 -0.0262  0.1269  0.5114
 2641TIP3    H129414   1.076   1.185   3.506  0.5792  0.6308 -0.9018
 2641TIP3    H229415   0.964   1.084   3.517  0.4962  0.9794  1.9782
 2642TIP3   OH229416   1.127   1.402  15.541 -0.0704  0.0057  0.2007
 2642TIP3    H129417   1.188   1.427  15.610 -0.6131 -0.1291  0.7331
 2642TIP3    H229418   1.099   1.484  15.502  0.0484  0.0919  0.2962
 2643TIP3   OH229419   2.476   5.472   5.054 -0.4351 -1.0277  0.1232
 2643TIP3    H129420   2.530   5.465   5.133 -0.4360 -1.0379  0.1228
 2643TIP3    H229421   2.490   5.562   5.023 -1.4169 -0.6133  0.8391
 2644TIP3   OH229422   5.459   3.859   5.633 -0.7361 -0.1931  0.5298
 2644TIP3    H129423   5.476   3.819   5.718 -1.3469  1.2430  1.3633
 2644TIP3    H229424   5.371   3.830   5.611 -2.5735  3.0771  2.6903
 2645TIP3   OH229425   2.852   1.449   4.598  0.0566  0.2904 -0.4192
 2645TIP3    H129426   2.805   1.380   4.645  1.2869  0.0519  0.5225
 2645TIP3    H229427   2.783   1.507   4.565 -1.0092 -1.2984 -1.1390
 2646TIP3   OH229428   1.436   0.943   2.145  0.6199 -0.7176 -1.0353
 2646TIP3    H129429   1.362   0.924   2.088  0.2537 -2.2269 -0.1002
 2646TIP3    H229430   1.497   0.870   2.131  1.1918 -0.3388 -0.5783
 2647TIP3   OH229431   4.466   2.347   5.037 -0.7459  0.1070 -0.2646
 2647TIP3    H129432   4.453   2.255   5.012 -2.5110  0.6600 -1.5773
 2647TIP3    H229433   4.497   2.389   4.958 -0.7153  0.7940  0.1089
 2648TIP3   OH229434   0.368   3.914   0.496 -0.4814 -0.7773  0.3470
 2648TIP3    H129435   0.405   3.904   0.408 -3.5793  2.1979 -1.5482
 2648TIP3    H229436   0.444   3.905   0.555  2.0436 -1.2118 -2.7022
 2649TIP3   OH229437   5.921   1.768   0.341 -0.7850  0.3522  0.0058
 2649TIP3    H129438   5.922   1.700   0.274  0.1429  0.8257 -0.4667
 2649TIP3    H229439   5.976   1.733   0.411 -1.8627 -0.2024  0.6137
 2650TIP3   OH229440   1.905   4.616  16.016  0.3087  0.3178 -0.1429
 2650TIP3    H129441   1.857   4.698  16.030  1.1984  0.9113 -0.4531
 2650TIP3    H229442   1.925   4.616  15.922  2.0398  0.7522  0.1916
 2651TIP3   OH229443   4.645   2.133  15.848  0.3199  0.3814  0.2194
 2651TIP3    H129444   4.581   2.145  15.918 -0.9183  0.2657 -0.8589
 2651TIP3    H229445   4.693   2.054  15.874  0.0950  0.5117  1.0825
 2652TIP3   OH229446   1.673   1.387  10.925  0.2927 -0.3590 -0.2461
 2652TIP3    H129447   1.743   1.323  10.938 -0.5525 -1.2273  0.0948
 2652TIP3    H229448   1.640   1.370  10.837  0.1871 -0.2662 -0.2251
 2653TIP3   OH229449   0.834   5.954  12.517 -0.0550  0.6400  0.1604
 2653TIP3    H129450   0.907   5.975  12.575  1.5345 -0.4699 -1.3331
 2653TIP3    H229451   0.849   5.863  12.491 -0.6901  1.0798 -1.9713
 2654TIP3   OH229452   0.370   4.024  10.454  0.1253 -0.0502  0.3967
 2654TIP3    H129453   0.314   4.087  10.498  1.1432 -0.0158  1.6872
 2654TIP3    H229454   0.309   3.968  10.406 -0.9907  0.2093  1.4624
 2655TIP3   OH229455   5.719   4.108  17.141 -0.3364  0.1539  0.2116
 2655TIP3    H129456   5.720   4.089  17.235 -1.3581 -1.2058 -0.0130
 2655TIP3    H229457   5.786   4.175  17.129 -0.3206  0.4930  1.9340
 2656TIP3   OH229458   4.412   1.958  13.944 -0.2063  0.1214  0.3610
 2656TIP3    H129459   4.484   1.895  13.945 -0.7245 -0.6161 -1.6231
 2656TIP3    H229460   4.454   2.044  13.950  0.6203 -0.3477  1.6808
 2657TIP3   OH229461   2.070   1.547  11.693 -0.0538 -0.2815 -0.5412
 2657TIP3    H129462   2.061   1.457  11.662 -0.6586  0.1733 -1.7693
 2657TIP3    H229463   1.992   1.592  11.659  0.4662  0.8052 -0.3452
 2658TIP3   OH229464   3.201   5.151  15.831 -0.3911  0.0179 -0.0391
 2658TIP3    H129465   3.123   5.108  15.865  0.0835 -1.7065 -1.0560
 2658TIP3    H229466   3.216   5.111  15.746  1.1435  0.8983 -0.2185
 2659TIP3   OH229467   6.369   5.485   0.887  0.1171 -0.0390  0.2595
 2659TIP3    H129468   6.381   5.442   0.972 -0.5035 -0.2018  0.2720
 2659TIP3    H229469   6.412   5.427   0.824  1.3152  0.5029  0.5581
 2660TIP3   OH229470   4.746   6.207   2.493 -0.4402 -0.4365  0.2808
 2660TIP3    H129471   4.696   6.147   2.547  1.3469 -1.2163  1.1667
 2660TIP3    H229472   4.808   6.248   2.554 -0.0767  0.5635 -0.7281
 2661TIP3   OH229473   1.096   4.111  13.130 -0.1629 -0.2278  0.3794
 2661TIP3    H129474   1.089   4.189  13.186 -2.6480 -0.4368  0.4696
 2661TIP3    H229475   1.088   4.145  13.041 -1.6781 -0.3505  0.4339
 2662TIP3   OH229476   3.546   1.573   4.993 -0.3363  0.5185 -0.3492
 2662TIP3    H129477   3.525   1.560   4.900  1.5277  2.1300 -1.0728
 2662TIP3    H229478   3.611   1.506   5.012 -0.1113  0.7097 -0.4432
 2663TIP3   OH229479   5.004   3.970  11.749  0.1893  0.8917 -0.0973
 2663TIP3    H129480   4.934   3.912  11.720  0.2629  0.4779  0.5331
 2663TIP3    H229481   4.979   4.056  11.716  0.0123  0.5322 -0.9262
 2664TIP3   OH229482   2.745   5.334   2.525 -0.1719 -0.5057 -0.6905
 2664TIP3    H129483   2.769   5.409   2.472  0.2666  0.2436  0.5174
 2664TIP3    H229484   2.717   5.372   2.609 -0.1154 -1.6699 -0.1242
 2665TIP3   OH229485   2.745   6.107  10.391 -0.2278  0.1568  0.1385
 2665TIP3    H129486   2.815   6.048  10.417 -0.1734  0.1345 -0.0577
 2665TIP3    H229487   2.669   6.049  10.378  0.1900 -0.0771 -1.4887
 2666TIP3   OH229488   0.745   3.261  11.737  0.2319  0.4904  0.4807
 2666TIP3    H129489   0.674   3.325  11.746 -0.1758  0.6240 -2.6219
 2666TIP3    H229490   0.824   3.309  11.762 -0.1967  1.9965 -0.8826
 2667TIP3   OH229491   2.676   3.914   4.674  0.2008 -0.7449 -0.7458
 2667TIP3    H129492   2.669   3.880   4.763 -0.5710  2.0552  0.3615
 2667TIP3    H229493   2.770   3.919   4.657  0.3476 -1.7962 -0.3250
 2668TIP3   OH229494   3.539   1.531   6.021 -0.4451  0.1138  0.6559
 2668TIP3    H129495   3.530   1.599   5.954 -0.1693 -1.3841 -0.9777
 2668TIP3    H229496   3.546   1.450   5.971  0.4029 -1.0005  2.5070
 2669TIP3   OH229497   4.532   6.479   3.882 -0.4423 -0.2379  0.0173
 2669TIP3    H129498   4.609   6.461   3.828 -0.4225  0.7671 -0.3134
 2669TIP3    H229499   4.562   6.544   3.945 -0.4018 -1.5659  1.4331
 2670TIP3   OH229500   5.399   3.715   0.868 -0.5969 -1.0823  0.5570
 2670TIP3    H129501   5.391   3.672   0.953  0.5344 -2.5404 -0.0376
 2670TIP3    H229502   5.319   3.768   0.861 -1.0732 -1.5176  2.1810
 2671TIP3   OH229503   6.387   5.375  11.485 -0.4744 -0.5887 -0.4583
 2671TIP3    H129504   6.441   5.450  11.463 -1.6542  0.5866  0.5104
 2671TIP3    H229505   6.324   5.369  11.413 -1.9577  0.9484  0.6256
 2672TIP3   OH229506   4.146   3.286   1.503  0.6074  0.4419 -0.0732
 2672TIP3    H129507   4.218   3.333   1.546  0.9506 -0.0308 -0.1253
 2672TIP3    H229508   4.187   3.244   1.427  0.3813 -0.2313  0.1733
 2673TIP3   OH229509   3.129   1.759  11.576  0.5627  0.6758  0.1185
 2673TIP3    H129510   3.094   1.672  11.597  1.9751  0.3219  1.1452
 2673TIP3    H229511   3.053   1.808  11.546 -0.1488 -1.1186 -1.1959
 2674TIP3   OH229512   4.651   0.419  12.699  0.5064 -0.2696  0.6007
 2674TIP3    H129513   4.607   0.392  12.779  1.8237 -2.2400  0.7385
 2674TIP3    H229514   4.587   0.405  12.629  1.6663 -6.9395  0.1966
 2675TIP3   OH229515   2.073   4.567  11.185 -0.5488  0.0479 -0.2192
 2675TIP3    H129516   2.061   4.567  11.090 -2.4767  0.5879 -0.0312
 2675TIP3    H229517   2.156   4.612  11.199  0.1086 -0.6709 -1.6668
 2676TIP3   OH229518   5.838   6.215  12.259  0.0009 -0.4299 -0.1043
 2676TIP3    H129519   5.892   6.152  12.307  1.9548  1.7679  0.8078
 2676TIP3    H229520   5.862   6.203  12.167 -0.6343 -1.8564 -0.0989
 2677TIP3   OH229521   0.688   5.133  10.458  1.3117 -0.2088  0.5463
 2677TIP3    H129522   0.595   5.119  10.479  0.5845  0.3915 -1.9754
 2677TIP3    H229523   0.689   5.216  10.409  2.8528 -1.3170 -1.4170
 2678TIP3   OH229524   2.021   3.751   0.403 -0.1180  0.3438 -0.1131
 2678TIP3    H129525   1.977   3.816   0.348  0.1570 -1.0377 -2.0869
 2678TIP3    H229526   1.954   3.724   0.466 -1.8303 -0.8673 -2.3165
 2679TIP3   OH229527   1.336   1.146  16.350 -0.0164 -0.0552 -0.7305
 2679TIP3    H129528   1.384   1.221  16.387  0.8321 -1.8060  2.0042
 2679TIP3    H229529   1.388   1.119  16.274  0.4287  1.2275 -0.9089
 2680TIP3   OH229530   5.091   4.166  14.851 -0.6764 -0.7116  0.5609
 2680TIP3    H129531   4.997   4.183  14.853 -0.7154 -0.6516 -0.8136
 2680TIP3    H229532   5.098   4.073  14.831 -0.4585 -0.5141 -0.3389
 2681TIP3   OH229533   6.444   6.335  14.739 -0.2029  0.0854 -0.4743
 2681TIP3    H129534   6.408   6.295  14.818 -0.7010  0.7720 -0.3473
 2681TIP3    H229535   6.399   6.419  14.731  0.3142  0.3157 -1.1275
 2682TIP3   OH229536   3.751   3.095   2.855 -0.3546  0.6300 -0.1540
 2682TIP3    H129537   3.674   3.152   2.863 -0.1574  0.8407  0.2847
 2682TIP3    H229538   3.820   3.141   2.903 -0.4856 -0.4977  1.1954
 2683TIP3   OH229539   5.869   5.633   1.128 -0.1544 -0.3150 -0.0265
 2683TIP3    H129540   5.926   5.619   1.052  1.5152  0.3927  1.0486
 2683TIP3    H229541   5.812   5.705   1.103  1.1377  0.6669 -0.2359
 2684TIP3   OH229542   4.233   2.840  12.616  0.0837 -0.0053 -0.1840
 2684TIP3    H129543   4.167   2.871  12.554  0.1615  0.0697 -0.2300
 2684TIP3    H229544   4.244   2.913  12.677  1.8612  0.9615 -1.5496
 2685TIP3   OH229545   3.814   5.731   0.155  0.3519  0.3523  0.5537
 2685TIP3    H129546   3.746   5.797   0.168 -1.0058 -0.7221 -0.6095
 2685TIP3    H229547   3.870   5.738   0.232 -0.7445  1.6749  1.2857
 2686TIP3   OH229548   6.390   1.192  14.994 -0.0540 -0.0316 -0.4149
 2686TIP3    H129549   6.461   1.132  15.015  1.2716  1.3596 -0.7162
 2686TIP3    H229550   6.312   1.137  14.987  0.9620 -1.5760  0.0823
 2687TIP3   OH229551   3.792   1.617  13.193 -0.1436 -0.0743 -0.4414
 2687TIP3    H129552   3.830   1.662  13.268 -0.2180 -0.3903 -0.2100
 2687TIP3    H229553   3.702   1.598  13.219  0.1170 -1.0727 -0.2042
 2688TIP3   OH229554   0.021   1.853  12.680  0.6574  0.5000 -0.0940
 2688TIP3    H129555   0.078   1.856  12.603  2.5132 -1.9435  1.0469
 2688TIP3    H229556  -0.066   1.838  12.645  1.4818 -0.6887 -1.7346
 2689TIP3   OH229557   0.074   6.084   3.795  0.1079  0.3842 -0.0076
 2689TIP3    H129558   0.040   6.067   3.707  0.9930 -0.6546 -0.1785
 2689TIP3    H229559   0.077   6.179   3.802 -1.8199  0.4968 -0.3474
 2690TIP3   OH229560   2.186   6.708  16.547  0.1199 -0.9935 -0.6897
 2690TIP3    H129561   2.103   6.722  16.593 -0.9856 -0.1376 -2.8192
 2690TIP3    H229562   2.177   6.621  16.508 -0.2008 -0.5096 -1.7179
 2691TIP3   OH229563   0.008   2.565   5.662  0.4868 -0.4374 -0.4781
 2691TIP3    H129564  -0.068   2.535   5.613  1.3513  1.1307 -2.9296
 2691TIP3    H229565  -0.029   2.611   5.738 -1.1040  1.3430 -2.2337
 2692TIP3   OH229566   5.640   5.968   5.291  0.5709  0.2150 -0.9836
 2692TIP3    H129567   5.636   6.059   5.320  1.0026  0.1305 -0.6502
 2692TIP3    H229568   5.715   5.931   5.338  1.8717  0.2988 -2.8829
 2693TIP3   OH229569   6.391   6.259  15.012 -0.3003  0.2369  0.1760
 2693TIP3    H129570   6.467   6.305  15.046 -1.6476  2.3758  0.4839
 2693TIP3    H229571   6.414   6.166  15.017  2.3483  0.8161 -0.0116
 2694TIP3   OH229572   1.844   1.254  11.388  0.4092  0.5219 -0.4669
 2694TIP3    H129573   1.752   1.272  11.370  0.2694 -1.6557 -2.3436
 2694TIP3    H229574   1.891   1.324  11.342 -0.2283  2.0906  1.1137
 2695TIP3   OH229575   3.430   3.732  14.550 -0.3463  0.2642  0.4631
 2695TIP3    H129576   3.405   3.681  14.627 -1.0400 -0.4800 -0.2483
 2695TIP3    H229577   3.383   3.692  14.477  1.4637  0.0008 -0.6236
 2696TIP3   OH229578   5.413   5.560   5.129 -0.2040 -0.0467 -0.1555
 2696TIP3    H129579   5.388   5.487   5.184  0.6712  0.1731  0.5529
 2696TIP3    H229580   5.421   5.635   5.189  0.3899  0.2805 -0.6282
 2697TIP3   OH229581   6.732   5.336   4.690 -0.1857  0.5829  0.1389
 2697TIP3    H129582   6.755   5.353   4.782 -0.2717  0.3379  0.2072
 2697TIP3    H229583   6.764   5.247   4.674 -3.2154 -0.7782  0.9736
 2698TIP3   OH229584   1.488   2.813   0.902 -0.2912 -0.4650 -0.0433
 2698TIP3    H129585   1.485   2.732   0.954 -0.0408 -0.6572 -0.3211
 2698TIP3    H229586   1.541   2.790   0.825  1.4706  0.4960  0.8084
 2699TIP3   OH229587   6.415   2.666  15.431  0.2450 -0.0650 -0.0680
 2699TIP3    H129588   6.391   2.584  15.475  2.1976 -0.1973  0.8537
 2699TIP3    H229589   6.441   2.725  15.502  3.2999 -0.2308 -0.8843
 2700TIP3   OH229590   0.910   4.751   4.028 -0.4851 -0.3306  0.4359
 2700TIP3    H129591   0.851   4.688   3.986 -0.2067 -2.1681  2.6348
 2700TIP3    H229592   0.991   4.702   4.040  1.5823  2.0685 -2.3370
 2701TIP3   OH229593   1.798   0.266  12.337 -0.3466  0.4707 -0.2575
 2701TIP3    H129594   1.794   0.193  12.399  0.8080 -1.2968 -2.1751
 2701TIP3    H229595   1.890   0.293  12.337 -0.1271 -0.2090 -1.8908
 2702TIP3   OH229596   4.882   3.331  12.578 -0.0582 -0.0208  0.4788
 2702TIP3    H129597   4.899   3.364  12.666 -2.5215  1.3780  0.5180
 2702TIP3    H229598   4.829   3.253  12.591  0.3007 -0.3143  0.2244
 2703TIP3   OH229599   6.181   4.093  12.836  0.1973 -0.1057 -0.1142
 2703TIP3    H129600   6.244   4.162  12.859 -0.9288  0.8562  0.1712
 2703TIP3    H229601   6.227   4.011  12.858  1.7786  0.4923 -0.9997
 2704TIP3   OH229602   5.037   5.706  11.623  0.1467 -0.5733  0.7859
 2704TIP3    H129603   4.948   5.730  11.650 -0.4277 -1.7132  0.0119
 2704TIP3    H229604   5.028   5.679  11.532  1.5310  0.4670  0.2988
 2705TIP3   OH229605   5.747   0.928   0.739  0.2798 -0.4803 -0.0784
 2705TIP3    H129606   5.695   0.980   0.679  0.2176  0.0953  0.4620
 2705TIP3    H229607   5.743   0.839   0.704 -0.6839 -0.3578 -0.2980
 2706TIP3   OH229608   6.400   0.887  14.729 -0.0529 -0.0862  0.0330
 2706TIP3    H129609   6.476   0.884  14.671  0.4114 -0.1875  0.6478
 2706TIP3    H229610   6.436   0.908  14.815 -0.8401  1.0938  0.1009
 2707TIP3   OH229611   1.068   3.276   0.566  0.2605 -0.3867  0.6692
 2707TIP3    H129612   1.100   3.270   0.476 -0.4733 -1.0892  0.4493
 2707TIP3    H229613   0.973   3.280   0.558  0.2204  0.4542  1.3756
 2708TIP3   OH229614   5.589   4.557   4.006 -0.0437 -0.5901 -0.2251
 2708TIP3    H129615   5.676   4.519   4.017  0.0242 -0.6143 -0.7880
 2708TIP3    H229616   5.585   4.628   4.069  1.0195  0.4866 -1.3226
 2709TIP3   OH229617   2.445   0.347   0.441  0.7921 -0.6628  0.1365
 2709TIP3    H129618   2.431   0.440   0.420 -0.8733 -0.6220  1.2157
 2709TIP3    H229619   2.506   0.347   0.514 -1.1346 -0.1953  1.8525
 2710TIP3   OH229620   3.769   0.207  15.098 -0.3882  0.0654 -0.2520
 2710TIP3    H129621   3.699   0.231  15.158  0.1744 -1.5226  1.1009
 2710TIP3    H229622   3.848   0.242  15.138  0.2083 -2.3686  0.8697
 2711TIP3   OH229623   5.017   5.121   5.742 -0.3794  0.0230 -0.3127
 2711TIP3    H129624   5.011   5.189   5.810  0.2545  1.3832 -1.5734
 2711TIP3    H229625   4.930   5.118   5.703 -0.3990  0.0986 -0.2740
 2712TIP3   OH229626   1.073   3.753  13.532  0.4246  0.1237 -0.0845
 2712TIP3    H129627   1.153   3.775  13.483  0.5160 -1.0174 -0.4631
 2712TIP3    H229628   1.070   3.819  13.602  1.0303  0.9336 -0.7933
 2713TIP3   OH229629   0.696   1.276   2.331 -0.7154  0.3459 -0.1280
 2713TIP3    H129630   0.789   1.280   2.353 -0.6732 -0.2014 -0.1936
 2713TIP3    H229631   0.683   1.349   2.270  0.0999 -0.6954 -1.6190
 2714TIP3   OH229632   2.907   1.272   1.080  0.1861  0.1496  0.6097
 2714TIP3    H129633   2.930   1.193   1.129 -1.1685  0.5192  1.9076
 2714TIP3    H229634   2.949   1.343   1.127  2.8549  0.1511 -1.5206
 2715TIP3   OH229635   1.036   3.607   1.738 -0.1623  0.3131 -0.2464
 2715TIP3    H129636   1.057   3.517   1.765 -2.3153 -0.3381 -0.5950
 2715TIP3    H229637   1.000   3.648   1.817 -2.0548 -0.1275 -0.8396
 2716TIP3   OH229638   4.683   5.305   0.313 -0.5161  0.3043  0.1135
 2716TIP3    H129639   4.590   5.305   0.291 -0.8875  2.3458  1.3800
 2716TIP3    H229640   4.727   5.327   0.231 -1.1059 -0.8077 -0.5261
 2717TIP3   OH229641   5.771   4.789   5.416 -0.2658 -0.7936 -0.6518
 2717TIP3    H129642   5.691   4.756   5.376  0.3064 -0.9233 -1.7089
 2717TIP3    H229643   5.745   4.812   5.505 -1.2145 -1.8713 -0.6312
 2718TIP3   OH229644   4.043   0.175   3.854 -0.5665 -0.3798 -0.1627
 2718TIP3    H129645   4.032   0.150   3.946 -2.6199  1.5216  0.2041
 2718TIP3    H229646   3.969   0.135   3.809  1.0135 -2.2061 -1.2759
 2719TIP3   OH229647   1.339   2.614   4.874  0.5807 -0.5340 -0.2602
 2719TIP3    H129648   1.302   2.592   4.960  0.0497 -1.6720 -0.7541
 2719TIP3    H229649   1.291   2.558   4.813 -0.1677  1.3854 -1.5140
 2720TIP3   OH229650   5.724   2.872  16.966  0.2483  0.0359  0.4747
 2720TIP3    H129651   5.694   2.940  17.028  0.8766  0.9571 -0.1960
 2720TIP3    H229652   5.794   2.915  16.917 -0.4683 -0.5516 -1.1271
 2721TIP3   OH229653   4.162   2.990   0.207  0.8110  0.4636 -0.1457
 2721TIP3    H129654   4.136   3.005   0.116 -1.6310  0.6400  0.4841
 2721TIP3    H229655   4.155   2.895   0.219 -1.1612  0.6197  0.3800
 2722TIP3   OH229656   3.846   5.773   2.011  0.4476 -0.1988  0.1989
 2722TIP3    H129657   3.879   5.851   1.968  1.3930 -0.6320  0.1123
 2722TIP3    H229658   3.756   5.764   1.980  0.2245  1.0114  0.4425
 2723TIP3   OH229659   4.374   2.612  14.356  0.2454 -0.0957  0.4036
 2723TIP3    H129660   4.394   2.704  14.375  0.4962 -0.2138  0.7031
 2723TIP3    H229661   4.447   2.563  14.393  0.9061 -0.3122 -1.1234
 2724TIP3   OH229662   0.367   4.307  11.336 -0.2008 -0.1064 -0.4365
 2724TIP3    H129663   0.310   4.327  11.261 -2.4968  0.2535  1.2765
 2724TIP3    H229664   0.371   4.389  11.384  2.1555 -0.0330 -0.6766
 2725TIP3   OH229665   3.378   0.315  14.544 -0.1182  0.4247 -0.6496
 2725TIP3    H129666   3.378   0.391  14.602 -1.4863  0.8651 -1.1817
 2725TIP3    H229667   3.335   0.345  14.464  0.3639 -0.5887 -1.3135
 2726TIP3   OH229668   3.532   1.968  14.011  0.1026 -0.1617 -0.3501
 2726TIP3    H129669   3.613   1.918  14.007  2.6967  3.6648 -1.3128
 2726TIP3    H229670   3.480   1.934  13.938  1.4061 -1.7879 -0.5995
 2727TIP3   OH229671   5.840   0.738  13.982 -0.4860 -0.1608  0.4423
 2727TIP3    H129672   5.896   0.696  13.916 -0.1281 -1.9298  1.8021
 2727TIP3    H229673   5.755   0.745  13.939  0.2304  0.6280 -0.9172
 2728TIP3   OH229674   0.305   0.182  12.868 -0.1805 -0.1995  0.0465
 2728TIP3    H129675   0.320   0.179  12.774  0.5751  0.5359  0.1330
 2728TIP3    H229676   0.283   0.092  12.892  0.0068 -0.4699 -0.7681
 2729TIP3   OH229677   4.623   6.267  11.021  0.3270  0.7090  0.5226
 2729TIP3    H129678   4.694   6.204  11.032  0.3035  0.1597 -2.0268
 2729TIP3    H229679   4.662   6.351  11.044  1.9321  0.4472 -1.0630
 2730TIP3   OH229680   4.860   5.440   5.180 -0.1313 -0.1180 -0.5712
 2730TIP3    H129681   4.815   5.368   5.224 -0.8341 -0.2038 -1.4106
 2730TIP3    H229682   4.796   5.473   5.117 -0.3413  2.1279  0.7057
 2731TIP3   OH229683   2.656   5.370   0.069 -0.7222  0.1793 -0.4219
 2731TIP3    H129684   2.668   5.454   0.024  0.3330  0.6463  0.6740
 2731TIP3    H229685   2.619   5.393   0.154  0.7353 -0.3173  0.3896
 2732TIP3   OH229686   1.841   0.094  11.509  0.9776 -0.4395 -0.2979
 2732TIP3    H129687   1.805   0.006  11.495 -2.0387  0.2527  1.9046
 2732TIP3    H229688   1.817   0.142  11.430 -0.2961 -0.8109 -0.1595
 2733TIP3   OH229689   1.588   3.888   6.135 -0.2511 -0.1601 -0.0767
 2733TIP3    H129690   1.495   3.885   6.160 -0.3419  1.4691 -0.0752
 2733TIP3    H229691   1.597   3.971   6.088  0.4574 -1.9069 -3.2871
 2734TIP3   OH229692   3.023   6.665  14.033 -0.0097  0.3357  0.0104
 2734TIP3    H129693   3.008   6.571  14.040  0.7368  0.3081  2.2007
 2734TIP3    H229694   2.957   6.704  14.090 -0.0661  1.1118 -0.5804
 2735TIP3   OH229695   2.029   2.308  14.717  0.2120 -0.3398 -0.2087
 2735TIP3    H129696   2.021   2.221  14.678  1.5132 -1.3527  1.6002
 2735TIP3    H229697   2.010   2.369  14.646  0.9397 -2.0813 -1.9779
 2736TIP3   OH229698   4.255   4.697   4.671 -0.6994 -0.0454 -0.2133
 2736TIP3    H129699   4.219   4.610   4.656 -0.9862 -0.2338  1.4043
 2736TIP3    H229700   4.238   4.715   4.763  2.5603  0.2253  0.4647
 2737TIP3   OH229701   4.593   5.793   1.536  0.3452 -0.0334 -0.2885
 2737TIP3    H129702   4.635   5.779   1.451 -1.3688  0.0155 -1.1972
 2737TIP3    H229703   4.520   5.852   1.516  0.3508  0.5755  1.3738
 2738TIP3   OH229704   2.199   5.127  11.817  0.4332  0.3040  0.3545
 2738TIP3    H129705   2.128   5.131  11.753  0.7833 -1.5929 -0.1977
 2738TIP3    H229706   2.179   5.198  11.878 -1.1072  0.7679 -0.6239
 2739TIP3   OH229707   0.683   3.248   0.962  0.5757 -0.2822  0.2432
 2739TIP3    H129708   0.718   3.243   0.873 -1.6997  0.4923 -0.7638
 2739TIP3    H229709   0.678   3.341   0.981 -2.8159 -0.1773 -0.5519
 2740TIP3   OH229710   2.183   0.652   4.796 -0.5587 -0.1093  0.0290
 2740TIP3    H129711   2.206   0.677   4.886  1.1976  0.2807 -0.4899
 2740TIP3    H229712   2.114   0.714   4.772 -0.0281  0.7541  0.6253
 2741TIP3   OH229713   4.398   6.736  15.348  0.7088 -0.1346  0.0924
 2741TIP3    H129714   4.414   6.793  15.273  1.1167  0.1913  0.4236
 2741TIP3    H229715   4.478   6.684  15.356  0.3334 -0.7781 -0.2189
 2742TIP3   OH229716   2.126   4.551  12.378 -0.2642  0.3723  0.6197
 2742TIP3    H129717   2.084   4.465  12.379  3.0790 -1.4438  2.1310
 2742TIP3    H229718   2.106   4.586  12.291 -0.1331 -2.8853 -0.8902
 2743TIP3   OH229719   6.728   3.973   5.421  0.0891 -0.0707 -0.1718
 2743TIP3    H129720   6.726   4.055   5.373  0.5655  0.2535  0.3485
 2743TIP3    H229721   6.730   3.905   5.353 -1.0215  0.3090 -0.6098
 2744TIP3   OH229722   0.469   6.054  13.972 -0.4140 -0.3117  0.0415
 2744TIP3    H129723   0.449   6.134  13.924  0.7887 -0.1405 -0.2033
 2744TIP3    H229724   0.501   5.993  13.906  0.9504 -0.1839  0.5518
 2745TIP3   OH229725   6.648   5.748  11.007 -0.4395  0.5404 -0.5907
 2745TIP3    H129726   6.560   5.727  11.038 -0.0190 -0.3588  0.0149
 2745TIP3    H229727   6.653   5.707  10.920 -0.7630  0.9725 -0.8179
 2746TIP3   OH229728   2.058   3.097   5.450  0.1067  0.2629  0.2330
 2746TIP3    H129729   2.137   3.149   5.452  0.6227 -0.4701 -0.4633
 2746TIP3    H229730   2.025   3.105   5.361  0.4497 -0.9386 -0.0274
 2747TIP3   OH229731   2.290   3.978  10.807  0.0434  0.6177  0.4446
 2747TIP3    H129732   2.319   3.887  10.815 -1.1448  0.3219  1.8879
 2747TIP3    H229733   2.369   4.029  10.823  0.8308 -0.1301 -0.8461
 2748TIP3   OH229734   5.315   0.118  13.292  0.4681 -0.2761 -0.5928
 2748TIP3    H129735   5.325   0.160  13.377 -0.6281  1.7826 -1.4035
 2748TIP3    H229736   5.368   0.171  13.232  0.3265 -1.0183 -1.4026
 2749TIP3   OH229737   3.107   1.038  11.906  0.0411 -0.3239 -0.8050
 2749TIP3    H129738   3.070   1.018  11.992 -0.2968  0.1102 -0.8489
 2749TIP3    H229739   3.172   0.969  11.892 -1.6867 -1.9261 -1.3346
 2750TIP3   OH229740   3.093   0.224   3.001 -0.6091  0.1714  0.3548
 2750TIP3    H129741   3.088   0.132   2.973  0.1103  0.4092 -0.5828
 2750TIP3    H229742   3.183   0.250   2.983 -0.9302  1.1999  0.1638
 2751TIP3   OH229743   3.203   2.064  17.107  0.1333 -0.0232 -0.1839
 2751TIP3    H129744   3.183   1.972  17.122  1.0798  0.0106  1.4446
 2751TIP3    H229745   3.117   2.105  17.093 -0.3315 -1.0514 -0.4402
 2752TIP3   OH229746   1.375   1.531  15.564  0.1945  0.3728  0.3975
 2752TIP3    H129747   1.353   1.565  15.650 -0.8363 -0.0055  0.3000
 2752TIP3    H229748   1.374   1.436  15.576 -1.4556  0.2567 -0.3450
 2753TIP3   OH229749   1.236   5.529  15.540  0.1166 -0.3526 -0.9449
 2753TIP3    H129750   1.209   5.437  15.534 -0.3693 -0.1816 -1.4400
 2753TIP3    H229751   1.157   5.578  15.519  0.0890  0.1980  0.3938
 2754TIP3   OH229752   2.457   3.944   0.690 -0.3768  0.3913  0.4177
 2754TIP3    H129753   2.534   3.894   0.717 -1.3433 -0.6571  1.3508
 2754TIP3    H229754   2.383   3.893   0.721 -1.6140 -0.2592 -3.1075
 2755TIP3   OH229755   5.657   4.315  12.333 -0.0298 -0.2564 -0.5719
 2755TIP3    H129756   5.697   4.392  12.375 -0.2635 -0.4537  0.0313
 2755TIP3    H229757   5.700   4.241  12.375  0.4987 -0.4630 -1.4550
 2756TIP3   OH229758   6.098   4.461   5.026  0.3623  0.1792  0.0590
 2756TIP3    H129759   6.005   4.475   5.042  0.3794  1.0655 -0.5472
 2756TIP3    H229760   6.126   4.401   5.096 -0.4127  0.7822  0.8996
 2757TIP3   OH229761   3.433   3.643   5.321  0.0513  0.1499  0.0952
 2757TIP3    H129762   3.374   3.582   5.365  0.6969  0.1406  0.9547
 2757TIP3    H229763   3.410   3.729   5.356 -0.0079  0.2495 -0.1849
 2758TIP3   OH229764   0.966   3.442  11.821  0.5891  0.0134  0.1223
 2758TIP3    H129765   1.025   3.402  11.885  0.9723 -0.6906 -0.6548
 2758TIP3    H229766   0.950   3.530  11.855 -1.0730 -1.0796  2.3972
 2759TIP3   OH229767   5.075   3.388  16.311 -0.1026  0.0656 -0.3907
 2759TIP3    H129768   5.165   3.370  16.335  1.1435  1.7074 -3.3294
 2759TIP3    H229769   5.023   3.351  16.383  2.8123 -1.5514  1.0622
 2760TIP3   OH229770   0.477   3.836  11.765 -0.2502 -0.1050  0.4919
 2760TIP3    H129771   0.518   3.910  11.810 -1.4764  0.0715  1.3848
 2760TIP3    H229772   0.422   3.795  11.832 -1.0190 -0.7079 -0.4801
 2761TIP3   OH229773   0.252   4.799  12.777  0.2376  0.3221 -0.1664
 2761TIP3    H129774   0.282   4.890  12.768  1.0803  0.0464 -0.2696
 2761TIP3    H229775   0.216   4.794  12.865 -1.5087  1.2218 -0.8004
 2762TIP3   OH229776   3.251   5.792  14.784  0.2332 -0.1842 -0.0241
 2762TIP3    H129777   3.321   5.851  14.759 -1.5740  1.8703 -0.4855
 2762TIP3    H229778   3.296   5.716  14.822  2.6510  1.4132  0.5101
 2763TIP3   OH229779   0.723   5.120   5.193 -0.4672  0.8119 -0.2740
 2763TIP3    H129780   0.728   5.042   5.138 -0.1134  0.2653  0.5141
 2763TIP3    H229781   0.634   5.117   5.230 -0.1597  0.2621  0.4694
 2764TIP3   OH229782   0.549   2.537  12.901 -0.3527  0.0593  0.1010
 2764TIP3    H129783   0.453   2.535  12.895 -0.4352  1.6978  0.4034
 2764TIP3    H229784   0.569   2.627  12.929  1.3357  0.1132 -1.1712
 2765TIP3   OH229785   6.526   1.860  15.897  0.3724  0.1111  0.3049
 2765TIP3    H129786   6.484   1.804  15.832  2.4955 -0.9956 -0.1881
 2765TIP3    H229787   6.591   1.910  15.848  1.8365 -0.5486  1.5041
 2766TIP3   OH229788   0.280   3.269   0.427  0.4862  0.3038 -0.2243
 2766TIP3    H129789   0.216   3.340   0.435  0.8411  0.6450 -0.3649
 2766TIP3    H229790   0.315   3.278   0.339  1.5843  0.8707  0.2489
 2767TIP3   OH229791   0.091   4.466   1.757 -0.0811  0.1996 -0.1336
 2767TIP3    H129792   0.161   4.456   1.692 -0.6401  0.1694 -0.7352
 2767TIP3    H229793   0.012   4.483   1.706 -0.4819  0.4545  0.5513
 2768TIP3   OH229794   5.351   0.862   5.375 -0.2728  0.4687  0.1529
 2768TIP3    H129795   5.328   0.824   5.291 -0.2245  1.1213 -0.1644
 2768TIP3    H229796   5.300   0.943   5.379 -0.5069  0.2942  0.8855
 2769TIP3   OH229797   0.848   2.552   1.044  0.2042  0.2181 -0.0499
 2769TIP3    H129798   0.839   2.594   1.130 -1.1559 -0.3840  0.1262
 2769TIP3    H229799   0.900   2.614   0.993  2.6296 -0.2096  1.7165
 2770TIP3   OH229800   4.960   2.528   5.566  0.1356  0.1118 -0.2685
 2770TIP3    H129801   5.012   2.468   5.512  0.4916  0.6852 -0.5634
 2770TIP3    H229802   4.924   2.472   5.635 -0.9348 -0.7730 -1.5006
 2771TIP3   OH229803   5.073   1.039  12.184 -0.1554 -0.6453 -0.4550
 2771TIP3    H129804   5.095   1.128  12.212  1.5978 -1.4218  0.7432
 2771TIP3    H229805   5.005   1.052  12.117  0.3575  1.6047 -0.6207
 2772TIP3   OH229806   1.504   3.473   0.868 -0.0580 -0.2404 -0.0894
 2772TIP3    H129807   1.541   3.439   0.950 -0.5072 -0.0433  0.1940
 2772TIP3    H229808   1.471   3.560   0.890  1.1032  0.4131 -0.8241
 2773TIP3   OH229809   4.563   6.269   6.232  0.0372  0.2377  0.0154
 2773TIP3    H129810   4.486   6.242   6.182 -0.8428 -0.3099  1.5835
 2773TIP3    H229811   4.608   6.187   6.253  1.1802  0.5665 -1.0474
 2774TIP3   OH229812   5.586   2.389  14.206  0.0995 -0.4029  0.1475
 2774TIP3    H129813   5.669   2.367  14.163  1.0544 -0.6391  2.0155
 2774TIP3    H229814   5.520   2.343  14.154  1.3606 -1.9351 -0.1802
 2775TIP3   OH229815   0.718   1.269  10.876  0.3035  0.1548 -0.1800
 2775TIP3    H129816   0.639   1.218  10.855  0.4730  0.6560 -2.1742
 2775TIP3    H229817   0.783   1.202  10.900 -0.4486 -0.3214  0.6009
 2776TIP3   OH229818   0.742   1.239   2.020  0.2109 -0.3153 -0.1167
 2776TIP3    H129819   0.833   1.209   2.012  0.4122  0.4216 -0.7150
 2776TIP3    H229820   0.749   1.327   2.058 -0.2464 -0.2614 -0.1506
 2777TIP3   OH229821   2.472   1.323   5.968 -0.1522  0.3116  0.1808
 2777TIP3    H129822   2.398   1.327   6.029  0.6464  1.0184  1.1426
 2777TIP3    H229823   2.500   1.232   5.969  0.6486  0.5463  1.8911
 2778TIP3   OH229824   2.622   0.785   2.470 -0.2653  0.5022 -0.0783
 2778TIP3    H129825   2.537   0.822   2.494 -0.6844 -0.0693 -0.6796
 2778TIP3    H229826   2.684   0.857   2.483 -0.8904  1.0270  0.0150
 2779TIP3   OH229827   1.350   4.901  10.879  0.1292 -0.5276  0.1252
 2779TIP3    H129828   1.431   4.953  10.880  0.4782 -1.0507  1.9596
 2779TIP3    H229829   1.370   4.827  10.822  0.5624 -0.0846 -0.3133
 2780TIP3   OH229830   6.689   0.171  12.032 -0.4244  0.1410 -0.0523
 2780TIP3    H129831   6.769   0.193  11.983  1.1869 -1.7506  1.5369
 2780TIP3    H229832   6.648   0.255  12.049  2.6658  1.5621  1.2962
 2781TIP3   OH229833   4.703   6.293  10.753 -0.2006  0.0467  0.2715
 2781TIP3    H129834   4.660   6.276  10.837  0.3754  1.9545  0.9979
 2781TIP3    H229835   4.797   6.296  10.773  0.1136 -1.3016 -0.7986
 2782TIP3   OH229836   1.387   1.949  13.099 -0.1546  0.1819 -0.1931
 2782TIP3    H129837   1.389   2.044  13.098 -0.0433  0.2124  1.0189
 2782TIP3    H229838   1.475   1.923  13.130 -0.6666 -0.2433  0.9760
 2783TIP3   OH229839   5.944   6.702  14.751 -0.1709 -0.3997  0.2606
 2783TIP3    H129840   5.976   6.619  14.786  2.3476  0.7215  0.8584
 2783TIP3    H229841   5.976   6.703  14.660 -0.7784 -0.3722  0.0452
 2784TIP3   OH229842   3.985   1.718   4.982 -0.1635  0.3511 -0.0655
 2784TIP3    H129843   3.942   1.658   5.043  0.9263  0.3955  0.7711
 2784TIP3    H229844   3.944   1.700   4.897  0.5264 -2.0192  0.0378
 2785TIP3   OH229845   5.117   3.090  15.207  0.4159 -0.3851 -0.5427
 2785TIP3    H129846   5.073   3.085  15.123  0.0434 -0.0464 -0.3720
 2785TIP3    H229847   5.078   3.166  15.251 -1.2186 -2.0094  0.9725
 2786TIP3   OH229848   2.129   1.372   2.221  0.5719  0.4123  0.0713
 2786TIP3    H129849   2.049   1.329   2.251  1.6664 -0.2932  2.2392
 2786TIP3    H229850   2.104   1.463   2.205 -0.3301  0.6653  2.5296
 2787TIP3   OH229851   6.208   1.080   2.397  0.1128 -0.4484  0.4764
 2787TIP3    H129852   6.216   1.060   2.490 -0.8914 -0.5546  0.5531
 2787TIP3    H229853   6.159   1.163   2.395 -0.9203 -1.0577  0.0240
 2788TIP3   OH229854   6.099   3.350  13.766 -0.3968  0.2481 -0.0090
 2788TIP3    H129855   6.156   3.355  13.689 -0.3219  2.0339  0.1172
 2788TIP3    H229856   6.154   3.311  13.833 -0.8956 -2.6838 -1.1818
 2789TIP3   OH229857   6.185   5.782   0.193 -0.1034 -0.1216  0.1754
 2789TIP3    H129858   6.232   5.827   0.123 -0.1532 -0.3604 -0.0138
 2789TIP3    H229859   6.095   5.814   0.186  0.2415  1.1734  1.2327
 2790TIP3   OH229860   1.964   2.806  14.227 -0.1540  0.5279 -0.3060
 2790TIP3    H129861   1.982   2.865  14.300 -0.5355 -0.0706  0.2856
 2790TIP3    H229862   1.869   2.799  14.225 -0.0914 -1.2899  0.6665
 2791TIP3   OH229863   2.158   1.681  12.552 -0.1916  0.4497  0.0172
 2791TIP3    H129864   2.200   1.766  12.537  2.2685 -0.2467  2.1153
 2791TIP3    H229865   2.167   1.636  12.468  0.9824  1.2907 -0.3522
 2792TIP3   OH229866   4.612   0.692   3.985 -1.0533  0.0106 -0.5325
 2792TIP3    H129867   4.693   0.738   3.963 -0.3806 -1.4480 -1.2707
 2792TIP3    H229868   4.560   0.756   4.035 -0.0733  1.4465 -1.2902
 2793TIP3   OH229869   5.771   0.113   6.067  0.0658 -0.5879  0.0720
 2793TIP3    H129870   5.791   0.031   6.113 -0.2365 -0.0220  1.2484
 2793TIP3    H229871   5.683   0.136   6.097  0.0541  0.0556 -0.4333
 2794TIP3   OH229872   1.118   5.215  13.768  0.1533 -0.2228  0.3538
 2794TIP3    H129873   1.106   5.121  13.755  1.8263 -0.4092 -0.1196
 2794TIP3    H229874   1.080   5.232  13.854  0.9961 -1.5931  1.0379
 2795TIP3   OH229875   6.491   3.770   2.445  0.4916 -0.1710 -0.3421
 2795TIP3    H129876   6.474   3.764   2.351  1.4586 -2.4377 -0.4185
 2795TIP3    H229877   6.408   3.800   2.482 -0.7945 -1.9187 -1.6515
 2796TIP3   OH229878   5.931   1.353  16.644 -0.0623 -0.1040  0.0948
 2796TIP3    H129879   5.853   1.404  16.664 -0.7233 -0.5989 -1.0978
 2796TIP3    H229880   5.957   1.383  16.557 -0.0853 -1.3147 -0.3541
 2797TIP3   OH229881   1.267   1.219   2.571  0.4594  0.0453 -0.2142
 2797TIP3    H129882   1.226   1.156   2.630  0.0753 -1.0511 -1.6035
 2797TIP3    H229883   1.310   1.166   2.505  1.1809  1.2437 -0.7441
 2798TIP3   OH229884   0.638   3.072   1.986 -0.2109 -0.0135 -0.3182
 2798TIP3    H129885   0.643   2.999   2.048 -1.7453 -0.6908 -0.9396
 2798TIP3    H229886   0.568   3.127   2.021 -1.4848 -0.6869 -1.6913
 2799TIP3   OH229887   3.567   3.836  16.500 -0.2755 -0.0376 -0.2588
 2799TIP3    H129888   3.561   3.748  16.537 -2.4031  0.6999  1.3590
 2799TIP3    H229889   3.606   3.888  16.570  0.8550  0.3686 -1.1573
 2800TIP3   OH229890   6.481   0.014  15.341 -0.3766 -0.3387  0.1979
 2800TIP3    H129891   6.464   0.021  15.435 -3.1420  1.7602 -0.3123
 2800TIP3    H229892   6.401  -0.026  15.306 -0.2866  0.8218 -1.4343
 2801TIP3   OH229893   3.596   6.020  14.413  0.9001  1.0100 -0.3624
 2801TIP3    H129894   3.670   6.065  14.373  0.2691  1.8251 -0.6327
 2801TIP3    H229895   3.598   6.048  14.505 -0.3804  2.8342 -0.8494
 2802TIP3   OH229896   4.544   2.309   5.554  0.3454 -0.2959 -0.5031
 2802TIP3    H129897   4.504   2.244   5.496  1.4472 -0.8570 -0.6656
 2802TIP3    H229898   4.573   2.258   5.630 -1.4979  0.4953  0.8085
 2803TIP3   OH229899   2.606   3.911  11.739 -0.0359  0.3191 -0.1805
 2803TIP3    H129900   2.651   3.848  11.795 -0.4406  0.1863 -0.0017
 2803TIP3    H229901   2.628   3.883  11.650  0.4925  0.4455 -0.0972
 2804TIP3   OH229902   0.165   0.551   4.586 -0.1084 -0.5016  0.7597
 2804TIP3    H129903   0.245   0.533   4.537  0.6396  0.6709  1.5082
 2804TIP3    H229904   0.122   0.620   4.537  0.2243  0.0897  1.2877
 2805TIP3   OH229905   6.182   6.455   3.471  0.1498 -0.0878 -0.0469
 2805TIP3    H129906   6.193   6.361   3.488 -0.1838 -0.0906  0.1767
 2805TIP3    H229907   6.249   6.497   3.525 -0.0606 -0.1702  0.2829
 2806TIP3   OH229908   2.233   3.232   6.311 -0.0900 -0.1669 -0.3906
 2806TIP3    H129909   2.270   3.151   6.346  0.2855 -0.2573 -0.9917
 2806TIP3    H229910   2.290   3.301   6.344 -0.3863 -0.1425  0.0876
 2807TIP3   OH229911   0.459   6.821   3.493  0.2966  0.2109 -0.0197
 2807TIP3    H129912   0.527   6.816   3.559 -1.6965  3.0190  2.4943
 2807TIP3    H229913   0.403   6.745   3.510  1.8076 -1.2046 -1.0730
 2808TIP3   OH229914   2.933   1.579  11.823  0.3204  0.4693  0.0722
 2808TIP3    H129915   2.916   1.538  11.738 -0.4317  0.5340  0.1872
 2808TIP3    H229916   2.869   1.650  11.829  0.2953  0.3981  0.7404
 2809TIP3   OH229917   1.783   0.681  12.111  0.1426  0.2448  0.1067
 2809TIP3    H129918   1.743   0.675  12.024 -3.9594  0.9878  1.7042
 2809TIP3    H229919   1.756   0.600  12.155  1.1127  0.4246  1.0701
 2810TIP3   OH229920   5.548   2.874   4.987 -0.0777  0.0659 -0.0314
 2810TIP3    H129921   5.470   2.863   5.042 -0.6549  0.9431 -0.6671
 2810TIP3    H229922   5.550   2.967   4.965  1.2579  0.1017  0.1190
 2811TIP3   OH229923   2.820   2.927  13.865  0.6352  0.5171 -0.4171
 2811TIP3    H129924   2.803   2.850  13.811 -1.2641 -0.2467  1.1641
 2811TIP3    H229925   2.773   2.998  13.822  0.2935  0.2322 -0.5131
 2812TIP3   OH229926   6.685   5.807  12.609  0.0921  0.0885 -0.1786
 2812TIP3    H129927   6.667   5.900  12.596 -1.6337 -0.5751 -3.8208
 2812TIP3    H229928   6.770   5.794  12.567 -1.4775 -0.5205 -3.4730
 2813TIP3   OH229929   3.422   2.641  11.025  0.0686  0.1642  0.5475
 2813TIP3    H129930   3.399   2.594  10.945  2.8674  1.1899 -1.0003
 2813TIP3    H229931   3.352   2.619  11.087 -1.5761 -1.6289 -1.7681
 2814TIP3   OH229932   5.386   2.067   1.644 -0.2142  0.8699 -0.2196
 2814TIP3    H129933   5.423   2.101   1.563 -1.4396  0.2655 -1.0555
 2814TIP3    H229934   5.399   2.138   1.708  2.0599  0.8084 -0.5248
 2815TIP3   OH229935   5.740   1.785  14.765 -0.4453 -0.1240  0.5470
 2815TIP3    H129936   5.647   1.808  14.773  0.1231  1.7652  3.4361
 2815TIP3    H229937   5.784   1.868  14.746  0.7396 -0.8591 -0.0522
 2816TIP3   OH229938   0.484   4.080   2.176  0.1763  0.3851 -0.5770
 2816TIP3    H129939   0.566   4.035   2.156 -0.5643 -1.4229  0.2920
 2816TIP3    H229940   0.481   4.152   2.113  2.5695  0.7008 -0.4072
 2817TIP3   OH229941   3.691   2.762  12.205 -0.2275  0.2511  0.3991
 2817TIP3    H129942   3.714   2.787  12.115  1.4272 -1.8511  0.1537
 2817TIP3    H229943   3.697   2.844  12.255  0.1558  1.2178 -1.1488
 2818TIP3   OH229944   4.148   0.923  17.089  0.3927 -0.1736 -0.1825
 2818TIP3    H129945   4.243   0.914  17.101  0.4443 -0.8073 -0.9719
 2818TIP3    H229946   4.138   1.009  17.048  0.6816 -0.3100 -0.5502
 2819TIP3   OH229947   2.852   4.769  10.830 -0.5078 -0.0447  0.4397
 2819TIP3    H129948   2.771   4.731  10.865 -0.3485  0.0168  0.8819
 2819TIP3    H229949   2.891   4.699  10.778  0.1810 -0.7802  1.8767
 2820TIP3   OH229950   1.156   3.326  14.606  0.7192  0.1404  0.6766
 2820TIP3    H129951   1.070   3.322  14.648  0.8317  2.0639  1.1709
 2820TIP3    H229952   1.212   3.370  14.671  2.2291 -1.5155  0.5754
 2821TIP3   OH229953   3.815   0.357  10.876 -0.6667 -0.0595 -0.3109
 2821TIP3    H129954   3.743   0.314  10.829 -0.4745  2.1512 -2.9360
 2821TIP3    H229955   3.772   0.414  10.939 -1.0887 -0.5944 -0.1054
 2822TIP3   OH229956   6.776   6.733   5.711  0.1605  0.0895 -0.2712
 2822TIP3    H129957   6.770   6.828   5.723 -0.5593 -0.0065  0.2857
 2822TIP3    H229958   6.749   6.698   5.796 -2.0380 -0.6321 -1.1885
 2823TIP3   OH229959   0.891   0.383  14.487  0.4891  0.3074  0.8065
 2823TIP3    H129960   0.798   0.378  14.509  0.2519  1.0334  0.0321
 2823TIP3    H229961   0.933   0.316  14.540 -0.4426  0.1719  1.3770
 2824TIP3   OH229962   1.224   2.542   1.955 -0.5921  0.2391  0.4145
 2824TIP3    H129963   1.261   2.628   1.978 -1.0407  0.0746  1.8259
 2824TIP3    H229964   1.212   2.546   1.860 -0.2801  1.6098  0.4100
 2825TIP3   OH229965   0.981   1.048   1.100 -0.2016  0.6289 -0.4271
 2825TIP3    H129966   0.976   0.953   1.083  0.7769 -0.7109  4.9148
 2825TIP3    H229967   0.889   1.076   1.103 -0.6335 -0.7537  0.2133
 2826TIP3   OH229968   1.449   3.105   3.448 -0.2332 -0.6868 -0.1655
 2826TIP3    H129969   1.453   3.018   3.488 -0.2424 -0.0462  1.2663
 2826TIP3    H229970   1.360   3.135   3.465  0.0456 -0.0247  0.1648
 2827TIP3   OH229971   0.476   6.242   5.845 -0.3187  0.1505  0.2926
 2827TIP3    H129972   0.524   6.281   5.918  0.5368  1.2423 -0.8006
 2827TIP3    H229973   0.406   6.192   5.886 -1.2908  2.5798  1.8220
 2828TIP3   OH229974   4.981   6.483   3.494 -0.0414 -0.0954  0.0421
 2828TIP3    H129975   4.892   6.465   3.464 -0.3645  0.6213  0.5693
 2828TIP3    H229976   4.971   6.543   3.567  0.8296 -0.6913  0.6759
 2829TIP3   OH229977   3.725   2.768  12.789  0.1243  0.1184  0.0809
 2829TIP3    H129978   3.719   2.739  12.881 -1.2095 -0.7131 -0.2425
 2829TIP3    H229979   3.776   2.849  12.793 -0.2668  0.3245  1.6066
 2830TIP3   OH229980   0.303   4.956   3.837  0.2142 -0.4217 -0.1966
 2830TIP3    H129981   0.279   4.914   3.920 -2.0055 -0.0546 -0.5820
 2830TIP3    H229982   0.349   4.888   3.788 -1.2073 -1.6865  0.1409
 2831TIP3   OH229983   6.553   2.758  11.476 -0.5915 -1.2974  0.1693
 2831TIP3    H129984   6.576   2.848  11.454 -2.3297 -1.1337 -1.1945
 2831TIP3    H229985   6.574   2.749  11.569 -0.5590  0.5673  0.3671
 2832TIP3   OH229986   1.006   4.462   2.652 -0.0789 -0.0248 -0.2775
 2832TIP3    H129987   1.072   4.447   2.720  2.2400  1.3040 -2.0806
 2832TIP3    H229988   0.986   4.374   2.618  1.4642 -0.4122 -0.2569
 2833TIP3   OH229989   5.685   0.248   1.528 -0.4438 -0.4130 -0.1347
 2833TIP3    H129990   5.643   0.219   1.447 -2.3915  0.4489  0.4886
 2833TIP3    H229991   5.684   0.344   1.523  3.7871 -0.2367 -1.1504
 2834TIP3   OH229992   5.027   5.210   3.951  0.0523 -0.0015 -0.1199
 2834TIP3    H129993   5.055   5.119   3.951  0.6218  0.1667  0.3520
 2834TIP3    H229994   4.942   5.209   3.908 -1.0224 -1.0877  1.8998
 2835TIP3   OH229995   4.248   4.059  13.850 -0.2684 -0.2424  0.0226
 2835TIP3    H129996   4.242   3.965  13.831 -1.2008 -0.4050  1.0170
 2835TIP3    H229997   4.319   4.067  13.912 -0.1442 -0.2788 -0.1148
 2836TIP3   OH229998   2.287   4.352   0.911  0.2187 -0.0361  0.1989
 2836TIP3    H129999   2.234   4.278   0.940 -0.2594  0.7347  1.3802
 2836TIP3    H230000   2.300   4.337   0.817 -0.2684 -1.3542  0.3160
 2837TIP3   OH230001   0.915   1.020   1.810  0.1510  0.4004  0.1770
 2837TIP3    H130002   0.893   0.977   1.892  0.9453  0.3111  0.3550
 2837TIP3    H230003   0.994   1.071   1.830 -0.5556  1.6372 -0.1270
 2838TIP3   OH230004   2.321   3.832  13.413  0.3660 -0.5076 -0.6637
 2838TIP3    H130005   2.350   3.856  13.501  0.4460  0.6210 -0.9831
 2838TIP3    H230006   2.241   3.780  13.428  0.3127 -0.2343  0.0724
 2839TIP3   OH230007   3.060   2.898   3.275 -0.0013  0.0509  0.4160
 2839TIP3    H130008   3.108   2.832   3.225 -0.8485 -1.8457  1.9937
 2839TIP3    H230009   3.117   2.976   3.271  0.8262 -0.5854 -1.8402
 2840TIP3   OH230010   6.539   3.203  16.882 -0.6861  0.1633  0.4024
 2840TIP3    H130011   6.459   3.246  16.851 -0.3175  1.3698  1.0978
 2840TIP3    H230012   6.596   3.274  16.910  1.5607 -0.4934 -2.1004
 2841TIP3   OH230013   1.265   4.584   1.945 -0.3176 -0.0668 -0.5641
 2841TIP3    H130014   1.236   4.655   2.002  3.3408  0.4253  0.9294
 2841TIP3    H230015   1.194   4.519   1.950 -1.3136  1.0736  2.5154
 2842TIP3   OH230016   1.981   3.506  14.214  0.3234  0.1173 -0.2697
 2842TIP3    H130017   2.009   3.459  14.135  2.1404  2.2856 -1.0036
 2842TIP3    H230018   1.998   3.444  14.285 -3.9781 -3.0260 -1.5614
 2843TIP3   OH230019   4.653   2.557  16.431  0.3497  0.1262 -0.1362
 2843TIP3    H130020   4.594   2.618  16.475  0.2384  0.6960 -1.0551
 2843TIP3    H230021   4.726   2.612  16.401 -0.1578 -0.0195 -1.7156
 2844TIP3   OH230022   5.298   4.746  16.817  0.0112 -0.5410  0.0453
 2844TIP3    H130023   5.276   4.837  16.838  0.1944 -0.5495  0.2854
 2844TIP3    H230024   5.213   4.701  16.812 -0.0501 -0.4989  0.6019
 2845TIP3   OH230025   3.356   1.566  15.797  0.1066  0.1773 -0.5802
 2845TIP3    H130026   3.315   1.582  15.712 -0.2603 -1.1521 -0.6765
 2845TIP3    H230027   3.444   1.533  15.776 -0.2764 -0.9572 -0.4944
 2846TIP3   OH230028   3.373   1.302  10.293  0.1571 -0.7417 -0.0751
 2846TIP3    H130029   3.456   1.316  10.248  0.8237 -1.9017  0.7452
 2846TIP3    H230030   3.369   1.371  10.359 -1.5811  2.0294 -2.7624
 2847TIP3   OH230031   0.825   2.257   2.905  0.8106 -0.1351  0.1959
 2847TIP3    H130032   0.747   2.201   2.896 -1.0028  1.8638  2.2146
 2847TIP3    H230033   0.874   2.217   2.977  0.7382 -0.3984  0.1014
 2848TIP3   OH230034   2.116   0.243   1.985 -0.2210 -0.6361 -0.3340
 2848TIP3    H130035   2.211   0.248   1.990 -0.1277 -1.8440 -0.4759
 2848TIP3    H230036   2.085   0.307   2.049  0.6533  0.6512 -1.1549
 2849TIP3   OH230037   2.960   2.275   0.882  0.3740  0.0842 -0.1281
 2849TIP3    H130038   2.995   2.280   0.971 -2.7608  0.0104  1.2229
 2849TIP3    H230039   2.944   2.181   0.868 -3.2520  0.3383  1.1467
 2850TIP3   OH230040   0.241   2.403  14.962  0.2817  0.3025 -0.3001
 2850TIP3    H130041   0.183   2.379  15.035  0.7060 -2.0189 -0.6455
 2850TIP3    H230042   0.183   2.409  14.886  0.4719 -3.2178 -0.8991
 2851TIP3   OH230043   1.971   0.205  15.325 -0.0811 -0.2944  0.3135
 2851TIP3    H130044   2.048   0.251  15.355  1.7201 -0.7900 -3.0718
 2851TIP3    H230045   1.976   0.119  15.368  1.1710 -0.2520  0.2820
 2852TIP3   OH230046   4.551   4.097  11.589  0.1133 -0.4360  0.0661
 2852TIP3    H130047   4.631   4.075  11.541 -1.5511 -1.1435 -2.5759
 2852TIP3    H230048   4.545   4.030  11.657  1.0231 -1.2457 -0.6213
 2853TIP3   OH230049   4.258   2.548   2.019  0.0198 -0.0560  0.5058
 2853TIP3    H130050   4.350   2.533   1.999  0.0516 -0.2044  0.7645
 2853TIP3    H230051   4.219   2.461   2.019 -0.5225  0.1330 -1.5253
 2854TIP3   OH230052   5.667   6.773  10.746 -0.4154  0.1541  0.0149
 2854TIP3    H130053   5.648   6.759  10.839 -0.5021 -1.5665 -0.2328
 2854TIP3    H230054   5.727   6.703  10.723 -2.4109 -1.0751 -1.8114
 2855TIP3   OH230055   1.235   4.741  11.084 -0.1120 -0.0440  1.3083
 2855TIP3    H130056   1.282   4.798  11.023  0.1466 -0.4991  1.0817
 2855TIP3    H230057   1.153   4.788  11.101 -2.1402 -1.6975 -2.5738
 2856TIP3   OH230058   6.104   6.740   2.694  0.0960 -0.6474  0.1702
 2856TIP3    H130059   6.115   6.667   2.633  1.9082  0.6979 -1.2282
 2856TIP3    H230060   6.106   6.818   2.638  0.7290  0.5918  1.8464
 2857TIP3   OH230061   1.719   0.334  14.792 -0.5389  0.4536 -0.2760
 2857TIP3    H130062   1.795   0.280  14.771 -0.7954  0.0594 -0.2124
 2857TIP3    H230063   1.648   0.271  14.803 -0.6827  0.7438  0.5395
 2858TIP3   OH230064   6.131   1.327  11.990 -0.4653 -0.3570  0.2636
 2858TIP3    H130065   6.157   1.248  12.037  0.8772 -0.4072 -0.5321
 2858TIP3    H230066   6.050   1.303  11.945 -0.7810 -0.8556  1.0604
 2859TIP3   OH230067   0.491   0.424  12.910  0.1299 -0.0112  0.6150
 2859TIP3    H130068   0.480   0.488  12.981  1.9423  1.9657 -0.7393
 2859TIP3    H230069   0.415   0.367  12.917 -0.1540  0.5659  3.6445
 2860TIP3   OH230070   1.658   2.718  14.020  0.4896 -1.1111  0.1133
 2860TIP3    H130071   1.636   2.730  14.112 -0.6207  0.3667 -0.3182
 2860TIP3    H230072   1.597   2.652  13.989 -0.9398  0.2748 -0.1618
 2861TIP3   OH230073   5.818   4.269  11.304  0.2766 -0.3510  0.0243
 2861TIP3    H130074   5.783   4.343  11.253 -0.5382 -0.7264  0.0248
 2861TIP3    H230075   5.764   4.267  11.383 -1.2827 -2.3520 -0.9997
 2862TIP3   OH230076   4.653   2.012   5.104 -0.7323  0.5899 -0.5314
 2862TIP3    H130077   4.665   1.942   5.039  1.4825  0.0224  0.4008
 2862TIP3    H230078   4.708   2.083   5.071 -0.0667  0.5159  0.4102
 2863TIP3   OH230079   5.713   1.321   1.949  0.5708 -0.8189  0.0903
 2863TIP3    H130080   5.783   1.387   1.954  0.0061 -0.2981  3.1552
 2863TIP3    H230081   5.748   1.246   1.999 -0.8645 -0.6650  1.3985
 2864TIP3   OH230082   3.064   4.071  13.828 -0.6476 -0.0192  0.2387
 2864TIP3    H130083   3.134   4.010  13.803 -1.1239 -0.3950 -0.1949
 2864TIP3    H230084   3.002   4.066  13.756 -0.1902  1.7908 -0.3367
 2865TIP3   OH230085   0.181   5.320  16.880  0.0366 -0.6250 -0.9442
 2865TIP3    H130086   0.222   5.294  16.962 -2.9112 -0.0813  0.8263
 2865TIP3    H230087   0.197   5.415  16.874 -0.0281 -0.6070 -0.8291
 2866TIP3   OH230088   0.716   6.396  16.218  0.5014  0.6296 -0.5735
 2866TIP3    H130089   0.708   6.376  16.125 -0.0219  0.7791 -0.5679
 2866TIP3    H230090   0.799   6.443  16.226  1.1637 -0.4817 -0.7612
 2867TIP3   OH230091   1.230   6.029   5.310  0.1733  0.0190 -0.0269
 2867TIP3    H130092   1.254   6.088   5.382 -0.5757 -0.5079  0.6623
 2867TIP3    H230093   1.216   6.088   5.235  1.0791  0.5603  0.2125
 2868TIP3   OH230094   0.991   4.787  13.153  0.5374 -0.0399 -0.0379
 2868TIP3    H130095   0.903   4.757  13.131  1.4189 -2.2776 -0.9036
 2868TIP3    H230096   0.981   4.879  13.175 -1.9828 -0.2062 -0.2206
 2869TIP3   OH230097   5.223   6.203   1.898  0.0915  1.3949 -0.2817
 2869TIP3    H130098   5.247   6.287   1.938 -0.1371  1.1074  0.4797
 2869TIP3    H230099   5.301   6.149   1.907  0.1017  1.3927 -0.3905
 2870TIP3   OH230100   0.988   3.213  17.159 -0.5025 -0.0547  0.2471
 2870TIP3    H130101   1.043   3.288  17.137 -0.5271 -0.0860  0.0841
 2870TIP3    H230102   0.980   3.217  17.255 -0.5507  0.1827  0.2340
 2871TIP3   OH230103   0.712   5.119  12.008 -0.0616  0.0852 -0.4321
 2871TIP3    H130104   0.663   5.192  11.972  0.1220  0.4844  0.1156
 2871TIP3    H230105   0.659   5.042  11.988  0.3195  0.2049 -2.0864
 2872TIP3   OH230106   1.211   4.644  13.020  0.4521 -0.6280 -0.1502
 2872TIP3    H130107   1.136   4.688  13.059  0.2854  1.4894 -2.5976
 2872TIP3    H230108   1.258   4.606  13.095  0.1811  3.0671  2.1626
 2873TIP3   OH230109   3.906   6.520   1.858 -0.4195  0.4348  0.0434
 2873TIP3    H130110   3.815   6.531   1.833  0.0222  0.3133 -1.7748
 2873TIP3    H230111   3.930   6.433   1.824  0.4554  0.6049  0.1911
 2874TIP3   OH230112   3.483   1.131  12.099  0.3707 -0.1336  0.3505
 2874TIP3    H130113   3.566   1.141  12.052 -0.2330  0.2018 -0.6816
 2874TIP3    H230114   3.425   1.091  12.034 -0.3844  0.0033  0.9427
 2875TIP3   OH230115   1.661   6.583   4.174 -0.0355  0.6449  0.4280
 2875TIP3    H130116   1.748   6.593   4.215 -0.0607  0.0921  0.6341
 2875TIP3    H230117   1.671   6.619   4.086  0.0165  1.8905  0.9168
 2876TIP3   OH230118   3.940   5.498   0.851 -0.0310  0.0838 -0.5338
 2876TIP3    H130119   3.850   5.491   0.884  0.5843 -1.4652  0.9547
 2876TIP3    H230120   3.943   5.438   0.777  0.7430 -3.1265  1.8817
 2877TIP3   OH230121   4.608   4.238   5.124 -0.2736 -0.1679 -0.6219
 2877TIP3    H130122   4.646   4.297   5.059 -0.0674  1.5867  1.0314
 2877TIP3    H230123   4.667   4.243   5.199  0.1779 -3.1077 -0.6407
 2878TIP3   OH230124   5.304   0.862  16.295  0.7074 -0.4387  0.1664
 2878TIP3    H130125   5.240   0.869  16.366 -2.3117  1.3782 -2.4467
 2878TIP3    H230126   5.375   0.810  16.332 -0.4192  0.7083  4.5940
 2879TIP3   OH230127   3.197   1.263   2.024 -0.3647  0.6473 -0.1575
 2879TIP3    H130128   3.232   1.296   2.106  0.0212  2.2739 -0.9257
 2879TIP3    H230129   3.239   1.317   1.957 -2.2842  0.8452 -1.2863
 2880TIP3   OH230130   2.283   2.434  12.433 -0.5657 -0.2972  0.2371
 2880TIP3    H130131   2.221   2.421  12.505 -0.1767 -0.7348  0.4995
 2880TIP3    H230132   2.366   2.399  12.466 -0.0515  0.7201  0.0609
 2881TIP3   OH230133   5.628   5.123   0.194  0.1940 -0.7173 -0.1499
 2881TIP3    H130134   5.538   5.105   0.166 -1.3116  1.0182  2.9913
 2881TIP3    H230135   5.641   5.065   0.269  0.9548  0.3984  0.6015
 2882TIP3   OH230136   6.093   6.192   5.667  0.7926  0.6280  0.6289
 2882TIP3    H130137   6.045   6.265   5.628  1.0314  0.3203 -0.2584
 2882TIP3    H230138   6.135   6.231   5.744 -0.5339  0.9907  1.1993
 2883TIP3   OH230139   0.245   2.241  16.101 -0.3837 -0.2711 -0.2093
 2883TIP3    H130140   0.180   2.273  16.038  1.7570  0.5858 -2.1111
 2883TIP3    H230141   0.314   2.307  16.099  0.7341 -1.3276  1.4887
 2884TIP3   OH230142   0.163   0.245  16.919  0.5753 -0.0248  0.0560
 2884TIP3    H130143   0.215   0.290  16.853  0.1225  0.5004  0.0534
 2884TIP3    H230144   0.072   0.269  16.899  0.1708 -2.1301 -0.8651
 2885TIP3   OH230145   4.352   6.346  11.356  0.3861 -0.3815 -0.4178
 2885TIP3    H130146   4.261   6.366  11.333  0.2087  0.7938  1.1650
 2885TIP3    H230147   4.379   6.419  11.412  2.1775 -0.9287 -0.5266
 2886TIP3   OH230148   3.149   6.455   4.149  0.2992 -0.2092 -0.0638
 2886TIP3    H130149   3.120   6.444   4.058 -0.2642 -0.7145  0.1687
 2886TIP3    H230150   3.220   6.519   4.144 -1.7424  2.1768 -0.5271
 2887TIP3   OH230151   1.777   5.964   0.565  0.1363  0.7682 -0.3933
 2887TIP3    H130152   1.786   6.059   0.558  0.6516  0.7203 -0.4476
 2887TIP3    H230153   1.707   5.951   0.628 -0.0859  1.1857 -0.5486
 2888TIP3   OH230154   0.458   1.326  16.411 -0.4168 -0.1588  0.4062
 2888TIP3    H130155   0.543   1.301  16.448 -0.2739  0.9503  0.8620
 2888TIP3    H230156   0.416   1.377  16.480 -0.4262  1.3981 -0.7166
 2889TIP3   OH230157   0.181   0.477   6.468  0.0224  0.0118  0.3619
 2889TIP3    H130158   0.199   0.571   6.467 -1.4094  0.3357 -2.0341
 2889TIP3    H230159   0.235   0.443   6.539  1.2403  2.5055  0.7276
 2890TIP3   OH230160   3.987   0.055  12.876 -0.1099 -0.2233  0.0650
 2890TIP3    H130161   3.923  -0.015  12.891 -0.2809  0.0171  0.4763
 2890TIP3    H230162   4.056   0.013  12.824 -0.8761 -0.3289 -0.8833
 2891TIP3   OH230163   2.622   4.956   3.153 -0.2279  0.7330 -0.2671
 2891TIP3    H130164   2.693   5.009   3.189  0.4634  0.7026 -1.5105
 2891TIP3    H230165   2.631   4.871   3.196 -1.1162  1.4731  1.4632
 2892TIP3   OH230166   3.214   1.065   2.333  1.2306 -0.2521  0.1395
 2892TIP3    H130167   3.142   1.107   2.380  1.3837 -0.0622  0.2080
 2892TIP3    H230168   3.177   0.983   2.300  1.0077 -0.1948  0.2449
 2893TIP3   OH230169   0.156   1.394   0.326 -0.3361 -0.1787 -0.0213
 2893TIP3    H130170   0.191   1.449   0.396 -1.0069 -0.7539  0.7891
 2893TIP3    H230171   0.157   1.450   0.248 -2.1154  1.4195  1.0034
 2894TIP3   OH230172   2.473   3.295  15.201  0.6613 -0.0260  0.1519
 2894TIP3    H130173   2.503   3.386  15.195  0.3792 -0.0009 -0.9559
 2894TIP3    H230174   2.389   3.294  15.156  0.9973 -0.9891 -0.4719
 2895TIP3   OH230175   1.396   6.738  13.987 -0.0348  0.3381 -0.1349
 2895TIP3    H130176   1.366   6.809  13.931  2.6788  1.4744 -0.3073
 2895TIP3    H230177   1.354   6.660  13.951 -1.6349  1.5842 -1.1066
 2896TIP3   OH230178   6.697   5.045   6.037  0.2720  0.8180 -0.6493
 2896TIP3    H130179   6.667   4.955   6.025  0.3800  0.8870 -1.5033
 2896TIP3    H230180   6.644   5.078   6.110  0.5281 -0.0600 -0.0520
 2897TIP3   OH230181   2.965   0.281  16.554 -0.4818 -1.3013 -0.1444
 2897TIP3    H130182   2.976   0.369  16.517  0.8473 -1.7861 -0.9607
 2897TIP3    H230183   2.925   0.229  16.484  0.7123 -1.8631 -0.4293
 2898TIP3   OH230184   3.221   2.699  16.404 -0.0024 -0.1411 -0.1773
 2898TIP3    H130185   3.187   2.615  16.373  0.2452 -0.2268 -0.2152
 2898TIP3    H230186   3.298   2.716  16.350  0.7016 -0.5106  0.6746
 2899TIP3   OH230187   1.697   0.928  16.281 -0.6416  0.1817 -0.2087
 2899TIP3    H130188   1.633   0.985  16.238 -2.2963 -1.4686 -0.0379
 2899TIP3    H230189   1.762   0.910  16.213 -2.4627 -1.2404 -1.6756
 2900TIP3   OH230190   2.412   4.959   3.629 -0.0314  0.1305  0.2269
 2900TIP3    H130191   2.332   4.957   3.682  0.2973 -0.1542  0.7160
 2900TIP3    H230192   2.447   4.869   3.634  0.7810  0.4632  0.7298
 2901TIP3   OH230193   2.971   5.426   1.225  0.3951 -0.6400 -0.2461
 2901TIP3    H130194   2.942   5.374   1.299 -0.3573 -0.3475 -0.3274
 2901TIP3    H230195   2.962   5.517   1.254 -0.3689 -0.5131 -0.8571
 2902TIP3   OH230196   0.593   0.287   6.455  0.1445 -0.5218 -0.7184
 2902TIP3    H130197   0.653   0.279   6.382 -0.9493  1.0175 -1.8598
 2902TIP3    H230198   0.539   0.209   6.451 -0.0966 -0.3157 -1.7576
 2903TIP3   OH230199   4.061   4.412   1.706  0.3668 -0.3744 -0.0614
 2903TIP3    H130200   4.019   4.409   1.792  3.5306  1.2251  1.7077
 2903TIP3    H230201   4.030   4.494   1.667 -1.3038 -1.2425 -0.6995
 2904TIP3   OH230202   0.802   3.946  14.182  0.0054 -0.1743 -0.0513
 2904TIP3    H130203   0.832   3.869  14.231  0.1045 -1.2002 -1.6675
 2904TIP3    H230204   0.756   4.000  14.247  2.2177 -0.2890  1.7032
 2905TIP3   OH230205   0.297   2.862  12.751  0.4490  0.0543 -0.2099
 2905TIP3    H130206   0.254   2.866  12.666  0.1546 -1.5105 -0.1705
 2905TIP3    H230207   0.290   2.951  12.786 -0.8203  0.3486 -1.1420
 2906TIP3   OH230208   0.203   5.874  10.647 -0.0914 -0.1863 -0.1998
 2906TIP3    H130209   0.111   5.846  10.636 -0.1373  0.2687 -1.0045
 2906TIP3    H230210   0.200   5.937  10.719 -0.2925 -0.7442  0.2876
 2907TIP3   OH230211   5.183   3.416  14.294  0.4078  0.1628 -0.3805
 2907TIP3    H130212   5.130   3.376  14.226  1.7672 -2.3503 -0.0827
 2907TIP3    H230213   5.253   3.461  14.245 -1.6464  3.2724 -0.7583
 2908TIP3   OH230214   2.384   6.590  14.605 -0.1007 -0.1450 -0.4425
 2908TIP3    H130215   2.386   6.627  14.693 -1.1988 -0.5525 -0.2213
 2908TIP3    H230216   2.324   6.647  14.557 -0.0012 -0.2887 -0.7372
 2909TIP3   OH230217   5.889   4.630  13.761 -0.1305  0.3471 -0.1039
 2909TIP3    H130218   5.950   4.598  13.829  0.6182  2.3749  0.2353
 2909TIP3    H230219   5.944   4.643  13.684 -0.0166  2.4591  0.2818
 2910TIP3   OH230220   0.292   0.044   2.571 -0.0939  0.0946  1.2268
 2910TIP3    H130221   0.336  -0.035   2.540  1.5097  1.2725  0.3122
 2910TIP3    H230222   0.362   0.097   2.610 -0.4729  2.2984 -0.8172
 2911TIP3   OH230223   6.409   0.790   1.855  0.0858  0.1604  0.5319
 2911TIP3    H130224   6.319   0.772   1.827 -1.5395  2.6817  3.5199
 2911TIP3    H230225   6.435   0.711   1.901  0.3139 -1.3930 -2.0300
 2912TIP3   OH230226   1.512   5.975   0.377 -0.1188  0.1653 -0.3198
 2912TIP3    H130227   1.451   6.048   0.367 -0.1220  0.5208  1.7658
 2912TIP3    H230228   1.596   6.017   0.397 -0.0973 -0.3803  0.7892
 2913TIP3   OH230229   2.823   2.305  11.646  0.1693  0.2509 -0.0653
 2913TIP3    H130230   2.818   2.388  11.694  0.4973  0.4273 -0.3359
 2913TIP3    H230231   2.738   2.297  11.603 -0.3077 -0.1407  0.9221
 2914TIP3   OH230232   5.550   5.828  16.845  0.8282 -0.1361  0.6390
 2914TIP3    H130233   5.632   5.878  16.848 -0.2234  1.7736 -0.2603
 2914TIP3    H230234   5.492   5.881  16.790 -0.5822 -2.1086  0.1138
 2915TIP3   OH230235   0.524   2.795   5.035  0.6131 -0.1170 -0.3360
 2915TIP3    H130236   0.516   2.890   5.042  0.4910 -0.2555  2.7495
 2915TIP3    H230237   0.435   2.763   5.047  0.6573 -0.6763 -1.3363
 2916TIP3   OH230238   4.692   0.966   5.918  0.1945 -0.4007  0.4688
 2916TIP3    H130239   4.729   0.900   5.977  3.6869  0.6015 -0.3399
 2916TIP3    H230240   4.712   1.049   5.961 -0.6790  0.2376 -0.3407
 2917TIP3   OH230241   0.140   0.452   6.185 -0.2863 -0.4601  0.1798
 2917TIP3    H130242   0.134   0.460   6.281  0.6791  2.0735  0.1123
 2917TIP3    H230243   0.234   0.455   6.167 -0.4888 -0.1352 -0.8905
 2918TIP3   OH230244   1.139   6.530  16.890  0.0787 -0.1181  0.7448
 2918TIP3    H130245   1.108   6.613  16.927  2.2431  0.6069  1.1070
 2918TIP3    H230246   1.204   6.556  16.824 -0.6678 -1.5069 -0.5979
 2919TIP3   OH230247   6.359   2.780  13.207  0.4965 -0.5413 -0.2719
 2919TIP3    H130248   6.281   2.760  13.155 -0.5528 -0.0212  1.0584
 2919TIP3    H230249   6.404   2.696  13.215 -0.9815 -1.3015  0.6071
 2920TIP3   OH230250   5.181   2.776   0.140 -0.0881  0.9698 -0.2365
 2920TIP3    H130251   5.263   2.766   0.092 -0.4724 -2.4150 -0.4120
 2920TIP3    H230252   5.207   2.767   0.232 -0.2179 -0.0586 -0.2898
 2921TIP3   OH230253   2.795   1.539  15.480 -0.0641  0.2206  0.5257
 2921TIP3    H130254   2.721   1.599  15.484 -0.1400  0.1003  0.9789
 2921TIP3    H230255   2.756   1.455  15.456 -0.0259  0.2388  0.3999
 2922TIP3   OH230256   4.203   1.871   6.098  0.1914 -0.4247 -0.1923
 2922TIP3    H130257   4.230   1.782   6.118  0.1235 -0.5115 -0.4898
 2922TIP3    H230258   4.143   1.895   6.170 -1.2228 -1.2695 -1.0379
 2923TIP3   OH230259   3.841   4.352  14.946 -0.1617  0.1992 -0.3697
 2923TIP3    H130260   3.774   4.420  14.947  1.0507  1.4365 -0.5668
 2923TIP3    H230261   3.796   4.274  14.981 -1.3939  1.2679  0.5451
 2924TIP3   OH230262   5.286   2.039  12.219 -0.3360  0.1858  0.0796
 2924TIP3    H130263   5.196   2.057  12.244 -0.0642  0.5856  0.7858
 2924TIP3    H230264   5.319   2.122  12.185  0.2099  0.4485  1.1996
 2925TIP3   OH230265   0.518   2.621   6.001 -0.2881  0.8036 -0.2468
 2925TIP3    H130266   0.435   2.662   6.025 -0.7664 -0.2116 -0.0813
 2925TIP3    H230267   0.538   2.656   5.914 -2.3690 -0.9921 -1.5744
 2926TIP3   OH230268   5.524   4.998   4.493 -0.0613  0.4320  0.3961
 2926TIP3    H130269   5.505   4.912   4.529 -0.5960  1.4352  2.7498
 2926TIP3    H230270   5.454   5.014   4.430  0.4005 -1.0672 -0.5394
 2927TIP3   OH230271   6.841   4.606  16.648  0.2820  0.9437  0.2628
 2927TIP3    H130272   6.871   4.672  16.712  0.9290  1.1858 -0.2750
 2927TIP3    H230273   6.796   4.657  16.581 -0.5264  0.6733  0.5872
 2928TIP3   OH230274   2.233   2.871   0.427  0.0685 -0.5219  0.2966
 2928TIP3    H130275   2.306   2.880   0.488 -1.7545  0.5091  2.4717
 2928TIP3    H230276   2.171   2.813   0.472 -2.3038  2.0180  0.5660
 2929TIP3   OH230277   1.356   4.477  12.454  0.1574  0.9011  0.0176
 2929TIP3    H130278   1.411   4.553  12.438  0.0010  1.2505  1.0703
 2929TIP3    H230279   1.293   4.506  12.520  0.7071 -0.4099  1.1571
 2930TIP3   OH230280   2.785   2.041   4.957  0.7647 -0.2908  0.2950
 2930TIP3    H130281   2.823   2.118   4.914  0.2971  0.0992  0.5654
 2930TIP3    H230282   2.834   1.967   4.922  1.9146  0.2057  0.7737
 2931TIP3   OH230283   5.477   5.353   0.006 -0.7243  0.9841  0.6111
 2931TIP3    H130284   5.565   5.340  -0.028  0.0486  1.4255  2.3476
 2931TIP3    H230285   5.424   5.374  -0.072  0.7750  1.1751 -0.3925
 2932TIP3   OH230286   5.641   6.413  11.468 -0.1407  0.3724 -0.0684
 2932TIP3    H130287   5.735   6.426  11.478 -0.0593  1.4771 -1.9022
 2932TIP3    H230288   5.630   6.318  11.467  1.1289  0.2122 -1.2146
 2933TIP3   OH230289   4.793   3.388  13.606 -0.2412 -0.4380 -0.3522
 2933TIP3    H130290   4.875   3.402  13.558  0.3940 -0.6509  0.6377
 2933TIP3    H230291   4.805   3.436  13.688 -0.5975 -1.4996  0.3460
 2934TIP3   OH230292   2.861   3.725   2.441  0.0612  0.4561  0.0547
 2934TIP3    H130293   2.826   3.814   2.451 -0.3209  0.6506 -2.3107
 2934TIP3    H230294   2.939   3.723   2.497 -1.6768  1.1722  2.6817
 2935TIP3   OH230295   0.770   5.027  13.697  0.6669 -0.0242  0.2278
 2935TIP3    H130296   0.852   5.024  13.745  0.6612 -0.4555  0.2116
 2935TIP3    H230297   0.703   5.003  13.761  0.4696  0.9812  0.4143
 2936TIP3   OH230298   2.239   1.750  13.294  0.0657  0.0875  0.0195
 2936TIP3    H130299   2.245   1.837  13.334 -2.7594  0.5328 -0.3834
 2936TIP3    H230300   2.158   1.713  13.329 -0.2501 -1.2396 -2.0054
 2937TIP3   OH230301   5.274   5.012  16.957  0.7724 -0.6513  0.6962
 2937TIP3    H130302   5.218   4.967  17.021 -0.1550 -0.3173  0.1434
 2937TIP3    H230303   5.215   5.076  16.916  2.1425  1.4640  1.8237
 2938TIP3   OH230304   3.843   1.858   2.458  0.0452 -0.1135  0.9904
 2938TIP3    H130305   3.891   1.780   2.487  1.6330  0.2694 -0.4724
 2938TIP3    H230306   3.872   1.928   2.516 -0.8687 -0.4325  1.8662
 2939TIP3   OH230307   5.742   0.379   6.081 -0.1469  0.2307  0.0691
 2939TIP3    H130308   5.656   0.366   6.122 -0.5160 -0.1425 -0.8054
 2939TIP3    H230309   5.785   0.294   6.088  0.4506  0.5948  1.1336
 2940TIP3   OH230310   2.607   0.769  14.356 -0.3240 -0.1588 -0.2462
 2940TIP3    H130311   2.672   0.837  14.375 -0.2446  0.1705 -1.5571
 2940TIP3    H230312   2.585   0.731  14.441  1.3961 -0.1022  0.2515
 2941TIP3   OH230313   0.310   1.591  14.822  0.1952  0.1192 -0.2252
 2941TIP3    H130314   0.313   1.562  14.913 -0.1148  1.4293  0.2231
 2941TIP3    H230315   0.365   1.669  14.819 -0.5007  0.5970 -0.9630
 2942TIP3   OH230316   1.437   6.321  11.527  0.5792  0.1650  0.6166
 2942TIP3    H130317   1.514   6.356  11.482 -0.8767  2.7143 -0.1066
 2942TIP3    H230318   1.459   6.328  11.620  1.4910  0.1541  0.4158
 2943TIP3   OH230319   4.352   3.250  11.595 -0.9312 -0.1369  0.2010
 2943TIP3    H130320   4.265   3.289  11.606 -1.3337 -0.6392 -1.0364
 2943TIP3    H230321   4.398   3.269  11.677 -1.8063  1.1489  0.4084
 2944TIP3   OH230322   2.453   3.298  10.748  0.0146  0.1183  0.2117
 2944TIP3    H130323   2.416   3.257  10.669 -0.1103 -1.5748  1.0941
 2944TIP3    H230324   2.509   3.368  10.715  0.2638 -0.7910 -1.4204
 2945TIP3   OH230325   1.397   0.838  14.272  0.5033 -0.5264  0.1099
 2945TIP3    H130326   1.471   0.896  14.291 -0.5059  0.4154  1.2912
 2945TIP3    H230327   1.413   0.809  14.182  1.5049  0.8882 -0.2061
 2946TIP3   OH230328   0.499   3.005  11.962  0.2241 -0.3562 -0.2019
 2946TIP3    H130329   0.448   3.032  11.886  1.1598  0.1179 -0.6799
 2946TIP3    H230330   0.485   3.074  12.027 -0.7152 -0.8492  0.1367
 2947TIP3   OH230331   0.408   5.953  16.459 -0.0206 -0.7677 -0.3907
 2947TIP3    H130332   0.428   6.015  16.388 -1.7327  0.3653  0.0427
 2947TIP3    H230333   0.458   5.875  16.437  3.5438  1.2074 -0.1570
 2948TIP3   OH230334   6.050   1.264   1.029 -0.0071  0.0573 -0.2618
 2948TIP3    H130335   6.005   1.219   0.958  0.3468  0.4079 -0.7129
 2948TIP3    H230336   6.139   1.230   1.028 -0.1637 -0.3934  0.4200
 2949TIP3   OH230337   4.204   2.643  15.333 -0.0929 -0.3865 -0.1068
 2949TIP3    H130338   4.203   2.736  15.310  0.2295 -0.9517 -2.6597
 2949TIP3    H230339   4.149   2.601  15.267  0.6238 -2.1544  0.3541
 2950TIP3   OH230340   0.472   0.421   2.947  0.4566  0.3430  0.1531
 2950TIP3    H130341   0.415   0.490   2.980 -1.1771 -0.6546 -0.4619
 2950TIP3    H230342   0.483   0.441   2.854  0.9346  0.4135  0.2232
 2951TIP3   OH230343   4.814   3.605   4.214 -0.3432  0.2116  0.3688
 2951TIP3    H130344   4.820   3.605   4.118 -0.1020  1.2806  0.3668
 2951TIP3    H230345   4.905   3.612   4.243 -0.3860 -0.5166  0.6881
 2952TIP3   OH230346   6.274   6.192   1.575  0.3358  0.2836 -0.2138
 2952TIP3    H130347   6.333   6.126   1.612  1.6256  0.3855 -2.0038
 2952TIP3    H230348   6.189   6.149   1.572  0.4717 -0.1793  1.5673
 2953TIP3   OH230349   2.852   0.571   5.048  0.3034 -0.1690 -0.0865
 2953TIP3    H130350   2.843   0.649   5.102  2.3191  0.7241 -0.9622
 2953TIP3    H230351   2.889   0.505   5.107 -0.3172 -0.1244  0.3606
 2954TIP3   OH230352   5.882   3.891   4.550 -0.0585  0.4842  0.3315
 2954TIP3    H130353   5.895   3.819   4.487 -0.6450  1.6395 -1.1830
 2954TIP3    H230354   5.838   3.850   4.624 -1.9076 -0.4440 -1.1876
 2955TIP3   OH230355   0.560   0.249   3.493 -0.3427  0.3430  0.5385
 2955TIP3    H130356   0.482   0.195   3.479 -0.6008  0.6666  0.7308
 2955TIP3    H230357   0.579   0.287   3.407  1.3859 -2.0884 -0.2783
 2956TIP3   OH230358   0.034   2.616   2.487 -0.2263  0.8829 -0.6600
 2956TIP3    H130359  -0.035   2.678   2.509  0.6762  1.7879 -0.2771
 2956TIP3    H230360   0.114   2.657   2.520  0.1309 -1.7226  2.0792
 2957TIP3   OH230361   5.240   4.766   3.365 -0.2976 -0.1292 -0.0680
 2957TIP3    H130362   5.288   4.703   3.419  1.5415  0.5957 -0.7624
 2957TIP3    H230363   5.241   4.727   3.277  0.2959  0.5634 -0.3744
 2958TIP3   OH230364   6.445   5.210   4.035  0.5965 -0.1717  0.8204
 2958TIP3    H130365   6.486   5.204   4.121 -0.7019 -0.6071  1.4273
 2958TIP3    H230366   6.519   5.219   3.974  1.5031  1.0207  2.0354
 2959TIP3   OH230367   6.111   1.725  12.919 -0.0541 -0.1497  0.4691
 2959TIP3    H130368   6.171   1.739  12.992 -0.4286  0.7270  0.6296
 2959TIP3    H230369   6.050   1.799  12.924 -0.7731 -0.6875 -0.0537
 2960TIP3   OH230370   6.563   1.597   1.343  0.0650 -0.6213  0.7086
 2960TIP3    H130371   6.525   1.512   1.367 -1.0993 -0.7366 -1.3232
 2960TIP3    H230372   6.553   1.601   1.248  0.6616  1.5361  0.7056
 2961TIP3   OH230373   2.464   1.523   0.101 -0.3405 -0.1467 -0.5020
 2961TIP3    H130374   2.484   1.605   0.146 -0.2522 -0.7636  0.6083
 2961TIP3    H230375   2.442   1.461   0.171  2.3193 -1.8562 -1.0277
 2962TIP3   OH230376   5.098   6.291  11.806 -0.0618 -0.6600 -0.1385
 2962TIP3    H130377   5.032   6.225  11.828 -2.1290  1.2849 -0.1985
 2962TIP3    H230378   5.105   6.345  11.885 -2.5208  2.2677 -1.7127
 2963TIP3   OH230379   5.515   0.162  15.325  0.2850  0.3220 -0.1685
 2963TIP3    H130380   5.589   0.120  15.368  0.1475  1.3759  1.1676
 2963TIP3    H230381   5.455   0.090  15.304  0.8576 -0.3319  0.3886
 2964TIP3   OH230382   2.560   3.392   1.186 -0.3993 -0.2752  0.0779
 2964TIP3    H130383   2.561   3.441   1.269 -0.6950  1.6576 -0.9976
 2964TIP3    H230384   2.505   3.445   1.128 -0.9917 -2.0755 -1.0912
 2965TIP3   OH230385   4.387   1.127   3.299 -0.0604 -0.0011 -0.0036
 2965TIP3    H130386   4.406   1.074   3.376  0.8558 -1.7083 -1.3273
 2965TIP3    H230387   4.472   1.159   3.270 -0.0174 -1.4415 -1.6661
 2966TIP3   OH230388   2.571   5.166   4.690 -0.7688  0.0088 -1.0568
 2966TIP3    H130389   2.553   5.072   4.692 -1.2931  0.1169 -0.8330
 2966TIP3    H230390   2.495   5.207   4.731  0.4873  0.3813  1.0427
 2967TIP3   OH230391   1.672   2.012  14.692 -1.2733  0.5328 -0.3389
 2967TIP3    H130392   1.628   1.950  14.634 -1.1900 -0.3621  0.5421
 2967TIP3    H230393   1.698   2.084  14.634  1.2536 -1.5338 -2.0152
 2968TIP3   OH230394   4.246   2.052  16.136  0.6564 -0.4068  0.1484
 2968TIP3    H130395   4.197   2.126  16.170  1.8617  0.8281 -0.7049
 2968TIP3    H230396   4.192   2.017  16.065  0.4857  0.2413 -0.0471
 2969TIP3   OH230397   0.041   0.923   5.621  0.5265 -0.1489 -0.4328
 2969TIP3    H130398   0.018   0.831   5.604 -0.4261  0.0763 -0.4022
 2969TIP3    H230399   0.039   0.965   5.535 -0.7130  0.1987 -0.2551
 2970TIP3   OH230400   1.072   2.877   3.497 -0.0346 -0.4827  1.1223
 2970TIP3    H130401   1.167   2.866   3.493  0.2154  0.4080  3.3375
 2970TIP3    H230402   1.037   2.789   3.482  1.2097 -1.1205  1.7899
 2971TIP3   OH230403   5.250   1.684   2.893 -0.2790  0.5710  0.0568
 2971TIP3    H130404   5.202   1.654   2.969  0.7652 -1.3397  0.0415
 2971TIP3    H230405   5.233   1.618   2.826  1.3683  0.4578 -0.3103
 2972TIP3   OH230406   5.341   6.188  12.003 -0.1263  0.0522  0.0079
 2972TIP3    H130407   5.341   6.258  12.068 -0.6195  0.0351  0.0307
 2972TIP3    H230408   5.427   6.194  11.961 -1.0372  2.3215 -1.7513
 2973TIP3   OH230409   1.677   5.244  13.820 -0.0248 -0.0740 -0.0422
 2973TIP3    H130410   1.635   5.210  13.741 -0.2126  1.3204 -0.5701
 2973TIP3    H230411   1.623   5.319  13.846  0.2400 -0.2927  1.2107
 2974TIP3   OH230412   4.642   0.798   1.277 -1.1513  0.0853  0.1030
 2974TIP3    H130413   4.623   0.861   1.208 -1.4692  0.3652  0.4485
 2974TIP3    H230414   4.679   0.850   1.348 -1.1214 -0.1617  0.2692
 2975TIP3   OH230415   5.996   2.949  12.083 -0.4993  0.1343 -0.0864
 2975TIP3    H130416   6.047   2.872  12.111 -1.0841 -0.9393 -1.7944
 2975TIP3    H230417   6.047   2.986  12.011 -1.8444 -0.6935 -1.5276
 2976TIP3   OH230418   5.698   1.044   5.190  0.5850  0.0475 -0.1286
 2976TIP3    H130419   5.707   1.027   5.096 -1.3710  0.0202 -0.3425
 2976TIP3    H230420   5.675   0.959   5.228  2.7991 -0.2828  0.6546
 2977TIP3   OH230421   2.477   0.501   5.737 -1.0481  0.0196  0.1913
 2977TIP3    H130422   2.398   0.455   5.764  0.0045 -1.3522  1.1057
 2977TIP3    H230423   2.545   0.467   5.795  0.5332 -0.0329 -1.5939
 2978TIP3   OH230424   6.565   3.917   3.167 -0.1584 -0.0920  0.0136
 2978TIP3    H130425   6.487   3.960   3.132  0.1982  1.1437  0.6713
 2978TIP3    H230426   6.556   3.926   3.262 -0.1608 -1.6733  0.1892
 2979TIP3   OH230427   2.206   5.640  16.534  0.1041 -0.6850 -0.4748
 2979TIP3    H130428   2.287   5.595  16.509  1.1944  0.9953 -0.1315
 2979TIP3    H230429   2.198   5.625  16.628  0.2047 -0.5633 -0.4464
 2980TIP3   OH230430   6.649   0.507  11.493  0.0805  0.1407  0.1969
 2980TIP3    H130431   6.690   0.544  11.415  1.0454  0.4968  0.8452
 2980TIP3    H230432   6.717   0.513  11.560 -1.2863  1.5634  1.5560
 2981TIP3   OH230433   6.205   2.373   4.230  0.2301  0.5355 -0.0561
 2981TIP3    H130434   6.174   2.405   4.146 -0.1102 -0.4934 -0.3402
 2981TIP3    H230435   6.125   2.359   4.281  0.4700  1.9287  0.7463
 2982TIP3   OH230436   2.144   4.665   2.845 -0.1572 -0.2464  0.3644
 2982TIP3    H130437   2.076   4.694   2.905 -1.6351 -1.1036 -0.8190
 2982TIP3    H230438   2.216   4.726   2.859 -1.4466  1.1828  1.1103
 2983TIP3   OH230439   4.241   0.755   2.182  0.2376  0.0051  0.3269
 2983TIP3    H130440   4.175   0.705   2.231  0.5500  0.2986  1.0728
 2983TIP3    H230441   4.275   0.817   2.246  0.7183  0.3505 -0.2572
 2984TIP3   OH230442   4.258   4.539  14.168 -0.0496 -0.2517  0.2571
 2984TIP3    H130443   4.349   4.547  14.195 -0.2528 -0.4882  1.0347
 2984TIP3    H230444   4.217   4.621  14.196  0.0129  0.0246 -0.4545
 2985TIP3   OH230445   4.444   0.207   1.155  0.2619  0.0965  0.1869
 2985TIP3    H130446   4.513   0.141   1.150  0.2899  0.0594  1.0386
 2985TIP3    H230447   4.421   0.212   1.248 -0.7881  0.2029 -0.0586
 2986TIP3   OH230448   6.439   3.236  13.363 -0.4945 -0.5573 -0.7097
 2986TIP3    H130449   6.363   3.255  13.419 -0.2816 -1.8022  0.0284
 2986TIP3    H230450   6.402   3.230  13.275 -0.8063  1.6080 -0.7880
 2987TIP3   OH230451   3.329   4.085   1.692  0.1166 -0.1227 -0.2531
 2987TIP3    H130452   3.296   4.146   1.757 -1.9484 -0.2748 -1.0979
 2987TIP3    H230453   3.393   4.031   1.739  0.9000  1.6809  0.8589
 2988TIP3   OH230454   6.417   2.625  16.815 -0.4908  0.4269 -0.4010
 2988TIP3    H130455   6.503   2.625  16.858 -1.3454 -2.1943  1.5907
 2988TIP3    H230456   6.428   2.571  16.738  0.1151  1.9277 -1.4124
 2989TIP3   OH230457   1.351   1.402  13.949  0.3679  0.0707 -0.2249
 2989TIP3    H130458   1.446   1.409  13.950  0.3348  0.7630 -0.9189
 2989TIP3    H230459   1.330   1.351  14.028  1.2528  0.7242  0.4624
 2990TIP3   OH230460   1.103   0.461  11.483  0.0642  0.5553 -0.1361
 2990TIP3    H130461   1.058   0.405  11.420 -0.5619 -1.6263  2.0877
 2990TIP3    H230462   1.060   0.546  11.476  0.8858  0.8077 -3.4531
 2991TIP3   OH230463   0.568   6.549   5.257  0.3055  0.0994 -0.0112
 2991TIP3    H130464   0.654   6.525   5.290 -0.2819  0.0079  1.5539
 2991TIP3    H230465   0.519   6.575   5.335 -1.5377 -1.2403 -0.6431
 2992TIP3   OH230466   3.348   2.020   2.248 -0.2911  0.2756 -0.1923
 2992TIP3    H130467   3.350   2.084   2.177  0.4062  0.5407  0.0560
 2992TIP3    H230468   3.439   2.010   2.274 -0.4970 -0.1115  0.4093
 2993TIP3   OH230469   6.831   5.509   5.251  0.0857 -0.2863  0.0776
 2993TIP3    H130470   6.878   5.439   5.296  0.1389 -0.5581 -0.3962
 2993TIP3    H230471   6.877   5.519   5.168 -0.0221  0.2006  0.0762
 2994TIP3   OH230472   0.167   5.417  14.657  0.1845 -0.2870  0.0950
 2994TIP3    H130473   0.123   5.496  14.624 -1.0568  0.5094  3.2544
 2994TIP3    H230474   0.098   5.370  14.705  1.3004 -2.4937 -0.3173
 2995TIP3   OH230475   3.857   5.853  12.289 -0.2787 -0.4495  0.3136
 2995TIP3    H130476   3.852   5.865  12.194 -3.5503  3.7730  0.7235
 2995TIP3    H230477   3.936   5.902  12.315 -0.6501  0.3629 -0.0681
 2996TIP3   OH230478   5.651   3.092  16.670  0.4673 -0.0389 -0.4559
 2996TIP3    H130479   5.736   3.052  16.652  0.8145  0.1205  0.7717
 2996TIP3    H230480   5.647   3.168  16.611  0.9112 -0.3848 -0.9407
 2997TIP3   OH230481   3.493   1.548   4.710  0.4398  0.1931  0.4192
 2997TIP3    H130482   3.420   1.600   4.677  0.6958  0.3140  0.0449
 2997TIP3    H230483   3.566   1.567   4.651  0.8100  0.1618  0.8563
 2998TIP3   OH230484   0.993   2.385   5.327 -0.3800 -0.6464  0.4517
 2998TIP3    H130485   1.048   2.440   5.382 -0.8006 -1.0911  1.3392
 2998TIP3    H230486   0.939   2.335   5.389 -1.2101 -0.8038 -0.3782
 2999TIP3   OH230487   6.065   6.839   5.027  0.0404 -0.1282 -0.3649
 2999TIP3    H130488   6.126   6.868   5.095 -1.7994  1.4273  0.7438
 2999TIP3    H230489   6.083   6.746   5.016  3.3129  0.4583 -0.9041
 3000TIP3   OH230490   6.513   0.831   2.428 -0.0785  0.0727 -0.5693
 3000TIP3    H130491   6.460   0.848   2.350  0.6334  1.1585 -0.8336
 3000TIP3    H230492   6.596   0.798   2.394  0.6045  1.4901 -0.3576
 3001TIP3   OH230493   6.421   0.222   5.029  0.1681 -0.1548  0.0996
 3001TIP3    H130494   6.426   0.181   4.942  1.7371  0.1433  0.0267
 3001TIP3    H230495   6.427   0.316   5.012  0.3848 -0.0899  0.5255
 3002TIP3   OH230496   6.792   1.710  17.123 -0.3129 -0.2466  0.1940
 3002TIP3    H130497   6.789   1.747  17.035  0.3635 -3.2779 -1.2434
 3002TIP3    H230498   6.712   1.658  17.130 -1.2311  1.3254  2.1081
 3003TIP3   OH230499   2.545   4.669   0.275  0.0742  0.2019 -0.1586
 3003TIP3    H130500   2.522   4.650   0.366 -0.0900 -0.0123 -0.2445
 3003TIP3    H230501   2.530   4.763   0.266 -0.4006  0.1338 -0.1063
 3004TIP3   OH230502   0.225   4.795   3.482  0.2388  0.0881  0.5781
 3004TIP3    H130503   0.194   4.772   3.394 -0.7048  1.8174  0.4069
 3004TIP3    H230504   0.154   4.771   3.540 -0.8456  2.5434  0.3739
 3005TIP3   OH230505   4.242   6.748   2.022 -0.0252  0.4331  0.2674
 3005TIP3    H130506   4.256   6.820   1.961  0.8111  0.3229  0.3206
 3005TIP3    H230507   4.273   6.781   2.106 -1.9787  0.8971  0.8453
 3006TIP3   OH230508   2.400   5.727   0.699  0.3612  0.1956  0.4410
 3006TIP3    H130509   2.337   5.656   0.706 -0.4151  0.5436 -2.0392
 3006TIP3    H230510   2.347   5.806   0.692  1.0209  0.5257 -1.4089
 3007TIP3   OH230511   5.765   5.735  15.710 -0.0868  0.7010 -0.5101
 3007TIP3    H130512   5.790   5.769  15.796 -1.9931  0.3432  0.2489
 3007TIP3    H230513   5.691   5.791  15.683  0.3063  0.6278 -1.7936
 3008TIP3   OH230514   2.402   3.448   6.271  0.1379 -0.1753 -0.0292
 3008TIP3    H130515   2.403   3.514   6.202 -0.2322 -0.4391 -0.2884
 3008TIP3    H230516   2.430   3.496   6.349  0.5492  0.1271 -0.3553
 3009TIP3   OH230517   1.744   4.702  15.475 -0.3293  0.5034  0.0655
 3009TIP3    H130518   1.712   4.614  15.495 -0.2769  0.1915 -1.1787
 3009TIP3    H230519   1.675   4.760  15.508 -0.4519  0.0019  0.7230
 3010TIP3   OH230520   5.605   2.808  15.970 -0.1849 -0.7401 -0.2553
 3010TIP3    H130521   5.617   2.883  15.913  2.7599 -1.6139 -0.9124
 3010TIP3    H230522   5.631   2.733  15.918 -0.8118 -1.9886  1.1372
 3011TIP3   OH230523   1.369   1.451   5.712  0.0347  0.5689  0.1030
 3011TIP3    H130524   1.378   1.538   5.752  1.4145  1.4536 -1.9572
 3011TIP3    H230525   1.452   1.437   5.667 -0.3402 -1.6550  0.0147
 3012TIP3   OH230526   5.881   3.250  13.931 -1.1202 -0.3399  0.1698
 3012TIP3    H130527   5.966   3.281  13.901 -1.0834  2.3398  2.5508
 3012TIP3    H230528   5.892   3.239  14.025 -3.0455 -1.2842  0.3250
 3013TIP3   OH230529   5.673   0.802  14.945  0.5419  0.0855  0.6201
 3013TIP3    H130530   5.728   0.867  14.900 -0.0009  1.0505  1.2955
 3013TIP3    H230531   5.658   0.841  15.032  0.5631 -1.1613  1.1991
 3014TIP3   OH230532   5.846   1.580  11.790 -0.7132  0.0604 -0.0752
 3014TIP3    H130533   5.834   1.486  11.803 -0.6983  0.2139  1.1715
 3014TIP3    H230534   5.814   1.619  11.871  0.0668  1.0729 -0.2463
 3015TIP3   OH230535   2.256   2.014   3.567  0.5976 -0.1141 -0.1486
 3015TIP3    H130536   2.320   1.946   3.590  0.1385 -0.4896  0.0404
 3015TIP3    H230537   2.189   1.968   3.517  1.1679  0.5411 -1.5572
 3016TIP3   OH230538   5.960   2.498  15.355  0.0360  0.5516  0.6352
 3016TIP3    H130539   6.051   2.526  15.340  0.7024 -1.0402  1.4183
 3016TIP3    H230540   5.910   2.543  15.287  1.5719  0.6497 -0.5001
 3017TIP3   OH230541   0.307   6.778   4.512 -0.7952  0.4180  0.1326
 3017TIP3    H130542   0.298   6.705   4.574  2.5149  1.0261  1.5159
 3017TIP3    H230543   0.383   6.755   4.459 -0.4943  2.2585 -0.2922
 3018TIP3   OH230544   5.769   0.988   1.194  0.3772  0.5982  0.6037
 3018TIP3    H130545   5.789   0.926   1.123  0.6672  2.0747 -0.6628
 3018TIP3    H230546   5.830   0.965   1.264  0.7281 -0.3117  0.0222
 3019TIP3   OH230547   3.720   3.001   0.292 -0.6802 -0.6535  0.4713
 3019TIP3    H130548   3.632   2.968   0.274 -0.8827  1.2662 -2.9997
 3019TIP3    H230549   3.773   2.967   0.220  0.6950  0.6221  0.8339
 3020TIP3   OH230550   1.220   3.814   2.058 -0.0411 -1.0406  0.6355
 3020TIP3    H130551   1.196   3.757   2.131 -0.4038 -1.5473  0.1278
 3020TIP3    H230552   1.213   3.758   1.981  0.4924 -0.5511  0.2272
 3021TIP3   OH230553   0.621   0.516   0.905  0.0875 -0.1052  0.0546
 3021TIP3    H130554   0.673   0.479   0.834  1.5497  1.6455  0.1180
 3021TIP3    H230555   0.548   0.560   0.861  0.7121  0.5480 -0.3478
 3022TIP3   OH230556   1.716   3.529  14.908 -0.0224  0.1709 -0.5820
 3022TIP3    H130557   1.750   3.469  14.974 -1.8687  0.4371  0.7001
 3022TIP3    H230558   1.633   3.490  14.881  0.3116  0.4958 -2.1768
 3023TIP3   OH230559   4.887   5.792   3.967 -0.7117  0.3687  0.3636
 3023TIP3    H130560   4.823   5.806   3.897 -1.5860 -1.4346  0.7246
 3023TIP3    H230561   4.908   5.698   3.961  1.0449  0.6888  0.9908
 3024TIP3   OH230562   6.580   2.952  13.158 -0.7272  0.5134 -0.1519
 3024TIP3    H130563   6.496   2.911  13.175 -1.3729  1.8900  0.1533
 3024TIP3    H230564   6.579   2.972  13.065 -0.4789  0.0014 -0.2690
 3025TIP3   OH230565   6.653   3.662  13.134  0.3636 -0.2467 -0.1305
 3025TIP3    H130566   6.709   3.682  13.208  0.1587  2.0735 -0.5266
 3025TIP3    H230567   6.565   3.656  13.171  0.1197  1.8905 -0.2501
 3026TIP3   OH230568   5.395   5.996  16.661 -0.2170 -0.5057  0.1958
 3026TIP3    H130569   5.350   6.060  16.607  1.4636  0.7855  0.2242
 3026TIP3    H230570   5.353   6.002  16.747 -0.8945 -0.3638 -0.1411
 3027TIP3   OH230571   3.365   6.057   2.260  0.0085  0.0369 -0.3195
 3027TIP3    H130572   3.344   6.142   2.221 -2.8694  0.2627  1.4703
 3027TIP3    H230573   3.439   6.075   2.317 -1.2404  1.6428  0.8639
 3028TIP3   OH230574   4.201   4.594  11.024  0.0887  0.2573 -0.0023
 3028TIP3    H130575   4.233   4.629  11.107 -1.8166  3.5258 -0.4701
 3028TIP3    H230576   4.272   4.610  10.962 -0.6329  3.5285 -0.1631
 3029TIP3   OH230577   4.025   4.747  13.376  0.6981  0.2779  0.0567
 3029TIP3    H130578   3.956   4.800  13.334 -0.9815 -0.6629  1.4821
 3029TIP3    H230579   4.035   4.671  13.319 -1.3101 -0.8189  1.0821
 3030TIP3   OH230580   4.618   3.978   2.759 -0.2332  0.4082 -0.1904
 3030TIP3    H130581   4.551   4.037   2.723 -0.0801  0.2487 -0.7460
 3030TIP3    H230582   4.681   4.037   2.800 -0.1376  0.6275 -0.6432
 3031TIP3   OH230583   5.365   2.768  16.114 -0.0720  0.0172  0.2191
 3031TIP3    H130584   5.370   2.776  16.209  1.8412  0.4880  0.1207
 3031TIP3    H230585   5.448   2.802  16.083 -1.3766  1.6130 -1.7704
 3032TIP3   OH230586   2.286   5.232  13.178 -0.2255 -0.9068  0.2030
 3032TIP3    H130587   2.337   5.284  13.115  0.0447 -1.1477  0.2232
 3032TIP3    H230588   2.349   5.171  13.215 -0.6153 -1.4795 -0.0669
 3033TIP3   OH230589   2.071   1.072  14.510 -0.2154 -0.1595  0.2990
 3033TIP3    H130590   2.089   1.145  14.570 -0.5445  0.8398 -0.7960
 3033TIP3    H230591   2.157   1.039  14.486 -0.0760 -0.5678  1.3028
 3034TIP3   OH230592   0.071   1.002   0.133  0.3389  0.0872 -0.1339
 3034TIP3    H130593   0.088   0.930   0.194 -1.3373  1.2996  1.9045
 3034TIP3    H230594  -0.005   1.047   0.170  0.5120  2.1259 -2.0619
 3035TIP3   OH230595   1.933   5.318   0.943  0.3175 -0.0626  0.2394
 3035TIP3    H130596   1.988   5.249   0.908 -0.1343  0.3078 -1.2506
 3035TIP3    H230597   1.918   5.377   0.869 -0.0237  1.1719  1.2518
 3036TIP3   OH230598   1.805   3.773   6.284 -0.6959 -0.1295  0.1244
 3036TIP3    H130599   1.865   3.718   6.232  0.4061  1.6605 -0.6054
 3036TIP3    H230600   1.723   3.771   6.236 -0.6327 -1.0042  0.0339
 3037TIP3   OH230601   6.496   6.130   5.697 -0.2614 -0.5184 -0.4845
 3037TIP3    H130602   6.407   6.100   5.679 -0.5034  0.2349 -0.5416
 3037TIP3    H230603   6.543   6.114   5.615 -0.2055 -1.3792 -0.3015
 3038TIP3   OH230604   1.559   2.713  16.366  0.4782 -0.2650 -0.0456
 3038TIP3    H130605   1.557   2.665  16.449  0.0114 -0.1970 -0.0165
 3038TIP3    H230606   1.646   2.695  16.330  1.2270  0.8302  1.1254
 3039TIP3   OH230607   6.205   2.028   5.455 -0.1123  0.0102 -0.2980
 3039TIP3    H130608   6.145   2.060   5.522 -0.9116  2.7218 -2.1415
 3039TIP3    H230609   6.187   1.934   5.449 -0.7406 -0.1177  2.4733
 3040TIP3   OH230610   0.766   2.315  14.980 -0.2692  0.0457  0.1116
 3040TIP3    H130611   0.672   2.330  14.976 -0.2049  0.3876 -0.2197
 3040TIP3    H230612   0.784   2.258  14.906 -0.1821  0.1738  0.0341
 3041TIP3   OH230613   1.659   3.634  16.159  0.4591  0.1571 -0.1738
 3041TIP3    H130614   1.630   3.546  16.183  1.4246 -0.2626 -0.5270
 3041TIP3    H230615   1.754   3.631  16.163  0.5186  1.1020 -0.5048
 3042TIP3   OH230616   6.667   2.339   1.161 -0.4560  0.1747  0.5300
 3042TIP3    H130617   6.669   2.430   1.193 -1.9326  0.7708 -0.9015
 3042TIP3    H230618   6.651   2.348   1.067 -1.5047 -1.5827  0.5036
 3043TIP3   OH230619   6.658   4.132  13.008  0.4380  0.0398 -0.6549
 3043TIP3    H130620   6.602   4.058  12.987  0.7975 -0.4774  0.1901
 3043TIP3    H230621   6.674   4.126  13.102  3.1393 -0.7341 -1.0718
 3044TIP3   OH230622   6.158   6.315   4.956 -0.2297  0.0677 -0.2838
 3044TIP3    H130623   6.113   6.319   4.871 -0.5354  1.9105 -0.0789
 3044TIP3    H230624   6.095   6.271   5.014  0.1326 -1.5574 -1.0595
 3045TIP3   OH230625   6.085   5.012  12.250 -0.0126 -0.4061 -0.5569
 3045TIP3    H130626   6.123   5.016  12.337  1.3984  1.2180 -1.1851
 3045TIP3    H230627   5.990   5.018  12.264  0.2009 -0.1216  0.8424
 3046TIP3   OH230628   5.032   0.889   4.775  0.0259 -0.0356 -0.7602
 3046TIP3    H130629   5.125   0.870   4.773  0.2527  1.0092 -1.0181
 3046TIP3    H230630   5.012   0.902   4.868 -0.1310 -1.3973 -0.5828
 3047TIP3   OH230631   1.564   1.948   5.524 -0.1497  0.0914 -0.1589
 3047TIP3    H130632   1.628   1.904   5.579  0.2109  1.7024  0.7835
 3047TIP3    H230633   1.611   2.023   5.487 -1.8291  2.3482  1.9368
 3048TIP3   OH230634   4.610   5.136  15.647  0.4449 -0.0909  0.2281
 3048TIP3    H130635   4.601   5.216  15.596  0.5451 -0.7156 -0.7983
 3048TIP3    H230636   4.649   5.073  15.586  0.7803 -0.7939  1.1490
 3049TIP3   OH230637   1.344   6.176   4.160  0.2512 -0.2378  0.4719
 3049TIP3    H130638   1.278   6.163   4.228  0.7385  1.2944  1.2661
 3049TIP3    H230639   1.393   6.253   4.188 -0.0352  0.9332 -1.9990
 3050TIP3   OH230640   1.944   3.724   4.222  0.5748  0.3515  0.1482
 3050TIP3    H130641   1.894   3.802   4.199 -2.1361 -1.3372 -0.2694
 3050TIP3    H230642   1.981   3.743   4.308 -0.7356  1.8103  0.4358
 3051TIP3   OH230643   0.077   4.899  12.056 -0.3338 -0.4278 -0.0319
 3051TIP3    H130644   0.027   4.861  11.984 -0.7512 -0.7108  0.4033
 3051TIP3    H230645   0.146   4.835  12.074 -2.0233 -1.8712  1.8191
 3052TIP3   OH230646   5.494   3.998   4.991 -0.5150 -0.2276  0.2585
 3052TIP3    H130647   5.546   3.921   4.970  1.3861  1.0422  0.0228
 3052TIP3    H230648   5.533   4.032   5.072 -1.2987  0.5008  0.3458
 3053TIP3   OH230649   1.206   0.272   0.429 -0.0109  0.0125  0.6356
 3053TIP3    H130650   1.149   0.285   0.354  0.3475 -1.7859 -0.0009
 3053TIP3    H230651   1.184   0.185   0.461  2.0077 -0.5309  0.6719
 3054TIP3   OH230652   2.910   0.504   1.547  0.0108 -0.2372  0.5743
 3054TIP3    H130653   2.928   0.573   1.611 -0.0083  0.2980  0.0191
 3054TIP3    H230654   2.977   0.516   1.479  0.7257 -1.4978  1.0312
 3055TIP3   OH230655   0.381   3.224  15.524  0.3429  0.1115 -0.3525
 3055TIP3    H130656   0.366   3.130  15.517  0.1959  0.0641  0.5780
 3055TIP3    H230657   0.446   3.243  15.457  0.7815 -0.7422 -0.1748
 3056TIP3   OH230658   3.028   0.657   1.776 -0.5434 -0.4210  0.5832
 3056TIP3    H130659   2.986   0.686   1.857 -1.2981  2.0704 -0.6102
 3056TIP3    H230660   3.106   0.610   1.806 -0.9632  0.1300  2.7583
 3057TIP3   OH230661   2.424   0.974   2.502  0.2460  0.2576 -0.2409
 3057TIP3    H130662   2.354   1.033   2.530  0.8276  0.5735  0.5835
 3057TIP3    H230663   2.477   1.026   2.441  1.3031  0.9425  1.2032
 3058TIP3   OH230664   1.216   5.914  11.976 -0.3154 -0.0997  0.1603
 3058TIP3    H130665   1.134   5.960  11.991 -0.6493 -0.4436 -0.5589
 3058TIP3    H230666   1.199   5.824  12.002 -0.1142 -0.1345  0.1793
 3059TIP3   OH230667   6.125   0.549   3.262  0.1120 -0.4969  0.2077
 3059TIP3    H130668   6.095   0.587   3.344 -0.3930 -1.0282  0.2760
 3059TIP3    H230669   6.047   0.511   3.223  0.4530 -0.7334 -0.2546
 3060TIP3   OH230670   2.722   6.416  13.968  0.7467 -0.5080 -0.4349
 3060TIP3    H130671   2.664   6.372  13.906 -0.4183  1.6054 -0.9276
 3060TIP3    H230672   2.669   6.488  14.004  2.4017  0.2077  0.6881
 3061TIP3   OH230673   3.154   3.916   3.206 -0.3861  0.5552 -0.3555
 3061TIP3    H130674   3.119   3.887   3.290 -0.9514  1.1525 -0.3807
 3061TIP3    H230675   3.248   3.924   3.221  0.2256 -3.5489 -0.9855
 3062TIP3   OH230676   2.583   3.221   4.068  0.2847 -0.1250  0.1176
 3062TIP3    H130677   2.595   3.296   4.126  2.9521  0.2574 -0.7458
 3062TIP3    H230678   2.619   3.147   4.117  2.5598  0.2016 -0.8950
 3063TIP3   OH230679   4.580   4.269   2.812 -1.2169 -0.2422 -0.3479
 3063TIP3    H130680   4.656   4.258   2.870 -1.1575 -0.7165 -0.5094
 3063TIP3    H230681   4.546   4.356   2.833 -0.8577 -0.1820 -0.0010
 3064TIP3   OH230682   4.196   0.351   2.387 -0.7410 -0.8553 -0.6641
 3064TIP3    H130683   4.111   0.378   2.353 -0.6259 -1.0248 -1.0923
 3064TIP3    H230684   4.238   0.433   2.415 -0.9872 -0.7569 -0.5804
 3065TIP3   OH230685   3.296   0.085   0.623  0.1157  0.0388  0.0348
 3065TIP3    H130686   3.346   0.163   0.597 -0.3233 -0.1215 -1.3838
 3065TIP3    H230687   3.259   0.107   0.708  0.7104  1.0525  0.0429
 3066TIP3   OH230688   3.581   5.356  16.112 -0.2764 -0.0627  0.7764
 3066TIP3    H130689   3.504   5.409  16.133  0.6411  1.0810  1.3406
 3066TIP3    H230690   3.632   5.411  16.052 -0.0737 -0.9713  0.0979
 3067TIP3   OH230691   6.576   0.535   3.991 -0.0698  0.0172 -0.3633
 3067TIP3    H130692   6.540   0.615   4.030 -0.8947  0.2735 -1.5913
 3067TIP3    H230693   6.653   0.565   3.941 -1.8159  0.5507 -2.9532
 3068TIP3   OH230694   2.543   0.731   0.287 -0.3870  1.1295 -0.4011
 3068TIP3    H130695   2.513   0.818   0.261 -0.0347  1.3722 -0.0113
 3068TIP3    H230696   2.470   0.694   0.337 -0.0449  1.7231  0.5554
 3069TIP3   OH230697   6.353   3.165   2.048  0.0736  0.0833  0.8587
 3069TIP3    H130698   6.412   3.164   2.124  1.1744 -1.4227  0.0401
 3069TIP3    H230699   6.408   3.137   1.975 -1.4040 -0.2521 -0.1709
 3070TIP3   OH230700   4.932   6.374   2.604  0.0172 -0.6292  0.4245
 3070TIP3    H130701   4.964   6.432   2.673 -0.2545  0.1159 -0.0661
 3070TIP3    H230702   5.008   6.357   2.549 -0.5172  1.8862 -1.2764
 3071TIP3   OH230703   2.776   2.172  15.938  0.4795  0.3600  0.5165
 3071TIP3    H130704   2.754   2.099  15.996  0.8530 -2.0170 -2.0820
 3071TIP3    H230705   2.871   2.168  15.930  0.3266 -0.6412 -1.6170
 3072TIP3   OH230706   1.842   4.842   3.777 -0.8426  0.1273 -0.4809
 3072TIP3    H130707   1.769   4.813   3.722 -1.1865  1.7565 -0.9342
 3072TIP3    H230708   1.841   4.781   3.851 -1.0948 -1.3879 -1.6770
 3073TIP3   OH230709   5.682   5.987  16.510 -0.5655 -0.5081  0.5406
 3073TIP3    H130710   5.710   6.078  16.518 -0.3824 -0.5004 -0.1856
 3073TIP3    H230711   5.588   5.989  16.528 -0.9938  0.1507 -1.5255
 3074TIP3   OH230712   2.551   6.607  14.129  0.4720 -0.2032 -0.2116
 3074TIP3    H130713   2.468   6.654  14.137 -0.5047 -1.6245 -1.3751
 3074TIP3    H230714   2.570   6.576  14.218 -0.1181  0.3325  0.1080
 3075TIP3   OH230715   3.875   3.458   1.016  0.0155  0.0373 -0.4523
 3075TIP3    H130716   3.880   3.553   1.033 -0.3838  0.6666 -3.3789
 3075TIP3    H230717   3.795   3.447   0.966  0.0359 -1.8838 -0.1058
 3076TIP3   OH230718   2.019   6.384  11.330 -0.2462 -0.1083  0.0902
 3076TIP3    H130719   1.967   6.374  11.410 -1.8963 -2.2993 -1.1644
 3076TIP3    H230720   2.076   6.459  11.348 -1.6025  0.3989  2.7375
 3077TIP3   OH230721   0.094   6.503  13.755  0.1455 -0.0305 -0.2864
 3077TIP3    H130722   0.009   6.547  13.761  0.5765  0.7422  0.3238
 3077TIP3    H230723   0.136   6.520  13.839  0.4509 -1.3742 -0.1490
 3078TIP3   OH230724   3.461   5.039  16.477  0.4440 -0.3252 -0.0776
 3078TIP3    H130725   3.533   4.996  16.432  0.3858  1.8624 -2.4834
 3078TIP3    H230726   3.398   5.060  16.408 -0.7044  1.2420  1.3486
 3079TIP3   OH230727   4.026   5.914  15.653  0.0124 -0.1142  0.2209
 3079TIP3    H130728   3.956   5.975  15.676  0.5700 -0.3131  2.7038
 3079TIP3    H230729   3.991   5.863  15.580 -1.0277  2.1254 -0.9396
 3080TIP3   OH230730   4.390   4.320   1.044 -1.0046  0.0833  0.1001
 3080TIP3    H130731   4.351   4.363   0.968 -1.1935  1.2343  0.8286
 3080TIP3    H230732   4.319   4.316   1.108  0.0729  2.4829  1.5637
 3081TIP3   OH230733   1.883   0.570  13.227 -0.5135 -0.2346  0.0696
 3081TIP3    H130734   1.788   0.567  13.216 -0.4702 -1.9673 -0.0903
 3081TIP3    H230735   1.902   0.504  13.294  0.6206 -0.2377 -0.2266
 3082TIP3   OH230736   4.968   6.413  10.862  0.0992  0.8466  0.0535
 3082TIP3    H130737   4.960   6.323  10.895 -0.7736  0.8839 -0.0413
 3082TIP3    H230738   5.036   6.452  10.916 -1.0832  0.8131  1.6168
 3083TIP3   OH230739   2.650   3.402   4.776 -0.3047 -0.5607 -0.5499
 3083TIP3    H130740   2.571   3.424   4.727 -0.7782 -1.2787 -0.1234
 3083TIP3    H230741   2.627   3.420   4.867  0.4875  0.5387 -0.5448
 3084TIP3   OH230742   2.506   1.309   1.968  0.0667  0.2520 -0.3066
 3084TIP3    H130743   2.452   1.252   2.024 -2.5516  1.5542 -1.3283
 3084TIP3    H230744   2.524   1.386   2.021  0.7338 -0.0606 -0.0642
 3085TIP3   OH230745   5.244   0.491   2.175  0.5886 -0.4792  0.4088
 3085TIP3    H130746   5.160   0.503   2.220 -0.2403 -1.2261 -0.8906
 3085TIP3    H230747   5.278   0.409   2.210  0.2418 -0.7374  0.1559
 3086TIP3   OH230748   4.097   1.606   0.090  0.0609  0.1106  0.0144
 3086TIP3    H130749   4.097   1.516   0.122 -0.1777  0.4975  1.1787
 3086TIP3    H230750   4.046   1.603   0.010  0.2299 -0.8272 -0.0654
 3087TIP3   OH230751   5.481   5.763   0.673  0.4594  0.4477  0.1757
 3087TIP3    H130752   5.429   5.721   0.605 -0.8606 -0.1093  1.4556
 3087TIP3    H230753   5.517   5.689   0.723  2.8360  0.8120 -0.8853
 3088TIP3   OH230754   5.386   5.883  14.699  0.0208 -0.4440  0.1691
 3088TIP3    H130755   5.381   5.975  14.673 -2.8204 -0.8287 -0.9984
 3088TIP3    H230756   5.468   5.852  14.661  0.3678  1.2528 -0.5876
 3089TIP3   OH230757   1.826   5.102   6.293 -0.3567 -0.0643 -0.0183
 3089TIP3    H130758   1.824   5.197   6.296  1.2871  0.0384 -1.1746
 3089TIP3    H230759   1.737   5.077   6.267 -0.7450  1.1494  0.1077
 3090TIP3   OH230760   5.302   3.488   0.712  0.0072 -0.6674 -0.1838
 3090TIP3    H130761   5.273   3.433   0.785 -1.2305  1.3725  0.9450
 3090TIP3    H230762   5.389   3.518   0.737  1.4915 -3.4197 -1.6342
 3091TIP3   OH230763   4.912   3.206   1.208 -0.0929  0.1141  0.4200
 3091TIP3    H130764   4.886   3.296   1.186  1.7105  0.5559 -0.0495
 3091TIP3    H230765   4.847   3.151   1.163  0.3051  1.1412 -1.5301
 3092TIP3   OH230766   1.159   4.315  13.302  0.2730  0.0767 -0.3646
 3092TIP3    H130767   1.210   4.396  13.295  0.3738  0.0198 -0.2930
 3092TIP3    H230768   1.200   4.268  13.375 -0.0248  0.1351 -0.1548
 3093TIP3   OH230769   3.036   4.140  16.510  0.0032  0.2048 -0.0498
 3093TIP3    H130770   3.109   4.159  16.569  0.4633 -0.1779 -0.4887
 3093TIP3    H230771   2.960   4.134  16.568  0.6114 -1.1948  0.6349
 3094TIP3   OH230772   0.908   3.201   6.435 -0.4407  0.5763 -0.4797
 3094TIP3    H130773   0.835   3.251   6.471 -1.2709 -0.4957 -0.6405
 3094TIP3    H230774   0.903   3.216   6.341 -0.4142  0.5654 -0.4830
 3095TIP3   OH230775   3.575   3.518  12.039  0.1858  0.2280  0.9370
 3095TIP3    H130776   3.575   3.544  12.131 -0.6504 -2.6671  1.8560
 3095TIP3    H230777   3.498   3.560  12.002  0.2401  0.9973  1.6687
 3096TIP3   OH230778   6.704   0.550   1.522 -0.1468 -0.2436  0.0567
 3096TIP3    H130779   6.660   0.483   1.574 -0.3290 -1.9505 -2.1059
 3096TIP3    H230780   6.794   0.520   1.515  0.1145  0.4960  0.2357
 3097TIP3   OH230781   1.423   5.971  13.925  0.2274  0.3246  0.2855
 3097TIP3    H130782   1.375   5.889  13.922  1.0971 -0.1691 -0.5657
 3097TIP3    H230783   1.386   6.023  13.854 -1.5509  1.4078  1.9133
 3098TIP3   OH230784   3.307   6.817  15.685 -0.1593  0.5941  0.0945
 3098TIP3    H130785   3.378   6.758  15.658 -0.0042  0.8887 -0.1471
 3098TIP3    H230786   3.236   6.800  15.622 -0.2938  0.3208  0.3175
 3099TIP3   OH230787   3.230   2.756  15.852 -0.0195  0.3881  0.8034
 3099TIP3    H130788   3.143   2.716  15.856  0.0077  0.4052  1.7969
 3099TIP3    H230789   3.281   2.697  15.796 -0.6010  0.2603  0.3981
 3100TIP3   OH230790   4.707   6.207   0.626  0.1965 -0.3771  0.3487
 3100TIP3    H130791   4.644   6.136   0.634  2.2290 -2.1863  1.0520
 3100TIP3    H230792   4.735   6.226   0.715 -1.5712  2.6144  0.3911
 3101TIP3   OH230793   5.558   5.933   6.161 -0.0457  0.3089 -0.0340
 3101TIP3    H130794   5.534   5.841   6.165  1.9136 -0.1898  1.2762
 3101TIP3    H230795   5.637   5.935   6.108  0.9942  0.9690  1.4879
 3102TIP3   OH230796   0.638   0.613  13.914 -0.0139  0.1662  0.5428
 3102TIP3    H130797   0.623   0.558  13.991 -0.7564  1.4589  1.3655
 3102TIP3    H230798   0.712   0.573  13.869  0.2729 -0.7670  1.8000
 3103TIP3   OH230799   0.773   0.102   0.087  0.5522 -0.7909 -0.1152
 3103TIP3    H130800   0.751   0.010   0.098  0.0356 -0.6933 -0.2925
 3103TIP3    H230801   0.733   0.146   0.162 -1.3878 -0.3773 -1.3210
 3104TIP3   OH230802   3.035   2.211  12.801 -0.2550  0.2889  0.3154
 3104TIP3    H130803   2.979   2.282  12.830 -1.1924 -1.0531  1.9425
 3104TIP3    H230804   3.048   2.156  12.878  1.9478 -0.3620 -0.4151
 3105TIP3   OH230805   4.251   0.963   4.201 -0.4560 -0.0015 -0.0427
 3105TIP3    H130806   4.197   0.996   4.273  1.3243  0.2941  1.2247
 3105TIP3    H230807   4.192   0.963   4.125 -1.6942  2.1917  0.8077
 3106TIP3   OH230808   3.710   3.943  11.816  0.3702 -0.4962  0.2358
 3106TIP3    H130809   3.662   4.002  11.873  1.8382  2.0357 -0.9808
 3106TIP3    H230810   3.801   3.952  11.844  0.7063 -1.8816 -0.3087
 3107TIP3   OH230811   5.888   2.598  11.144  0.3610 -0.3648  0.7977
 3107TIP3    H130812   5.814   2.544  11.117  0.7207 -0.8647  0.8057
 3107TIP3    H230813   5.965   2.547  11.121  0.7055 -1.0512  3.1605
 3108TIP3   OH230814   0.268   3.537  13.284 -0.9559 -0.2012 -0.2450
 3108TIP3    H130815   0.217   3.563  13.208 -1.1034  0.4964  0.0770
 3108TIP3    H230816   0.311   3.456  13.259 -0.2530  0.5085 -1.4164
 3109TIP3   OH230817   2.569   2.404  13.308  0.2787 -0.0960 -0.3219
 3109TIP3    H130818   2.550   2.367  13.394  1.3409  0.2005  0.0597
 3109TIP3    H230819   2.638   2.348  13.272  0.4411  0.2800 -0.6135
 3110TIP3   OH230820   4.270   0.613  12.678  0.1406 -0.2369  0.2852
 3110TIP3    H130821   4.265   0.536  12.623 -1.7041  0.1770 -0.1879
 3110TIP3    H230822   4.302   0.682  12.620  0.7343 -0.3941  0.4231
 3111TIP3   OH230823   1.208   1.491   2.527  0.1342 -0.4230  0.2630
 3111TIP3    H130824   1.237   1.400   2.531 -1.2416 -0.8992 -0.0226
 3111TIP3    H230825   1.279   1.537   2.481  0.7282 -1.3984  0.1777
 3112TIP3   OH230826   4.155   3.582   0.787  0.4999 -0.3627 -0.0228
 3112TIP3    H130827   4.091   3.510   0.791  1.3518 -1.2322 -1.3579
 3112TIP3    H230828   4.169   3.597   0.694  2.8822 -0.8132  0.2055
 3113TIP3   OH230829   0.786   3.970   5.420  0.1282  0.3729  0.1157
 3113TIP3    H130830   0.758   3.930   5.337 -0.1815  1.2575 -0.2118
 3113TIP3    H230831   0.762   4.062   5.412 -0.3320  0.3822  1.3760
 3114TIP3   OH230832   4.993   1.220  15.678 -0.0867  0.5101  0.0322
 3114TIP3    H130833   4.967   1.128  15.669 -2.0022  1.1204 -1.3683
 3114TIP3    H230834   4.974   1.242  15.769 -0.8605 -0.1374  0.0334
 3115TIP3   OH230835   2.247   2.170  11.128  0.4078  0.0359  0.4045
 3115TIP3    H130836   2.242   2.075  11.139  2.4842 -0.2059 -0.1927
 3115TIP3    H230837   2.248   2.183  11.033 -1.2233  0.7893  0.4702
 3116TIP3   OH230838   5.545   1.499   2.056 -0.3463 -0.0639  0.0634
 3116TIP3    H130839   5.457   1.460   2.057 -0.1125 -0.6079 -0.3315
 3116TIP3    H230840   5.604   1.425   2.044  0.1988  0.2569  0.7194
 3117TIP3   OH230841   3.560   0.242   3.222 -0.6152 -0.2987 -0.1038
 3117TIP3    H130842   3.579   0.252   3.129 -3.2341  0.3848 -0.6231
 3117TIP3    H230843   3.513   0.160   3.229 -2.1553  0.5688  0.2703
 3118TIP3   OH230844   5.283   3.310   3.103  0.2807 -0.1488 -0.0434
 3118TIP3    H130845   5.236   3.392   3.086 -2.1996 -1.6068 -0.5998
 3118TIP3    H230846   5.236   3.270   3.176  0.7284 -1.6126 -0.5258
 3119TIP3   OH230847   1.864   2.883   1.812 -0.3230 -0.4998 -0.3498
 3119TIP3    H130848   1.926   2.825   1.766  0.0160  0.5917 -1.3249
 3119TIP3    H230849   1.890   2.877   1.904  0.1125 -1.3969 -0.5128
 3120TIP3   OH230850   6.558   5.434   2.253 -0.3563 -0.3470  0.8618
 3120TIP3    H130851   6.608   5.391   2.323 -0.2980 -0.1363  0.9505
 3120TIP3    H230852   6.480   5.379   2.242  0.7617 -1.7466 -0.5605
 3121TIP3   OH230853   5.917   4.257   1.282  0.0211  0.4172 -0.2409
 3121TIP3    H130854   5.839   4.217   1.322  0.9944  0.5803  1.9641
 3121TIP3    H230855   5.924   4.214   1.197 -0.5510 -2.1607  0.8919
 3122TIP3   OH230856   3.843   5.660  15.737 -0.1407  0.2272 -0.2031
 3122TIP3    H130857   3.911   5.716  15.700  0.4626  1.2657  2.2747
 3122TIP3    H230858   3.813   5.707  15.815 -1.9025 -1.4294  0.1971
 3123TIP3   OH230859   5.157   1.817  10.721 -0.3663 -0.0849  0.3833
 3123TIP3    H130860   5.163   1.903  10.762 -0.3960 -1.0572  2.5861
 3123TIP3    H230861   5.245   1.780  10.730 -0.4526 -0.4466 -0.1816
 3124TIP3   OH230862   3.002   2.054   0.220 -0.4350  0.6190 -0.0848
 3124TIP3    H130863   2.956   2.137   0.233 -0.5572  0.3867  1.1393
 3124TIP3    H230864   3.065   2.050   0.293  1.3792  0.8074 -1.5587
 3125TIP3   OH230865   3.724   3.442  11.336 -0.3518 -0.3401  0.1449
 3125TIP3    H130866   3.684   3.431  11.422 -2.6451 -0.8308 -0.9166
 3125TIP3    H230867   3.695   3.367  11.285 -0.5259  0.8235 -1.5792
 3126TIP3   OH230868   0.258   5.481  11.860 -0.0445 -0.0803  0.3651
 3126TIP3    H130869   0.186   5.542  11.879 -0.4788 -0.9774  1.7848
 3126TIP3    H230870   0.315   5.529  11.800 -1.3716  0.9837 -0.1122
 3127TIP3   OH230871   1.147   4.218   0.134  0.4687  0.3267  0.0373
 3127TIP3    H130872   1.198   4.173   0.201  0.2191  1.7787  1.2739
 3127TIP3    H230873   1.107   4.149   0.082 -0.1168 -0.8801  2.0039
 3128TIP3   OH230874   2.255   0.028   0.786  0.0506 -0.1946  0.5939
 3128TIP3    H130875   2.177   0.040   0.840 -0.6382 -0.2767 -0.3538
 3128TIP3    H230876   2.226   0.051   0.698  0.8597 -1.0737  0.0876
 3129TIP3   OH230877   2.970   2.659  14.914 -0.4787  0.1858  0.1875
 3129TIP3    H130878   2.890   2.686  14.869  0.0030 -0.8317 -1.3548
 3129TIP3    H230879   3.035   2.649  14.844  0.3246 -1.4011  1.1016
 3130TIP3   OH230880   0.930   4.045  11.917 -0.2516  0.7948  0.2140
 3130TIP3    H130881   0.976   4.092  11.986 -0.3996 -0.6332  1.3313
 3130TIP3    H230882   0.854   4.007  11.960 -0.6470  0.3217 -0.8598
 3131TIP3   OH230883   5.216   6.521   4.563 -0.0915  0.0180  0.3527
 3131TIP3    H130884   5.203   6.429   4.586  0.9016 -0.3014 -0.2841
 3131TIP3    H230885   5.141   6.566   4.601 -1.3735 -1.2557 -0.5623
 3132TIP3   OH230886   2.432   5.499  13.421  0.0507 -0.1185  0.5396
 3132TIP3    H130887   2.481   5.535  13.347 -1.6841 -1.2618 -1.2596
 3132TIP3    H230888   2.401   5.576  13.469 -0.2133  0.7143 -0.9118
 3133TIP3   OH230889   2.254   4.207  10.636  0.0494 -0.2660 -0.0234
 3133TIP3    H130890   2.247   4.124  10.683  0.8045 -0.5546 -0.3950
 3133TIP3    H230891   2.175   4.211  10.582  0.4656 -1.2473 -0.7627
 3134TIP3   OH230892   3.224   0.922  12.853  0.3760 -0.6768 -0.2544
 3134TIP3    H130893   3.141   0.876  12.868 -0.4135  0.2658 -1.5172
 3134TIP3    H230894   3.252   0.950  12.940 -0.5252 -1.2060  0.2178
 3135TIP3   OH230895   6.559   2.106  13.575 -0.2949  0.2223 -0.3076
 3135TIP3    H130896   6.605   2.178  13.533 -0.5734  1.4151  1.3417
 3135TIP3    H230897   6.561   2.127  13.668 -0.0788 -2.0999  0.2700
 3136TIP3   OH230898   1.777   3.234  16.544  0.0083  0.1719 -0.2398
 3136TIP3    H130899   1.859   3.239  16.594 -0.1131 -0.4367  0.0312
 3136TIP3    H230900   1.721   3.300  16.584 -0.2557 -0.6365  0.7632
 3137TIP3   OH230901   3.529   0.774  10.267  0.4455 -0.3123  0.4054
 3137TIP3    H130902   3.621   0.798  10.283 -0.2374  0.5440  3.8226
 3137TIP3    H230903   3.517   0.692  10.314 -0.7366  0.1097  0.8916
 3138TIP3   OH230904   6.638   5.945  12.893 -0.4539  0.5948  0.6019
 3138TIP3    H130905   6.664   5.947  12.801  0.0535  0.0814  0.7226
 3138TIP3    H230906   6.644   6.036  12.922 -2.4420  1.0848 -0.3447
 3139TIP3   OH230907   4.610   0.462  16.240  0.0713 -0.4779  0.0812
 3139TIP3    H130908   4.622   0.367  16.246  0.2238 -0.5945 -1.5918
 3139TIP3    H230909   4.606   0.480  16.146 -1.8704  0.9559  0.3843
 3140TIP3   OH230910   0.771   1.809  16.161  0.0628 -0.5806 -0.1229
 3140TIP3    H130911   0.728   1.821  16.077  0.0724 -0.2846 -0.0860
 3140TIP3    H230912   0.720   1.740  16.204  0.9128 -1.7568 -0.9482
 3141TIP3   OH230913   5.573   4.645  14.054 -0.0688 -0.2745  0.1874
 3141TIP3    H130914   5.573   4.637  14.150  3.9490 -0.1325  0.3437
 3141TIP3    H230915   5.628   4.721  14.036  0.4522 -1.1457 -2.2668
 3142TIP3   OH230916   4.761   2.116   3.991  0.0121 -0.0073  0.7521
 3142TIP3    H130917   4.701   2.076   4.054  0.3946  0.7938  1.6723
 3142TIP3    H230918   4.817   2.044   3.962 -0.5349 -0.5017  0.9025
 3143TIP3   OH230919   3.924   4.482  10.799  0.0858  0.2139  0.1447
 3143TIP3    H130920   3.893   4.452  10.713  0.6082  0.2790 -0.0701
 3143TIP3    H230921   3.860   4.448  10.861 -0.4825  0.4441 -0.3019
 3144TIP3   OH230922   6.543   1.056  16.579  1.1064  0.1076  0.3126
 3144TIP3    H130923   6.574   0.973  16.542  2.3940 -0.0633  1.6777
 3144TIP3    H230924   6.554   1.119  16.509 -2.2303 -1.2293 -1.6570
 3145TIP3   OH230925   5.571   4.614  16.454 -0.5480 -0.1741 -0.0919
 3145TIP3    H130926   5.647   4.558  16.468 -0.4741  0.0421  0.4162
 3145TIP3    H230927   5.533   4.584  16.372  0.1189 -0.2463 -0.3749
 3146TIP3   OH230928   3.853   0.983  11.510  0.3871 -0.0813 -0.2153
 3146TIP3    H130929   3.779   0.923  11.527  1.3934 -1.3414 -0.1197
 3146TIP3    H230930   3.811   1.065  11.483 -1.0590 -0.6526  0.1600
 3147TIP3   OH230931   3.499   5.712   2.400  1.1417  0.1265 -0.2370
 3147TIP3    H130932   3.420   5.740   2.354  0.3043  0.2833  1.2461
 3147TIP3    H230933   3.570   5.729   2.338 -0.0878 -1.4736 -2.2212
 3148TIP3   OH230934   5.338   2.980   6.454 -0.0037 -0.7623 -0.5089
 3148TIP3    H130935   5.371   2.976   6.544 -0.6438 -1.8596 -0.3035
 3148TIP3    H230936   5.410   2.945   6.400  0.7580  0.8196 -0.5528
 3149TIP3   OH230937   3.642   2.072  14.476 -0.5580 -0.0864 -0.2478
 3149TIP3    H130938   3.594   2.098  14.397 -0.2306  2.5913  0.3378
 3149TIP3    H230939   3.614   2.135  14.543  0.4858 -1.2030  1.3167
 3150TIP3   OH230940   2.457   1.714  16.172 -0.1256  0.1564  0.1996
 3150TIP3    H130941   2.485   1.624  16.154 -3.0635 -0.4367 -2.2843
 3150TIP3    H230942   2.478   1.727  16.265  0.5641 -3.0465  0.6185
 3151TIP3   OH230943   1.188   4.608  11.341 -0.3770  0.1311 -0.1218
 3151TIP3    H130944   1.103   4.650  11.354  0.5312  1.8191  0.7305
 3151TIP3    H230945   1.210   4.625  11.249  0.3970  2.4786  0.4299
 3152TIP3   OH230946   0.733   4.795   2.088 -0.0721  0.0144  0.3994
 3152TIP3    H130947   0.727   4.802   1.992  1.1896  0.2997  0.3248
 3152TIP3    H230948   0.672   4.724   2.110 -0.3725 -0.0639 -0.6124
 3153TIP3   OH230949   6.092   5.940   4.551  0.9936 -0.2425 -0.0004
 3153TIP3    H130950   6.159   5.992   4.596  0.8453  0.1345 -0.2038
 3153TIP3    H230951   6.124   5.850   4.554  1.2272 -0.1474  0.4151
 3154TIP3   OH230952   3.835   1.318  14.620  0.3699 -0.1557  0.0724
 3154TIP3    H130953   3.926   1.290  14.613  0.3804 -0.0527 -0.2291
 3154TIP3    H230954   3.819   1.369  14.541 -0.3270 -1.2434 -0.5264
 3155TIP3   OH230955   6.834   2.351  14.236 -0.3491  0.3259 -0.7381
 3155TIP3    H130956   6.752   2.302  14.231  0.6952 -1.4320 -1.4093
 3155TIP3    H230957   6.811   2.431  14.283 -2.5219  0.0706 -1.2704
 3156TIP3   OH230958   3.465   2.128   2.562 -0.1877 -0.5079  0.1649
 3156TIP3    H130959   3.475   2.057   2.625  1.5201 -1.3456 -0.9917
 3156TIP3    H230960   3.481   2.087   2.477  1.7572  1.3938 -0.4768
 3157TIP3   OH230961   0.418   1.746   4.941  0.5117 -0.0543  0.4281
 3157TIP3    H130962   0.451   1.750   4.850 -0.0504 -0.0025  0.2253
 3157TIP3    H230963   0.482   1.796   4.991  0.3390  0.6873 -0.0803
 3158TIP3   OH230964   6.177   4.785   3.836  0.4707 -0.3114 -0.2793
 3158TIP3    H130965   6.112   4.804   3.904 -0.1262  0.2816 -0.9996
 3158TIP3    H230966   6.189   4.691   3.840  0.5950 -0.2687  0.7836
 3159TIP3   OH230967   3.658   0.473   5.494  0.0911  0.2288 -0.2141
 3159TIP3    H130968   3.574   0.516   5.484  0.0303  0.0641 -0.4177
 3159TIP3    H230969   3.693   0.506   5.577  0.3039  1.1008 -0.6403
 3160TIP3   OH230970   2.293   2.455  11.931 -0.2200  0.1360  0.7037
 3160TIP3    H130971   2.320   2.411  11.850  1.6608  0.4737  1.1090
 3160TIP3    H230972   2.239   2.391  11.976 -0.7509 -0.2963 -0.5155
 3161TIP3   OH230973   1.551   6.769   4.701 -0.2031  0.2001 -0.4680
 3161TIP3    H130974   1.611   6.700   4.728  0.9995  0.5394 -2.1051
 3161TIP3    H230975   1.490   6.726   4.641 -0.8467  0.1204  0.2286
 3162TIP3   OH230976   0.001   0.238  17.150 -0.5422 -0.1850 -0.8720
 3162TIP3    H130977   0.075   0.250  17.090 -0.7985  0.8860 -0.9971
 3162TIP3    H230978  -0.012   0.143  17.154  0.9032 -0.4033 -0.7583
 3163TIP3   OH230979   5.071   0.387  12.464 -0.0091  0.1630  0.3394
 3163TIP3    H130980   5.112   0.474  12.464  1.5551 -0.5080  1.8983
 3163TIP3    H230981   5.097   0.349  12.548 -0.4414 -1.9137 -0.4155
 3164TIP3   OH230982   5.434   3.398   1.481  0.3485  0.5809  0.6950
 3164TIP3    H130983   5.361   3.431   1.429  2.1040 -0.5455 -2.7621
 3164TIP3    H230984   5.435   3.304   1.465  2.1024  0.4596  1.3088
 3165TIP3   OH230985   5.760   5.743   4.749  0.4318 -0.8533 -0.3676
 3165TIP3    H130986   5.833   5.804   4.754  0.5093 -0.8244 -1.6278
 3165TIP3    H230987   5.730   5.734   4.840  1.0681  0.2518 -0.0335
 3166TIP3   OH230988   6.753   0.281   1.305 -0.8236  0.0268 -0.4405
 3166TIP3    H130989   6.776   0.236   1.223 -1.7672  1.5140 -1.5874
 3166TIP3    H230990   6.817   0.250   1.369  2.2203  1.3836 -2.5920
 3167TIP3   OH230991   2.834   4.940  11.620 -0.2456 -0.0213 -0.1092
 3167TIP3    H130992   2.884   4.901  11.691 -2.1962 -1.3384  0.6391
 3167TIP3    H230993   2.860   4.891  11.542  0.9397  0.5481 -0.0866
 3168TIP3   OH230994   0.700   0.940  13.685  0.1232  0.5790  0.5228
 3168TIP3    H130995   0.653   1.005  13.633 -2.6804 -1.9470 -0.3594
 3168TIP3    H230996   0.788   0.938  13.648  0.7040  4.4670  1.2759
 3169TIP3   OH230997   1.654   3.907   4.398  0.4000  0.4997 -0.0681
 3169TIP3    H130998   1.589   3.919   4.330  1.4204 -2.2086 -1.6955
 3169TIP3    H230999   1.670   3.812   4.400  0.5161  0.4075  3.9045
 3170TIP3   OH231000   3.462   5.933   5.477  0.0526  0.1985  0.5490
 3170TIP3    H131001   3.542   5.895   5.512  0.2582  1.2674  1.3076
 3170TIP3    H231002   3.421   5.976   5.553  0.0853  1.8799 -0.3288
 3171TIP3   OH231003   6.300   2.435  11.154  0.4736 -0.6852  0.1581
 3171TIP3    H131004   6.281   2.466  11.242 -2.3549 -1.4929 -0.0607
 3171TIP3    H231005   6.255   2.351  11.148  2.5751 -1.7917 -1.3226
 3172TIP3   OH231006   0.917   5.666  14.576  0.4906 -0.0152  0.2933
 3172TIP3    H131007   0.968   5.610  14.635  0.6492 -1.4766 -1.1706
 3172TIP3    H231008   0.875   5.729  14.634  0.5436 -1.4588  2.0072
 3173TIP3   OH231009   4.712   5.712  12.738 -0.2298  0.2348  0.1484
 3173TIP3    H131010   4.735   5.621  12.755  1.5670  0.4239 -0.9844
 3173TIP3    H231011   4.709   5.752  12.825  2.0381 -0.2764  0.5354
 3174TIP3   OH231012   4.276   0.729  14.967  0.4630  0.1608  0.3595
 3174TIP3    H131013   4.220   0.806  14.966 -0.2535 -0.3172  1.5115
 3174TIP3    H231014   4.341   0.746  14.899 -0.4893  1.1639 -0.3433
 3175TIP3   OH231015   2.745   5.313   4.827  0.1492 -0.3763 -0.6085
 3175TIP3    H131016   2.798   5.386   4.794  0.6099 -0.3557  0.1487
 3175TIP3    H231017   2.682   5.296   4.757  0.7780 -0.0103 -1.2836
 3176TIP3   OH231018   6.357   3.040  14.383  0.4832 -0.1216 -0.2096
 3176TIP3    H131019   6.399   2.958  14.410  0.1025  0.0073  0.8013
 3176TIP3    H231020   6.429   3.093  14.347  0.9832 -0.3654  0.4041
 3177TIP3   OH231021   2.269   3.620   2.150 -0.7137  0.1427  0.1331
 3177TIP3    H131022   2.315   3.595   2.069 -0.2848 -0.6160  0.6025
 3177TIP3    H231023   2.326   3.590   2.220 -1.6717 -0.3331  0.7259
 3178TIP3   OH231024   2.031   2.886  11.020 -0.2533  0.2876 -0.6320
 3178TIP3    H131025   1.940   2.865  10.997 -0.3909  1.3942 -1.2090
 3178TIP3    H231026   2.083   2.849  10.949 -0.3074  0.1811 -0.6159
 3179TIP3   OH231027   4.178   0.359  14.454 -0.9146  0.0825 -0.4571
 3179TIP3    H131028   4.195   0.381  14.545  0.3258  0.8143 -0.8315
 3179TIP3    H231029   4.096   0.403  14.433 -0.5434  1.0024 -0.0404
 3180TIP3   OH231030   3.320   3.445  15.321  0.3364  0.5761  0.2067
 3180TIP3    H131031   3.406   3.448  15.279 -0.4645  0.5835 -1.5070
 3180TIP3    H231032   3.258   3.461  15.250 -1.1128  0.1957  1.3404
 3181TIP3   OH231033   2.196   2.779  12.027  0.3134 -0.2871 -0.3544
 3181TIP3    H131034   2.235   2.764  11.941 -0.2571 -0.0965 -0.6458
 3181TIP3    H231035   2.254   2.732  12.088  1.7704  1.1151 -0.6175
 3182TIP3   OH231036   6.817   1.525   2.461 -0.2310 -0.4206  0.5899
 3182TIP3    H131037   6.781   1.479   2.537 -1.6560  0.6212  0.5878
 3182TIP3    H231038   6.833   1.614   2.493  0.8236 -0.4345  0.1260
 3183TIP3   OH231039   6.248   0.774   5.604  0.1540 -0.1600  0.2273
 3183TIP3    H131040   6.266   0.854   5.654 -1.2848  0.9790 -0.9919
 3183TIP3    H231041   6.182   0.728   5.656 -2.1483  1.5454 -1.0001
 3184TIP3   OH231042   0.468   1.743   0.579 -0.2246  0.1755 -0.4974
 3184TIP3    H131043   0.377   1.756   0.551 -0.0595  2.2892 -0.2031
 3184TIP3    H231044   0.485   1.814   0.641  1.4838 -0.4725 -0.1619
 3185TIP3   OH231045   5.418   0.526  11.774 -0.2175 -0.2157 -0.0888
 3185TIP3    H131046   5.346   0.472  11.743  0.7003 -1.1418 -0.6771
 3185TIP3    H231047   5.379   0.582  11.841 -1.5171 -0.5417 -0.5437
 3186TIP3   OH231048   6.729   0.421  14.778 -0.2328 -0.4165 -0.0097
 3186TIP3    H131049   6.771   0.376  14.850  1.5510  2.6004  1.0127
 3186TIP3    H231050   6.678   0.491  14.820 -1.6747 -0.4760 -1.5539
 3187TIP3   OH231051   0.113   3.140   1.471  0.1096  0.1143  0.5151
 3187TIP3    H131052   0.207   3.135   1.452  0.2177 -0.5711  1.1592
 3187TIP3    H231053   0.074   3.073   1.415  0.0546  0.1625  0.4970
 3188TIP3   OH231054   3.632   4.168   1.128 -0.4397 -0.7539  0.3934
 3188TIP3    H131055   3.611   4.219   1.206 -0.5477  0.0934 -0.1751
 3188TIP3    H231056   3.554   4.115   1.112 -1.4308  0.9148 -0.5582
 3189TIP3   OH231057   4.924   5.677   0.238  0.6368  0.8074 -1.0409
 3189TIP3    H131058   4.915   5.743   0.306  0.4486  0.4792 -0.7441
 3189TIP3    H231059   5.018   5.676   0.218  0.8658  0.1513 -0.0184
 3190TIP3   OH231060   6.632   5.461   1.226 -0.3345 -0.3349 -0.3557
 3190TIP3    H131061   6.673   5.490   1.145  0.8595 -0.8144  0.0468
 3190TIP3    H231062   6.704   5.423   1.277 -1.5433 -2.7556 -0.2899
 3191TIP3   OH231063   4.026   2.044   4.234 -0.1686  0.1009  0.0584
 3191TIP3    H131064   4.012   1.979   4.303  1.1940 -0.6051 -0.2880
 3191TIP3    H231065   4.062   1.993   4.161  0.8041  1.2174 -0.2754
 3192TIP3   OH231066   5.492   3.150   3.656  0.2024 -0.3576 -0.9143
 3192TIP3    H131067   5.449   3.222   3.701  1.2322 -0.2014 -0.1371
 3192TIP3    H231068   5.448   3.144   3.571 -0.6552  0.4318 -0.5317
 3193TIP3   OH231069   5.051   2.231   1.188 -0.2229  0.1697  0.1868
 3193TIP3    H131070   5.132   2.196   1.225  0.8078  2.1479 -0.0726
 3193TIP3    H231071   4.983   2.203   1.249  0.4072 -2.6516 -0.2816
 3194TIP3   OH231072   6.791   2.814   3.946 -0.0001 -0.1065  0.2436
 3194TIP3    H131073   6.723   2.882   3.944 -1.5351 -1.5895 -0.9053
 3194TIP3    H231074   6.872   2.861   3.927 -0.6769  1.7092  1.5695
 3195TIP3   OH231075   2.297   6.309  10.780  0.8242  0.0922 -0.6713
 3195TIP3    H131076   2.373   6.346  10.826  0.2654 -0.8239  1.1152
 3195TIP3    H231077   2.278   6.371  10.710  2.2718  1.1365 -0.1908
 3196TIP3   OH231078   0.870   2.082  12.022  0.4635 -0.3756  0.4726
 3196TIP3    H131079   0.953   2.057  11.981  0.0139 -0.0510 -0.6452
 3196TIP3    H231080   0.808   2.014  11.996  0.0199  0.1769  0.0672
 3197TIP3   OH231081   4.486   1.960   3.496  0.4674  0.3072 -0.1118
 3197TIP3    H131082   4.503   1.866   3.494 -1.3479 -0.1062  1.2100
 3197TIP3    H231083   4.529   1.990   3.576  0.9957  0.5982 -0.5017
 3198TIP3   OH231084   0.675   4.366   2.630  0.3480  0.8413  0.0036
 3198TIP3    H131085   0.674   4.440   2.569 -1.5213  0.0879 -0.9769
 3198TIP3    H231086   0.737   4.305   2.592 -0.3642  0.6351 -0.8825
 3199TIP3   OH231087   4.249   0.899   1.690 -0.3934  0.2873 -0.2572
 3199TIP3    H131088   4.327   0.870   1.643 -1.6688  1.0109 -2.9903
 3199TIP3    H231089   4.284   0.955   1.760  1.6923 -2.5007  1.1505
 3200TIP3   OH231090   4.183   0.946  15.823 -0.1918 -0.8465  0.1155
 3200TIP3    H131091   4.266   0.992  15.814 -0.8336  0.2532 -0.4698
 3200TIP3    H231092   4.164   0.949  15.917 -1.0633  1.7336 -0.0504
 3201TIP3   OH231093   4.674   2.528   1.706  0.1206  0.9824 -0.2015
 3201TIP3    H131094   4.644   2.508   1.795  1.2003  0.9655  0.1792
 3201TIP3    H231095   4.601   2.573   1.665 -0.9740 -0.3845  0.1869
 3202TIP3   OH231096   4.164   2.336  16.183  0.3555  0.1864 -0.0142
 3202TIP3    H131097   4.163   2.427  16.154 -0.1033 -0.1009 -0.9350
 3202TIP3    H231098   4.092   2.294  16.135  0.5458 -0.6563  0.4106
 3203TIP3   OH231099   0.773   5.652  11.235 -0.6110  0.6626  0.1079
 3203TIP3    H131100   0.689   5.680  11.198 -0.0119  0.9191 -1.0917
 3203TIP3    H231101   0.817   5.607  11.163 -0.9535 -2.2447  1.5405
 3204TIP3   OH231102   4.044   5.195   4.169 -0.1231  0.1191 -0.5397
 3204TIP3    H131103   3.981   5.261   4.142 -0.0139  0.5773  0.2887
 3204TIP3    H231104   4.019   5.116   4.120 -3.0313 -0.5033  1.6603
 3205TIP3   OH231105   0.405   0.674   1.317  0.2858  0.6848  0.3661
 3205TIP3    H131106   0.339   0.739   1.293  0.0021 -0.5720 -2.6045
 3205TIP3    H231107   0.359   0.590   1.313  0.8514  0.1157  3.3319
 3206TIP3   OH231108   4.932   2.259   4.116 -0.7191  0.1946  0.3382
 3206TIP3    H131109   5.004   2.206   4.152 -0.7749  0.6619  1.1757
 3206TIP3    H231110   4.894   2.205   4.048  1.2802  0.4602 -1.0909
 3207TIP3   OH231111   1.336   1.497   2.249  0.5014  0.0309  0.4286
 3207TIP3    H131112   1.292   1.564   2.196 -1.2159 -1.2839  0.1368
 3207TIP3    H231113   1.417   1.540   2.278 -0.2285  2.0043 -0.2758
 3208TIP3   OH231114   5.859   0.767   3.045  0.0057 -0.1626  0.1801
 3208TIP3    H131115   5.816   0.801   3.123  0.8273  0.9237  0.1859
 3208TIP3    H231116   5.790   0.720   2.997 -0.5317 -0.7187  1.4664
 3209TIP3   OH231117   3.693   3.793  15.235  0.5252  0.1716  0.3682
 3209TIP3    H131118   3.656   3.853  15.300 -0.3620 -0.5100  0.5139
 3209TIP3    H231119   3.726   3.719  15.286 -1.3542 -0.9846  0.0144
 3210TIP3   OH231120   2.361   4.554   5.681 -0.4261  0.0504  0.0621
 3210TIP3    H131121   2.372   4.504   5.601 -2.0885 -3.9346  2.0672
 3210TIP3    H231122   2.332   4.641   5.650  0.0588 -0.9093 -3.6001
 3211TIP3   OH231123   4.643   0.512   2.449  0.2606 -0.1516 -0.1133
 3211TIP3    H131124   4.649   0.418   2.467 -2.5851 -0.2913  0.4973
 3211TIP3    H231125   4.571   0.542   2.503 -0.1361  2.0257 -1.7288
 3212TIP3   OH231126   6.109   6.057   4.287 -0.3419 -0.0400 -0.0601
 3212TIP3    H131127   6.142   6.145   4.303 -0.7230  0.6057 -2.4758
 3212TIP3    H231128   6.086   6.024   4.374  2.0008  1.3168  1.1593
 3213TIP3   OH231129   4.212   3.268   4.038  0.2323 -0.3267 -0.1445
 3213TIP3    H131130   4.221   3.178   4.006 -1.6529 -1.2018  1.5525
 3213TIP3    H231131   4.208   3.259   4.134  0.9594  1.6845  0.1368
 3214TIP3   OH231132   3.948   5.967  13.684  0.3076  0.2273 -0.3677
 3214TIP3    H131133   4.031   5.958  13.730  0.7464 -0.0862 -1.2235
 3214TIP3    H231134   3.935   6.062  13.676 -0.5663  0.3755  1.7870
 3215TIP3   OH231135   4.585   3.311  15.279 -0.0690 -0.3566  0.1515
 3215TIP3    H131136   4.604   3.352  15.364 -0.5009 -0.4147  0.2796
 3215TIP3    H231137   4.619   3.222  15.286  0.8692 -0.0332 -0.1251
 3216TIP3   OH231138   2.718   0.198  17.083 -0.2566 -0.2285 -0.3542
 3216TIP3    H131139   2.638   0.171  17.037  0.7998 -0.3532 -2.2025
 3216TIP3    H231140   2.745   0.279  17.039  0.6979 -0.2407  0.1744
 3217TIP3   OH231141   1.780   3.543   0.331 -0.5785  0.2207  0.3510
 3217TIP3    H131142   1.840   3.475   0.362  0.5223  1.2570  0.5245
 3217TIP3    H231143   1.789   3.540   0.236  0.4372  0.9651  0.4095
 3218TIP3   OH231144   5.173   0.841   1.324  0.3004 -0.2837  0.2560
 3218TIP3    H131145   5.226   0.916   1.299 -0.3418  0.2686  0.5115
 3218TIP3    H231146   5.222   0.798   1.394  1.3290 -0.9085 -0.8027
 3219TIP3   OH231147   6.104   3.825   3.494  0.4110 -0.0962  0.4508
 3219TIP3    H131148   6.044   3.770   3.443 -0.0483  0.9512 -0.1726
 3219TIP3    H231149   6.167   3.763   3.532 -0.8121 -1.1788  0.7903
 3220TIP3   OH231150   0.796   5.871  14.984 -0.2324 -0.2375  0.1852
 3220TIP3    H131151   0.770   5.797  15.039  2.2937 -0.6869  0.9147
 3220TIP3    H231152   0.890   5.857  14.967 -0.4244  1.0388 -2.4877
 3221TIP3   OH231153   1.400   0.800  10.296  0.4080  0.5575  0.8045
 3221TIP3    H131154   1.345   0.741  10.348 -0.9336 -0.8009 -1.9530
 3221TIP3    H231155   1.486   0.796  10.338 -0.3692 -1.1171  2.3925
 3222TIP3   OH231156   6.570   5.635  12.196 -0.5603  0.0051  0.1980
 3222TIP3    H131157   6.542   5.643  12.104  0.6185  0.8698 -0.1095
 3222TIP3    H231158   6.574   5.725  12.227 -0.4243 -0.2566  0.9499
 3223TIP3   OH231159   5.963   3.013  11.405 -0.0216  0.2845 -0.1333
 3223TIP3    H131160   5.968   3.073  11.330  2.5078 -1.1818 -1.2649
 3223TIP3    H231161   6.016   2.938  11.379 -1.8521 -1.8174  1.8320
 3224TIP3   OH231162   4.965   3.786  14.092 -0.0433 -0.5209 -0.1882
 3224TIP3    H131163   4.895   3.781  14.157 -1.5305  0.3587 -1.6504
 3224TIP3    H231164   4.980   3.880  14.080  1.1373 -0.6954 -0.1774
 3225TIP3   OH231165   6.149   2.497  16.281 -0.1092  0.0244  0.5590
 3225TIP3    H131166   6.099   2.440  16.339 -2.1888  1.7564  0.6027
 3225TIP3    H231167   6.151   2.451  16.197  0.6016 -1.2736  1.2509
 3226TIP3   OH231168   3.008   5.933  15.378  0.8069 -0.3188  0.3226
 3226TIP3    H131169   2.956   5.987  15.437  0.7333 -1.4843  1.3580
 3226TIP3    H231170   3.053   5.996  15.321 -0.7880  0.7497  0.1913
 3227TIP3   OH231171   4.790   3.831   2.030  0.4867 -0.4821  0.0215
 3227TIP3    H131172   4.876   3.790   2.032  0.3870 -0.7005  1.9967
 3227TIP3    H231173   4.733   3.764   1.991  0.7696 -1.3817  1.0748
 3228TIP3   OH231174   0.092   4.803   1.333  0.2526  0.0521 -0.0951
 3228TIP3    H131175   0.085   4.835   1.423  1.3155  0.1376 -0.0340
 3228TIP3    H231176   0.185   4.788   1.320  0.2011  0.7600 -1.4388
 3229TIP3   OH231177   2.010   4.391  15.248  0.6625 -0.0026  0.2342
 3229TIP3    H131178   1.972   4.306  15.225  2.5213 -0.9714  0.5460
 3229TIP3    H231179   2.098   4.370  15.279  0.9010  1.9854  1.0323
 3230TIP3   OH231180   1.981   5.789   0.495  0.0496  0.2597  0.2433
 3230TIP3    H131181   1.965   5.695   0.504  1.5191  0.1068  2.1472
 3230TIP3    H231182   1.895   5.830   0.501 -0.3961 -0.8522  2.3457
 3231TIP3   OH231183   6.497   5.366  14.545  0.2251  0.1109  0.7030
 3231TIP3    H131184   6.502   5.274  14.569  1.4861 -0.2262 -0.7080
 3231TIP3    H231185   6.432   5.369  14.474  1.1073  0.0822 -0.1257
 3232TIP3   OH231186   6.587   5.655  14.092 -0.4346  0.4221 -0.0292
 3232TIP3    H131187   6.534   5.711  14.149  0.4290  1.0029  0.2271
 3232TIP3    H231188   6.677   5.683  14.108 -0.2017  1.1877 -2.3132
 3233TIP3   OH231189   3.366   1.542   4.174  0.1845 -0.1316 -0.0326
 3233TIP3    H131190   3.280   1.584   4.161  0.2349 -0.3247 -1.1012
 3233TIP3    H231191   3.349   1.471   4.235  0.0529  1.2865  1.6795
 3234TIP3   OH231192   1.027   5.084  14.271  0.3320 -0.0416 -0.2110
 3234TIP3    H131193   1.011   5.079  14.365  0.1230  0.8750 -0.1856
 3234TIP3    H231194   1.088   5.012  14.253  3.1652  1.7962  1.2464
 3235TIP3   OH231195   0.731   2.481  12.303  0.3110 -0.4269 -0.1440
 3235TIP3    H131196   0.749   2.416  12.235 -0.1860 -0.1780 -0.5184
 3235TIP3    H231197   0.697   2.429  12.376  1.4736 -0.7780  0.1840
 3236TIP3   OH231198   5.419   3.979  10.615  0.4173 -0.3622 -0.7565
 3236TIP3    H131199   5.332   3.976  10.655  0.5970  2.0144  0.0166
 3236TIP3    H231200   5.473   3.926  10.673 -0.4845 -1.9331 -1.2868
 3237TIP3   OH231201   2.288   6.745   3.654  0.3953 -0.2029  0.1270
 3237TIP3    H131202   2.274   6.721   3.562 -0.8309 -0.5731  0.4040
 3237TIP3    H231203   2.366   6.696   3.680  1.4248  0.7469 -1.0092
 3238TIP3   OH231204   6.658   6.580   5.929  0.0916 -0.5778  0.3152
 3238TIP3    H131205   6.673   6.488   5.908 -1.1518 -1.0423  1.3224
 3238TIP3    H231206   6.567   6.596   5.903  0.8679  0.9772 -1.7899
 3239TIP3   OH231207   3.592   1.135   1.269 -0.1336 -0.7093 -0.1694
 3239TIP3    H131208   3.585   1.226   1.240 -1.1997 -1.0589 -1.0641
 3239TIP3    H231209   3.531   1.128   1.342  0.1171 -0.6457  0.0453
 3240TIP3   OH231210   1.319   4.683  16.794 -0.4455  0.2962  0.0888
 3240TIP3    H131211   1.241   4.629  16.783 -0.1884  0.1719 -1.2822
 3240TIP3    H231212   1.285   4.771  16.812 -0.9310  0.3201 -0.8587
 3241TIP3   OH231213   3.674   0.851   5.281 -0.0224 -0.0165 -0.1573
 3241TIP3    H131214   3.763   0.845   5.315 -0.4640 -0.5354  0.9893
 3241TIP3    H231215   3.620   0.813   5.351 -1.1549  0.4632 -0.7506
 3242TIP3   OH231216   1.165   4.375   1.636  0.0113  0.2393  0.2536
 3242TIP3    H131217   1.261   4.371   1.635  0.0271 -1.9000  2.0821
 3242TIP3    H231218   1.145   4.464   1.608  2.5546  0.9669  0.4204
 3243TIP3   OH231219   4.279   2.934   1.794 -0.5168 -0.3947  0.0196
 3243TIP3    H131220   4.320   2.960   1.877 -0.2757 -0.2669 -0.1396
 3243TIP3    H231221   4.335   2.972   1.726 -1.1990  0.2626 -0.1969
 3244TIP3   OH231222   6.139   5.861   2.910 -0.0290 -0.0195 -0.2371
 3244TIP3    H131223   6.046   5.855   2.888 -0.7000  2.9956  1.3299
 3244TIP3    H231224   6.180   5.894   2.830 -0.3740 -0.7124 -0.7184
 3245TIP3   OH231225   0.172   0.778  13.720  0.3685  0.3515  0.2125
 3245TIP3    H131226   0.138   0.691  13.697  0.3530  0.5677 -0.6135
 3245TIP3    H231227   0.267   0.767  13.721  0.3406  0.0822  1.1513
 3246TIP3   OH231228   0.683   4.013  14.404 -0.1136 -0.2149 -0.7817
 3246TIP3    H131229   0.596   4.040  14.434 -0.2455  0.9721 -2.0913
 3246TIP3    H231230   0.741   4.031  14.478 -0.9619 -0.9702  0.0842
 3247TIP3   OH231231   5.499   2.933   2.288 -0.4708  0.2318 -0.2997
 3247TIP3    H131232   5.529   2.842   2.289  1.1049  0.6899 -1.5175
 3247TIP3    H231233   5.580   2.984   2.289 -1.3086  1.6069 -0.6450
 3248TIP3   OH231234   5.794   2.521   6.309 -0.6275 -0.8030 -0.6862
 3248TIP3    H131235   5.716   2.571   6.330  0.3426  0.3477  0.3247
 3248TIP3    H231236   5.853   2.537   6.382  0.9830 -0.7330 -1.9354
 3249TIP3   OH231237   6.551   2.230   4.867 -0.1083 -0.1222 -1.0187
 3249TIP3    H131238   6.593   2.316   4.870  0.6527 -0.5101  0.0998
 3249TIP3    H231239   6.532   2.208   4.958  0.7315 -1.6155 -1.1575
 3250TIP3   OH231240   2.803   4.432  11.309  0.2801  0.6108 -0.2361
 3250TIP3    H131241   2.813   4.337  11.306 -0.1069  0.5798 -0.6835
 3250TIP3    H231242   2.782   4.451  11.400  1.6864  0.4099  0.1395
 3251TIP3   OH231243   2.966   2.382   2.609 -0.1446 -0.7057 -0.6894
 3251TIP3    H131244   3.058   2.357   2.619  0.2762  0.5419 -1.2541
 3251TIP3    H231245   2.925   2.309   2.563  0.0952 -2.1707  1.3058
 3252TIP3   OH231246   2.867   3.325   0.627  0.1230  0.1982  0.0365
 3252TIP3    H131247   2.931   3.292   0.689 -0.8755 -0.3298  0.8065
 3252TIP3    H231248   2.822   3.396   0.674 -1.9237 -1.4279  0.6627
 3253TIP3   OH231249   4.506   0.409   1.007  0.0040 -0.0887 -0.1202
 3253TIP3    H131250   4.429   0.430   0.955 -0.3045  0.1043  0.4160
 3253TIP3    H231251   4.477   0.339   1.065 -0.0099  0.5664  0.6724
 3254TIP3   OH231252   2.654   5.712   0.553  0.1788  0.2446 -0.1333
 3254TIP3    H131253   2.572   5.680   0.591  1.1826 -0.7682  1.3192
 3254TIP3    H231254   2.655   5.805   0.575 -0.2908  0.1360  0.3819
 3255TIP3   OH231255   1.033   2.254   0.210 -1.2520 -0.2079  0.4375
 3255TIP3    H131256   1.121   2.239   0.175 -1.8189 -1.8035 -0.4200
 3255TIP3    H231257   0.996   2.320   0.153 -0.6926  0.3426  0.6925
 3256TIP3   OH231258   6.537   3.031   2.950  0.3232  0.1413 -0.1207
 3256TIP3    H131259   6.620   3.065   2.984 -0.3542 -0.3993  2.2754
 3256TIP3    H231260   6.484   3.110   2.936  1.0378  0.4547 -1.1866
 3257TIP3   OH231261   5.438   1.551  13.986 -0.6795  0.2626  0.0040
 3257TIP3    H131262   5.405   1.564  13.897 -1.3558 -1.0001  0.0529
 3257TIP3    H231263   5.529   1.580  13.982 -0.8256  0.6308 -0.9883
 3258TIP3   OH231264   1.441   3.563  12.943 -1.0094  0.2091 -0.1803
 3258TIP3    H131265   1.439   3.614  13.024 -3.1701  0.5021 -0.3535
 3258TIP3    H231266   1.408   3.477  12.968 -0.2904 -0.1628 -0.4883
 3259TIP3   OH231267   1.908   0.744   1.700 -0.0146  0.4896 -0.3424
 3259TIP3    H131268   1.855   0.665   1.688  0.8909 -0.0310 -0.9718
 3259TIP3    H231269   1.848   0.816   1.682 -0.4636 -0.0983 -1.2637
 3260TIP3   OH231270   0.705   6.707   1.656 -0.1053 -0.1368  0.3958
 3260TIP3    H131271   0.651   6.681   1.581 -0.8728  0.3976  0.7550
 3260TIP3    H231272   0.653   6.774   1.701  1.8847  2.2466 -0.6279
 3261TIP3   OH231273   1.013   6.244   2.251 -0.0072 -0.2266 -0.0036
 3261TIP3    H131274   0.944   6.299   2.287 -1.8128 -0.9037 -2.1717
 3261TIP3    H231275   1.081   6.306   2.224 -0.7695  0.7016  0.1300
 3262TIP3   OH231276   2.263   6.796   4.218 -0.3061  0.9861  0.1835
 3262TIP3    H131277   2.296   6.852   4.288  1.8254  0.3720 -0.2843
 3262TIP3    H231278   2.267   6.851   4.140  1.1307  0.4466 -0.1493
 3263TIP3   OH231279   3.373   1.542  16.848 -0.0347 -0.6085  0.3369
 3263TIP3    H131280   3.464   1.553  16.821  0.0137 -0.1354  0.6949
 3263TIP3    H231281   3.377   1.522  16.941 -0.2525 -1.5034  0.1724
 3264TIP3   OH231282   4.947   4.049   5.458  0.2422 -0.7914 -0.7091
 3264TIP3    H131283   4.855   4.074   5.453  0.0689 -1.5994 -2.5377
 3264TIP3    H231284   4.948   3.957   5.431  1.7505 -0.2623 -2.7378
 3265TIP3   OH231285   6.683   1.488  16.179  0.3128  0.2859  0.3056
 3265TIP3    H131286   6.668   1.582  16.174  1.9179  0.5885  0.7043
 3265TIP3    H231287   6.773   1.479  16.210  0.5317 -1.3822 -0.6659
 3266TIP3   OH231288   2.818   4.605  15.842 -0.5030 -0.1365  0.1340
 3266TIP3    H131289   2.889   4.544  15.864  0.7972  0.3182 -2.3630
 3266TIP3    H231290   2.839   4.685  15.891  1.5492  0.4379 -1.5203
 3267TIP3   OH231291   5.507   0.084   2.509 -0.1081  0.0452 -1.0381
 3267TIP3    H131292   5.587   0.049   2.548 -0.1109  0.2809 -0.8219
 3267TIP3    H231293   5.446   0.010   2.509 -1.9270  1.0821  4.0866
 3268TIP3   OH231294   6.070   2.755   4.833 -0.2553  0.5576 -0.0989
 3268TIP3    H131295   6.156   2.789   4.808  0.1878 -1.2317 -1.1971
 3268TIP3    H231296   6.085   2.661   4.848 -1.4584  0.6640  2.4679
 3269TIP3   OH231297   6.641   6.205  13.031 -0.1126  0.2298 -0.4483
 3269TIP3    H131298   6.642   6.136  13.098 -1.6405 -1.0268 -1.6681
 3269TIP3    H231299   6.715   6.261  13.055 -0.7330 -0.0079  2.4504
 3270TIP3   OH231300   5.877   2.159   3.156  0.1274  0.3918 -0.1646
 3270TIP3    H131301   5.815   2.086   3.155 -0.6606  0.8707  3.1269
 3270TIP3    H231302   5.963   2.117   3.153 -0.3147 -0.5277 -0.4085
 3271TIP3   OH231303   5.392   2.698  12.095  0.1861  0.4378  0.6707
 3271TIP3    H131304   5.421   2.618  12.138 -0.1228 -0.5333 -0.8388
 3271TIP3    H231305   5.469   2.755  12.094  0.6619 -0.1999  0.9582
 3272TIP3   OH231306   4.795   3.302  15.485 -0.0423  0.1550  0.5507
 3272TIP3    H131307   4.766   3.391  15.507 -1.1782  0.1099 -0.6463
 3272TIP3    H231308   4.792   3.255  15.568  0.3507  1.1657  1.1621
 3273TIP3   OH231309   6.617   1.953   2.960 -0.2172 -0.2526  0.1095
 3273TIP3    H131310   6.647   1.869   2.996 -1.0396  0.4867  2.8257
 3273TIP3    H231311   6.548   1.929   2.897  2.0710 -1.6868 -2.0147
 3274TIP3   OH231312   2.175   6.330   5.125 -0.5181  0.5382  0.3995
 3274TIP3    H131313   2.174   6.267   5.053  2.7262 -0.3841  0.9737
 3274TIP3    H231314   2.162   6.415   5.083 -1.7311 -0.2193 -0.8347
 3275TIP3   OH231315   3.500   1.828   0.021 -0.0247  0.0681  0.2662
 3275TIP3    H131316   3.531   1.859  -0.064  0.3907  0.1613  0.4517
 3275TIP3    H231317   3.489   1.734   0.010 -0.4820  0.1514 -0.0466
 3276TIP3   OH231318   2.610   1.975   3.311  0.9365 -0.4837 -0.4346
 3276TIP3    H131319   2.526   2.002   3.273  0.7731 -0.7508 -0.2704
 3276TIP3    H231320   2.607   2.009   3.401  0.3344 -1.8130  0.0733
 3277TIP3   OH231321   3.648   2.234  12.995 -0.5310  0.2123 -0.4947
 3277TIP3    H131322   3.583   2.164  12.997  0.0588 -0.3375  0.6577
 3277TIP3    H231323   3.622   2.292  13.067  0.6397 -0.4067  0.4629
 3278TIP3   OH231324   1.394   3.359   5.834  0.1200  0.1611  0.6577
 3278TIP3    H131325   1.488   3.377   5.831  0.0130  0.6288 -0.8730
 3278TIP3    H231326   1.384   3.274   5.792 -0.2332  0.6211 -0.2149
 3279TIP3   OH231327   0.320   0.274   5.108 -0.8614  0.1456  0.2203
 3279TIP3    H131328   0.242   0.220   5.092  0.1120 -1.0190 -0.7008
 3279TIP3    H231329   0.304   0.311   5.195 -2.2039 -0.4990  0.2871
 3280TIP3   OH231330   4.094   2.672   4.236  0.5058 -0.0076 -0.0392
 3280TIP3    H131331   4.140   2.738   4.185  1.2147  0.9968  1.8018
 3280TIP3    H231332   4.159   2.605   4.254  0.0969 -0.6601 -0.9214
 3281TIP3   OH231333   4.931   3.926  11.224  0.1046 -0.2090  0.2971
 3281TIP3    H131334   4.952   3.923  11.131 -2.3934  1.8016 -0.4399
 3281TIP3    H231335   5.002   3.975  11.264 -0.0200  1.0817 -1.0060
 3282TIP3   OH231336   1.653   3.646  11.394 -0.2553  0.4187 -0.1560
 3282TIP3    H131337   1.657   3.564  11.442  1.1083 -0.3170 -1.4377
 3282TIP3    H231338   1.638   3.621  11.303  2.7879  1.3298 -1.0233
 3283TIP3   OH231339   2.668   3.235  14.563 -0.4605 -0.1093  0.0286
 3283TIP3    H131340   2.596   3.293  14.537  1.0332  1.1532 -1.4282
 3283TIP3    H231341   2.627   3.149  14.570 -2.2736  0.6992  0.0101
 3284TIP3   OH231342   2.461   3.617   5.389 -0.0703 -0.7925  0.3422
 3284TIP3    H131343   2.425   3.666   5.464 -0.3761 -2.6564  1.4653
 3284TIP3    H231344   2.528   3.561   5.427  0.3095 -1.2235 -0.9261
 3285TIP3   OH231345   6.377   1.661  16.313 -0.1435  0.5864 -0.3234
 3285TIP3    H131346   6.396   1.570  16.335 -1.0141  0.4870  0.0642
 3285TIP3    H231347   6.355   1.659  16.220  2.1666  0.7929 -0.9430
 3286TIP3   OH231348   6.351   2.686  17.179 -0.3389 -0.0312  0.0532
 3286TIP3    H131349   6.413   2.702  17.249  0.5919  0.5846 -0.8833
 3286TIP3    H231350   6.269   2.725  17.210 -0.4364 -1.3212  1.5239
 3287TIP3   OH231351   5.472   0.425   4.825  0.1570  0.2787  0.4685
 3287TIP3    H131352   5.521   0.363   4.878 -1.1353  1.0897  2.7260
 3287TIP3    H231353   5.380   0.408   4.846 -0.3273  1.4919 -0.5487
 3288TIP3   OH231354   3.068   5.394   0.131 -0.0230  0.4629  0.0603
 3288TIP3    H131355   3.043   5.481   0.161  1.4418  1.5711 -1.7247
 3288TIP3    H231356   3.145   5.372   0.183  0.0795  0.5986 -0.0318
 3289TIP3   OH231357   5.171   5.727   4.272  0.3356  0.0608 -0.0529
 3289TIP3    H131358   5.103   5.675   4.314 -0.5802  1.7123  0.6311
 3289TIP3    H231359   5.214   5.774   4.344 -1.0702  2.7322 -0.8067
 3290TIP3   OH231360   6.244   5.311   1.882 -0.1219  0.3705 -0.2346
 3290TIP3    H131361   6.255   5.373   1.811  2.5816 -0.5271 -0.7507
 3290TIP3    H231362   6.244   5.225   1.839  1.6282 -0.1878  0.7787
 3291TIP3   OH231363   5.664   6.599   3.500 -0.2729  0.3383 -0.0069
 3291TIP3    H131364   5.630   6.562   3.419  0.4795  1.8651 -1.0547
 3291TIP3    H231365   5.749   6.557   3.513 -1.2675 -1.4694  1.1777
 3292TIP3   OH231366   4.888   1.141   1.337 -0.5078 -0.3580 -0.1356
 3292TIP3    H131367   4.915   1.146   1.429 -2.2670  0.8692  0.3458
 3292TIP3    H231368   4.911   1.226   1.301  1.4883 -1.3051 -1.2828
 3293TIP3   OH231369   5.567   3.099   6.090  0.9380 -0.0024 -0.2031
 3293TIP3    H131370   5.536   3.030   6.148 -1.6976  1.1483 -0.1205
 3293TIP3    H231371   5.610   3.162   6.148  0.8410 -0.2144  0.0974
 3294TIP3   OH231372   1.201   2.297  11.928  0.0702 -0.2729  0.4640
 3294TIP3    H131373   1.121   2.321  11.882 -0.5811 -1.8343  0.7009
 3294TIP3    H231374   1.259   2.265  11.859 -0.1848 -0.8005  0.4880
 3295TIP3   OH231375   5.133   3.341  12.432 -0.6474  0.3332  0.2471
 3295TIP3    H131376   5.127   3.270  12.367 -0.3999  0.5496 -0.0143
 3295TIP3    H231377   5.047   3.343  12.473 -0.3820 -0.7465  0.9158
 3296TIP3   OH231378   2.511   4.643   2.003 -0.5553 -0.2294 -0.5247
 3296TIP3    H131379   2.543   4.555   2.024 -2.2758 -0.5702  0.8568
 3296TIP3    H231380   2.561   4.668   1.925  3.4336 -0.4598  1.6866
 3297TIP3   OH231381   1.579   0.230   2.878  0.3337 -0.1732 -0.3361
 3297TIP3    H131382   1.565   0.216   2.784  0.2472  3.2136 -0.9282
 3297TIP3    H231383   1.641   0.161   2.903  0.2756 -1.2395 -2.8145
 3298TIP3   OH231384   6.048   1.751  16.489 -0.0789 -0.6386  0.7678
 3298TIP3    H131385   6.098   1.825  16.456 -2.7044  0.4423 -1.1869
 3298TIP3    H231386   6.009   1.784  16.571 -3.0772  1.1992 -1.1992
 3299TIP3   OH231387   5.610   1.824   0.732 -0.8532 -0.1552  0.0264
 3299TIP3    H131388   5.602   1.788   0.643 -1.9046 -2.1663  0.8815
 3299TIP3    H231389   5.535   1.882   0.741 -1.8940 -1.4813  0.2370
 3300TIP3   OH231390   3.562   5.895  16.530 -0.5080 -0.3044 -0.4098
 3300TIP3    H131391   3.640   5.893  16.586 -0.7821 -0.0810 -0.0169
 3300TIP3    H231392   3.531   5.804  16.529  0.6313 -0.7273 -1.8227
 3301TIP3   OH231393   4.515   4.693  15.858 -0.6482  0.2331  0.5064
 3301TIP3    H131394   4.447   4.647  15.807  0.8170  2.7521 -4.3576
 3301TIP3    H231395   4.479   4.781  15.871  0.3654  0.5951  0.8910
 3302TIP3   OH231396   6.107   1.543   0.271  0.3039 -0.0685  0.6389
 3302TIP3    H131397   6.027   1.496   0.246 -0.3014  0.7552  0.9549
 3302TIP3    H231398   6.133   1.590   0.192 -0.2552  0.6599  0.8781
 3303TIP3   OH231399   6.689   1.160   1.431 -0.2509  0.0981  0.6296
 3303TIP3    H131400   6.761   1.146   1.492 -0.5622  2.3022  1.6125
 3303TIP3    H231401   6.635   1.081   1.438  1.3474 -1.0055  0.8679
 3304TIP3   OH231402   5.454   1.352  14.599 -0.4730 -0.0414 -0.0382
 3304TIP3    H131403   5.359   1.355  14.610 -0.5386  1.8939 -0.7847
 3304TIP3    H231404   5.478   1.263  14.625 -2.5042 -0.6462 -0.0485
 3305TIP3   OH231405   1.442   6.258   0.682 -0.3321 -0.5340  0.2266
 3305TIP3    H131406   1.413   6.261   0.591 -0.8291  0.4775  0.3979
 3305TIP3    H231407   1.363   6.279   0.733  0.2691  0.4560  0.7966
 3306TIP3   OH231408   1.296   2.143   0.877 -0.3638  0.2089 -0.1307
 3306TIP3    H131409   1.202   2.153   0.889  0.0055  1.1578  2.7156
 3306TIP3    H231410   1.318   2.200   0.804 -1.5865  2.8591  1.4121
 3307TIP3   OH231411   2.749   0.623   3.613 -0.5888 -0.1250 -0.2963
 3307TIP3    H131412   2.818   0.584   3.560 -0.4345  0.3902 -0.4866
 3307TIP3    H231413   2.766   0.592   3.702 -1.5281 -1.9393 -0.6970
 3308TIP3   OH231414   0.961   2.303   3.347 -0.6121 -0.2917  0.2033
 3308TIP3    H131415   0.952   2.273   3.438 -1.8902 -1.2104 -0.1844
 3308TIP3    H231416   0.873   2.292   3.310 -0.4643  1.4300 -0.7586
 3309TIP3   OH231417   4.685   1.965   1.815  0.3642 -0.7169 -0.2249
 3309TIP3    H131418   4.755   2.030   1.809 -0.6394  0.4231  0.1109
 3309TIP3    H231419   4.694   1.913   1.734  0.7728  0.2593 -0.8252
 3310TIP3   OH231420   5.454   6.192   4.665  0.7075 -0.1055 -0.2489
 3310TIP3    H131421   5.404   6.163   4.742  0.0398  0.1928 -0.5618
 3310TIP3    H231422   5.475   6.284   4.684 -0.6833  0.4070 -1.0192
 3311TIP3   OH231423   2.231   2.951   0.881 -0.3918  0.5245 -0.3126
 3311TIP3    H131424   2.310   2.981   0.927  0.3419  1.4602 -2.0952
 3311TIP3    H231425   2.180   2.906   0.948  1.3894  0.3984  1.0244
 3312TIP3   OH231426   5.483   1.768   2.045 -0.6431  0.4627  0.4950
 3312TIP3    H131427   5.493   1.673   2.050 -1.2576  0.4260  1.1819
 3312TIP3    H231428   5.572   1.802   2.041 -0.4249 -0.1744 -0.5923
 3313TIP3   OH231429   5.841   4.827  15.418 -0.0035  0.7362 -0.6785
 3313TIP3    H131430   5.854   4.800  15.327  0.3121 -0.3482 -0.3285
 3313TIP3    H231431   5.906   4.777  15.467  1.7458  3.3182 -0.1413
 3314TIP3   OH231432   5.067   0.657  14.316  0.3433  0.3586  0.2851
 3314TIP3    H131433   5.038   0.661  14.225  0.5250  1.9889  0.2764
 3314TIP3    H231434   5.133   0.588  14.316 -2.9598 -3.1188  0.2018
 3315TIP3   OH231435   4.944   5.812   4.500 -0.1311 -0.4176 -0.1501
 3315TIP3    H131436   4.944   5.798   4.595 -0.6504 -0.3536 -0.1387
 3315TIP3    H231437   4.936   5.906   4.490  1.3315 -0.2875 -0.2504
 3316TIP3   OH231438   5.184   1.119   0.373  0.2921  0.0468  0.0612
 3316TIP3    H131439   5.135   1.085   0.448 -0.3980 -0.1829 -0.4796
 3316TIP3    H231440   5.262   1.159   0.411 -0.1908  0.1879  0.9212
 3317TIP3   OH231441   5.163   3.596   5.770  0.2880  0.6360 -0.0867
 3317TIP3    H131442   5.242   3.575   5.720 -0.1488  0.0413 -0.5366
 3317TIP3    H231443   5.191   3.592   5.861  0.4101 -1.1962 -0.1762
 3318TIP3   OH231444   0.389   3.328  15.946 -0.2651  0.5965  0.3701
 3318TIP3    H131445   0.467   3.359  15.899 -1.6864  0.0991 -2.5619
 3318TIP3    H231446   0.419   3.250  15.993  1.1714  0.8068 -0.1443
 3319TIP3   OH231447   4.314   1.711   3.144 -0.1098  0.5385 -0.6698
 3319TIP3    H131448   4.267   1.711   3.061  0.6288  0.9638 -1.1009
 3319TIP3    H231449   4.405   1.730   3.120  0.8285 -2.6461 -0.1751
 3320TIP3   OH231450   4.815   2.931  16.657  0.2739  0.1302  0.2165
 3320TIP3    H131451   4.856   2.845  16.661 -0.8057 -0.4922 -1.2647
 3320TIP3    H231452   4.722   2.914  16.676 -0.1240  0.7953 -1.0373
 3321TIP3   OH231453   3.999   2.081   4.779 -0.3758 -0.0417 -0.7249
 3321TIP3    H131454   3.934   2.029   4.826 -0.4075  0.5311 -0.1287
 3321TIP3    H231455   3.952   2.159   4.751 -0.0868  0.1095 -0.7889
 3322TIP3   OH231456   4.058   3.235  15.074  0.2468 -0.1080  0.0690
 3322TIP3    H131457   3.998   3.296  15.116  0.2195 -0.5023  0.6209
 3322TIP3    H231458   4.021   3.148  15.093  1.2500 -0.3843  0.8643
 3323TIP3   OH231459   5.390   0.978   0.529 -0.2997 -0.4985 -0.6547
 3323TIP3    H131460   5.380   1.049   0.593 -0.4972 -0.9286 -0.2089
 3323TIP3    H231461   5.308   0.929   0.534  0.1670 -1.2589 -0.3661
 3324TIP3   OH231462   2.909   5.225  14.470  0.0426  0.0454 -0.6823
 3324TIP3    H131463   2.923   5.207  14.377 -0.2168 -0.2557 -0.6688
 3324TIP3    H231464   2.933   5.317  14.481  0.9094 -0.1492 -0.8684
 3325TIP3   OH231465   2.889   4.570   1.585  0.7320  0.6167  0.0470
 3325TIP3    H131466   2.924   4.561   1.674 -1.1597 -0.3373  0.7464
 3325TIP3    H231467   2.961   4.541   1.529  1.5658  0.0859  1.3274
 3326TIP3   OH231468   1.801   2.962  11.779  0.2199 -0.0255 -0.0464
 3326TIP3    H131469   1.873   3.023  11.793 -0.0686  0.1438  0.7437
 3326TIP3    H231470   1.844   2.877  11.767  0.5673  0.1256  0.1113
 3327TIP3   OH231471   6.309   5.105   4.589  0.0148  0.4941 -0.1218
 3327TIP3    H131472   6.351   5.020   4.572 -0.8298  0.2619 -1.1210
 3327TIP3    H231473   6.268   5.128   4.506 -1.8229  0.7173  0.8115
 3328TIP3   OH231474   4.191   3.781   0.362 -0.2742  0.0318  0.7019
 3328TIP3    H131475   4.192   3.856   0.421 -1.2915  0.5212  0.1195
 3328TIP3    H231476   4.273   3.786   0.314  0.1160  0.1852  1.3776
 3329TIP3   OH231477   5.598   3.904  11.363  0.2838  0.3738 -0.3145
 3329TIP3    H131478   5.600   3.814  11.328  1.2784 -0.7166  2.2731
 3329TIP3    H231479   5.577   3.893  11.456 -0.0689  2.8856 -0.0313
 3330TIP3   OH231480   1.600   4.838  16.465 -0.0097 -0.1529  0.0756
 3330TIP3    H131481   1.635   4.810  16.550 -2.1220  0.5023  1.2340
 3330TIP3    H231482   1.527   4.778  16.448 -0.4416  0.5546 -0.6196
 3331TIP3   OH231483   5.497   5.502   0.557  0.6443  0.3824  0.7895
 3331TIP3    H131484   5.573   5.455   0.593  1.2619  0.4188 -0.3791
 3331TIP3    H231485   5.531   5.541   0.476 -0.0408  2.2863  1.3815
 3332TIP3   OH231486   4.847   5.365  16.240  0.2151 -0.1564 -0.1882
 3332TIP3    H131487   4.897   5.355  16.159  1.3237 -0.3188  0.4893
 3332TIP3    H231488   4.913   5.357  16.309 -0.6382  0.4314  0.7141
 3333TIP3   OH231489   2.558   3.203   6.382  0.7763  0.6394 -0.4915
 3333TIP3    H131490   2.506   3.271   6.338  0.8501  0.8598 -0.2385
 3333TIP3    H231491   2.622   3.175   6.317  0.5649  0.6122 -0.6900
 3334TIP3   OH231492   3.321   6.782  11.407 -0.9990  0.2108  0.0337
 3334TIP3    H131493   3.294   6.800  11.498 -1.7812  0.0217 -0.1516
 3334TIP3    H231494   3.409   6.744  11.415 -0.7329  0.9459  0.6537
 3335TIP3   OH231495   5.814   6.661   0.762 -0.3781 -0.5042  0.0686
 3335TIP3    H131496   5.753   6.658   0.835  0.1999  0.1616  0.6009
 3335TIP3    H231497   5.812   6.574   0.724 -3.0730 -0.0167 -1.1241
 3336TIP3   OH231498   2.168   4.530  11.480 -0.7981  0.1509 -0.6294
 3336TIP3    H131499   2.189   4.550  11.389  0.4919  1.4491 -0.0858
 3336TIP3    H231500   2.252   4.511  11.521 -1.2246  0.5897  0.5077
 3337TIP3   OH231501   2.964   0.798  12.815  0.0219 -0.1735  0.4949
 3337TIP3    H131502   2.932   0.708  12.807  0.7257 -0.5100  1.3130
 3337TIP3    H231503   2.915   0.835  12.889  1.1511 -0.5484  1.4611
 3338TIP3   OH231504   0.874   4.107   1.491  0.6475  0.4765  0.4502
 3338TIP3    H131505   0.911   4.194   1.478  2.5790 -0.3557  0.0402
 3338TIP3    H231506   0.900   4.083   1.580 -2.5147  1.4704  1.7830
 3339TIP3   OH231507   6.764   0.080   4.038 -0.0661  0.3399 -0.7626
 3339TIP3    H131508   6.838   0.137   4.058 -0.7377  0.6995  0.9560
 3339TIP3    H231509   6.696   0.139   4.005 -0.7050  0.5843  0.8619
 3340TIP3   OH231510   5.833   4.768   0.861 -0.3955 -0.5507 -0.2085
 3340TIP3    H131511   5.828   4.842   0.800 -0.1092 -0.9757 -0.7621
 3340TIP3    H231512   5.827   4.808   0.948  0.7830  0.2273 -0.4660
 3341TIP3   OH231513   1.700   5.225   2.768  0.3350  0.0135  0.2505
 3341TIP3    H131514   1.705   5.140   2.724  1.2628  0.5403 -0.6992
 3341TIP3    H231515   1.606   5.243   2.772  0.1056 -1.1596  0.6899
 3342TIP3   OH231516   4.885   2.598   4.347  0.2496 -0.3260 -0.2070
 3342TIP3    H131517   4.807   2.563   4.389  0.3074 -1.1925 -0.7842
 3342TIP3    H231518   4.957   2.577   4.407 -0.0512  1.3348  0.7925
 3343TIP3   OH231519   6.303   3.800  13.131  0.5103  0.0585  0.2412
 3343TIP3    H131520   6.298   3.705  13.119 -2.8289  0.0151  1.1571
 3343TIP3    H231521   6.351   3.811  13.213  2.5665 -0.6539 -0.7801
 3344TIP3   OH231522   5.490   6.624   1.222  0.2580  0.3813  0.3028
 3344TIP3    H131523   5.441   6.579   1.153  0.9894 -0.5194  0.3493
 3344TIP3    H231524   5.433   6.619   1.299 -0.3162  0.8884 -0.0801
 3345TIP3   OH231525   5.110   2.200   4.796  0.8819  0.1015 -0.3506
 3345TIP3    H131526   5.166   2.256   4.850  0.9309  0.2339 -0.5345
 3345TIP3    H231527   5.149   2.113   4.802 -0.0920 -0.2499  1.1959
 3346TIP3   OH231528   1.836   5.329   0.252 -0.2614 -1.1878 -0.3078
 3346TIP3    H131529   1.929   5.323   0.231 -0.0721 -1.1731  0.5128
 3346TIP3    H231530   1.793   5.271   0.189  0.1836 -0.3739 -1.3950
 3347TIP3   OH231531   2.191   2.015  16.385 -0.0478  0.3204  1.0728
 3347TIP3    H131532   2.278   2.048  16.407  0.8046  0.1361 -1.6837
 3347TIP3    H231533   2.132   2.086  16.407  1.2438  1.9593 -0.4495
 3348TIP3   OH231534   6.607   2.210  14.400 -0.4885  0.1615  0.3525
 3348TIP3    H131535   6.645   2.151  14.336  0.0537  2.2333 -1.3378
 3348TIP3    H231536   6.516   2.182  14.407  0.0889 -1.8056  0.8075
 3349TIP3   OH231537   5.552   5.226   0.822 -0.2486  0.0679  0.1211
 3349TIP3    H131538   5.491   5.280   0.872  0.5661  0.1798  1.0230
 3349TIP3    H231539   5.593   5.286   0.760 -1.0500 -0.0127 -0.5070
 3350TIP3   OH231540   5.832   4.972  12.285 -0.3095 -0.7941 -0.3223
 3350TIP3    H131541   5.786   4.931  12.211 -0.9313 -0.4154 -0.1542
 3350TIP3    H231542   5.772   5.040  12.315 -0.4419 -1.5014  1.0876
 3351TIP3   OH231543   2.858   4.068  13.643 -0.0424  0.1835 -0.4521
 3351TIP3    H131544   2.856   4.145  13.585 -1.8450  0.3429 -0.2664
 3351TIP3    H231545   2.908   4.003  13.596 -0.6884  0.6269 -1.8067
 3352TIP3   OH231546   2.217   1.455   4.899 -0.4125  0.2087 -0.3664
 3352TIP3    H131547   2.136   1.441   4.849  2.0671 -0.9415 -4.5989
 3352TIP3    H231548   2.251   1.538   4.865  1.1866 -0.3842 -0.2862
 3353TIP3   OH231549   4.363   3.624   0.967 -0.5040 -0.0549 -0.1917
 3353TIP3    H131550   4.278   3.599   0.931 -0.9697  0.9691  0.1538
 3353TIP3    H231551   4.342   3.682   1.040  0.4266 -2.1093  1.7918
 3354TIP3   OH231552   2.579   0.848  15.660 -0.0596  0.3757  0.1961
 3354TIP3    H131553   2.597   0.900  15.738 -0.1775  1.1211 -0.2692
 3354TIP3    H231554   2.616   0.898  15.587  2.0742 -1.3563 -0.0243
 3355TIP3   OH231555   4.374   6.261   2.533  0.3478  0.2689 -0.3149
 3355TIP3    H131556   4.405   6.171   2.528  1.3321  0.4746  1.4628
 3355TIP3    H231557   4.279   6.254   2.538  0.4978 -0.8966  2.7013
 3356TIP3   OH231558   1.206   2.370  12.962  0.5196 -0.2085  0.8366
 3356TIP3    H131559   1.125   2.400  12.921  0.8303 -0.1563  0.2517
 3356TIP3    H231560   1.272   2.378  12.893  1.2824  0.9552  1.6772
 3357TIP3   OH231561   0.838   6.166   1.221  0.0982  0.3006  0.0487
 3357TIP3    H131562   0.843   6.095   1.157  0.9804  0.9872 -0.6649
 3357TIP3    H231563   0.792   6.236   1.175  0.9048  0.8659  0.0945
 3358TIP3   OH231564   2.494   6.016   3.851 -0.0275 -0.3971 -0.5879
 3358TIP3    H131565   2.540   6.071   3.788  2.0122 -0.9653  0.3155
 3358TIP3    H231566   2.428   6.074   3.889  0.7699  0.8570 -1.0322
 3359TIP3   OH231567   1.139   3.666   6.004 -0.0395 -0.1874 -0.2775
 3359TIP3    H131568   1.150   3.725   6.079 -1.6269 -0.7637  0.4618
 3359TIP3    H231569   1.095   3.719   5.938 -0.8838 -0.3348  0.1481
 3360TIP3   OH231570   4.953   6.683   3.690 -0.6891  0.4053  0.7326
 3360TIP3    H131571   4.974   6.686   3.784 -0.1348 -1.5644  0.7257
 3360TIP3    H231572   4.879   6.744   3.680 -0.6863  0.7467  2.4168
 3361TIP3   OH231573   4.433   6.046  10.882 -0.3161  0.9870 -0.3213
 3361TIP3    H131574   4.409   6.046  10.975  0.2838 -0.2306 -0.1510
 3361TIP3    H231575   4.529   6.048  10.883 -0.3209  2.0765 -0.9395
 3362TIP3   OH231576   1.075   3.489   5.699  0.2154  0.5512 -0.4971
 3362TIP3    H131577   1.123   3.571   5.711  0.8389  0.6824 -3.2206
 3362TIP3    H231578   0.984   3.512   5.718  0.2787  2.0917 -1.8200
 3363TIP3   OH231579   1.489   1.642  11.949 -0.1882  0.2109 -0.4809
 3363TIP3    H131580   1.475   1.552  11.918 -0.9793 -0.4637  1.6814
 3363TIP3    H231581   1.550   1.679  11.885 -0.6309 -1.5053 -2.0137
 3364TIP3   OH231582   3.247   1.986   1.786  0.3902 -0.1941 -0.0899
 3364TIP3    H131583   3.221   1.897   1.762 -0.8966  0.4141 -1.0837
 3364TIP3    H231584   3.219   1.995   1.877 -0.6263 -0.4175 -0.3578
 3365TIP3   OH231585   4.926   1.901   2.023  0.4318 -0.3280 -0.1915
 3365TIP3    H131586   5.003   1.888   2.078  1.3748 -0.2709 -1.4684
 3365TIP3    H231587   4.948   1.975   1.967  0.0601 -1.2538 -1.6208
 3366TIP3   OH231588   5.796   4.381  14.540 -0.0198 -0.2913 -0.5321
 3366TIP3    H131589   5.703   4.403  14.550  0.3846  1.1479  0.2393
 3366TIP3    H231590   5.832   4.452  14.486  0.9559  0.0237  0.5016
 3367TIP3   OH231591   3.981   2.150   1.216 -0.0175 -1.0673 -0.1189
 3367TIP3    H131592   3.915   2.199   1.169 -0.0941 -1.5236 -0.4929
 3367TIP3    H231593   4.044   2.124   1.149  1.5102  0.8515  0.4638
 3368TIP3   OH231594   1.663   2.877   2.420 -0.4856 -0.4768 -0.1927
 3368TIP3    H131595   1.720   2.926   2.479 -0.5377  0.1038 -0.6160
 3368TIP3    H231596   1.636   2.800   2.470 -0.9627  0.2781  0.7345
 3369TIP3   OH231597   3.667   4.799  10.314 -0.3530 -0.4260 -0.2758
 3369TIP3    H131598   3.620   4.837  10.388  0.4030 -3.0003  1.6826
 3369TIP3    H231599   3.603   4.795  10.243 -1.7332  0.1977  0.9080
 3370TIP3   OH231600   1.763   6.546  11.115 -0.0329  0.2465 -0.1422
 3370TIP3    H131601   1.757   6.463  11.068 -0.4112 -0.8195  1.6751
 3370TIP3    H231602   1.740   6.612  11.050 -0.3451 -1.1246 -1.4858
 3371TIP3   OH231603   2.684   6.508  15.390  0.7712 -0.8641 -0.2739
 3371TIP3    H131604   2.667   6.423  15.430 -0.2355 -0.8753 -0.7004
 3371TIP3    H231605   2.748   6.549  15.449  1.9603 -2.2452 -0.5445
 3372TIP3   OH231606   5.761   4.735   4.135  0.2410 -0.5513  0.4379
 3372TIP3    H131607   5.852   4.720   4.161  0.9560  1.7148 -0.5540
 3372TIP3    H231608   5.730   4.803   4.195  0.0538  0.5101 -0.8246
 3373TIP3   OH231609   3.837   0.011  15.744  0.1431  0.0729  0.5557
 3373TIP3    H131610   3.836   0.104  15.724 -0.3072 -0.5025 -2.6962
 3373TIP3    H231611   3.745  -0.015  15.742  0.3310 -0.6083  0.4962
 3374TIP3   OH231612   5.694   1.068  11.713 -0.8767  0.0399  0.0081
 3374TIP3    H131613   5.642   1.006  11.764 -0.4486 -1.8727 -1.7705
 3374TIP3    H231614   5.631   1.108  11.653 -0.8173 -0.1204 -0.1623
 3375TIP3   OH231615   1.021   2.993   3.176 -0.0503  0.1817  0.2063
 3375TIP3    H131616   1.064   3.077   3.157 -1.7361  1.3319  1.2004
 3375TIP3    H231617   1.002   2.997   3.270 -2.9247  0.0842 -0.2877
 3376TIP3   OH231618   1.660   5.520  13.249 -0.4025  0.2414  0.2652
 3376TIP3    H131619   1.703   5.602  13.273 -1.6382  1.0330 -0.1263
 3376TIP3    H231620   1.683   5.459  13.318  1.2579  0.6562  0.1115
 3377TIP3   OH231621   3.919   5.286  17.031  0.2763 -0.0617 -0.7100
 3377TIP3    H131622   3.861   5.320  16.963 -0.0144 -2.1933 -1.6153
 3377TIP3    H231623   4.006   5.285  16.991  0.1039 -1.3244 -1.1109
 3378TIP3   OH231624   3.345   2.007   0.185 -0.1269  0.5423  0.3471
 3378TIP3    H131625   3.373   1.971   0.101 -0.8816  0.3928  0.1534
 3378TIP3    H231626   3.251   1.992   0.187 -0.4844  2.5042  0.2703
 3379TIP3   OH231627   5.390   5.110  16.708 -0.6091  0.2872  0.0503
 3379TIP3    H131628   5.369   5.103  16.802 -2.1165  0.0243 -0.2810
 3379TIP3    H231629   5.444   5.033  16.691 -0.4669  0.2396  0.6739
 3380TIP3   OH231630   1.765   6.609   4.755 -0.4608 -0.3078 -0.1204
 3380TIP3    H131631   1.761   6.545   4.826  1.7404 -0.3196  0.0506
 3380TIP3    H231632   1.821   6.569   4.689  0.4829  1.1773 -0.2700
 3381TIP3   OH231633   3.800   3.342   5.202 -0.1955 -0.7432 -0.1492
 3381TIP3    H131634   3.775   3.417   5.255 -0.8781 -0.0165 -1.4519
 3381TIP3    H231635   3.858   3.378   5.135 -2.8954 -0.6993 -2.6787
 3382TIP3   OH231636   0.034   5.512   5.792 -0.5689  0.3515  0.2244
 3382TIP3    H131637   0.100   5.570   5.830 -0.5560  0.1705  0.4852
 3382TIP3    H231638  -0.028   5.571   5.749 -0.7497  0.5932  0.7948
 3383TIP3   OH231639   6.397   6.605   5.132 -0.0820  0.2804  0.1927
 3383TIP3    H131640   6.418   6.680   5.187 -1.0324  0.8388 -0.1975
 3383TIP3    H231641   6.322   6.633   5.080 -1.4737 -1.4873  1.1544
 3384TIP3   OH231642   5.388   4.943  12.263 -0.0657 -0.4544  0.9317
 3384TIP3    H131643   5.440   4.919  12.339  1.5139 -1.1188 -0.2965
 3384TIP3    H231644   5.359   4.859  12.226  0.1064 -0.2014  0.2034
 3385TIP3   OH231645   4.747   6.670   2.390  0.4334  0.2647  0.1133
 3385TIP3    H131646   4.675   6.732   2.406  0.3840  0.4506 -0.8112
 3385TIP3    H231647   4.703   6.588   2.369  0.4874  0.4137 -0.5914
 3386TIP3   OH231648   3.091   6.720  15.913 -0.1522  0.6250 -0.2835
 3386TIP3    H131649   3.132   6.756  15.834  0.1289 -1.4626 -1.1547
 3386TIP3    H231650   3.164   6.681  15.962 -0.4305  1.2726  0.6903
 3387TIP3   OH231651   4.085   6.752   2.324  0.3645  0.1003  0.1452
 3387TIP3    H131652   4.175   6.769   2.353  0.1172 -0.5704  1.3531
 3387TIP3    H231653   4.039   6.835   2.339  0.2222 -0.2604  1.8019
 3388TIP3   OH231654   5.856   1.818   5.650 -0.2206  0.3061 -0.0487
 3388TIP3    H131655   5.918   1.892   5.654 -0.2868  0.4011 -0.6079
 3388TIP3    H231656   5.817   1.814   5.737 -0.2370  0.9536 -0.0209
 3389TIP3   OH231657   2.699   4.083   4.454 -0.1935  0.5654  0.9534
 3389TIP3    H131658   2.690   4.027   4.377  0.7560  1.2169  0.3465
 3389TIP3    H231659   2.698   4.023   4.528 -3.3085  0.0532  0.6594
 3390TIP3   OH231660   0.038   2.478   3.521 -0.4697  0.1065 -0.0291
 3390TIP3    H131661   0.100   2.435   3.580 -0.4378 -0.5479 -0.5258
 3390TIP3    H231662   0.005   2.553   3.571 -0.0526 -0.1334  0.6200
 3391TIP3   OH231663   1.255   3.258  13.503 -0.2451  0.1846  0.3081
 3391TIP3    H131664   1.270   3.266  13.598 -0.9599 -0.6349  0.5050
 3391TIP3    H231665   1.259   3.164  13.486 -1.7550  0.1776 -0.1686
 3392TIP3   OH231666   5.299   1.454   5.204 -0.0738  0.1813  0.5492
 3392TIP3    H131667   5.228   1.455   5.140  0.6318  2.5673 -0.3055
 3392TIP3    H231668   5.357   1.384   5.174 -0.6598  0.0657 -0.3748
 3393TIP3   OH231669   5.754   0.084  15.818  0.1751  0.2397 -0.1920
 3393TIP3    H131670   5.836   0.134  15.828 -0.3020  0.6774  2.4320
 3393TIP3    H231671   5.690   0.149  15.790  0.4961  0.1294 -1.1905
 3394TIP3   OH231672   2.711   3.321   0.384  0.0354 -0.4517 -0.3219
 3394TIP3    H131673   2.627   3.358   0.411  0.5632  0.1313  0.5684
 3394TIP3    H231674   2.761   3.313   0.465  1.4145  0.6868 -1.0143
 3395TIP3   OH231675   6.096   0.159   6.056 -0.5170 -0.1679 -0.2578
 3395TIP3    H131676   6.049   0.201   6.128 -2.4132  0.1341 -1.5967
 3395TIP3    H231677   6.079   0.215   5.980  0.0927 -1.3131 -1.2799
 3396TIP3   OH231678   5.865   4.200   5.710 -0.0997 -0.4047  0.0940
 3396TIP3    H131679   5.808   4.192   5.786 -0.9593  0.3944 -0.4491
 3396TIP3    H231680   5.953   4.183   5.744 -0.1312  2.2762  1.7769
 3397TIP3   OH231681   0.188   2.162   4.559  0.7293 -0.1681  0.7840
 3397TIP3    H131682   0.093   2.154   4.561  0.8616 -2.9365 -0.4611
 3397TIP3    H231683   0.208   2.190   4.470  1.0786  1.2304  1.2795
 3398TIP3   OH231684   6.546   4.961   5.043  0.2407 -0.0864 -0.4576
 3398TIP3    H131685   6.517   4.981   4.954 -1.1386 -0.2974 -0.0761
 3398TIP3    H231686   6.630   5.006   5.052  0.2543  0.1732 -1.7665
 3399TIP3   OH231687   2.189   1.622  11.159 -0.0525  0.5827 -0.4243
 3399TIP3    H131688   2.274   1.618  11.203  0.9276 -1.6069 -2.3621
 3399TIP3    H231689   2.208   1.605  11.067 -2.4928  1.1591 -1.1075
 3400TIP3   OH231690   0.250   4.842   4.104 -0.7028  0.2344 -0.0316
 3400TIP3    H131691   0.241   4.753   4.138 -0.0669 -0.2500 -1.0747
 3400TIP3    H231692   0.175   4.889   4.140 -0.0972 -0.2486  1.9469
 3401TIP3   OH231693   6.678   6.262   1.267 -0.1394 -0.4042 -0.4685
 3401TIP3    H131694   6.617   6.225   1.331  0.5089 -0.0551  0.3743
 3401TIP3    H231695   6.627   6.268   1.186 -0.3506 -2.8893 -0.5895
 3402TIP3   OH231696   6.524   3.962   1.359  0.1073  0.0922 -0.5106
 3402TIP3    H131697   6.469   3.956   1.437  0.1346  2.8175 -0.1996
 3402TIP3    H231698   6.469   3.930   1.288 -0.3765 -1.1778  0.3990
 3403TIP3   OH231699   5.902   3.771   0.593  0.2347  0.1382 -0.1817
 3403TIP3    H131700   5.863   3.764   0.506 -0.0573  0.5115 -0.0894
 3403TIP3    H231701   5.935   3.684   0.612  0.4156  0.0875 -0.7194
 3404TIP3   OH231702   2.999   4.490  15.585 -0.2823  0.5575  0.4093
 3404TIP3    H131703   3.071   4.495  15.522  0.0597  1.6522  0.8664
 3404TIP3    H231704   3.043   4.485  15.670 -0.6510  3.5259  0.8968
 3405TIP3   OH231705   2.794   3.362   3.026  0.4459  0.1783 -0.0196
 3405TIP3    H131706   2.858   3.434   3.030  0.4659  0.1806 -0.3744
 3405TIP3    H231707   2.846   3.283   3.018  0.3889  0.2646 -1.4530
 3406TIP3   OH231708   2.499   0.560  17.048  0.2230 -0.2858  0.5187
 3406TIP3    H131709   2.433   0.607  16.997 -0.4423 -0.4385  1.2327
 3406TIP3    H231710   2.455   0.481  17.078  1.0743 -0.9653  0.0432
 3407TIP3   OH231711   4.398   6.682  11.231 -0.3238 -0.4064  0.4556
 3407TIP3    H131712   4.358   6.617  11.174 -1.1264  0.1418  0.3846
 3407TIP3    H231713   4.381   6.651  11.320 -1.6214  0.2198  0.4471
 3408TIP3   OH231714   6.136   3.988   5.222  0.3979 -0.5897 -0.4589
 3408TIP3    H131715   6.086   3.944   5.154 -1.3186 -0.2861  0.5662
 3408TIP3    H231716   6.095   3.962   5.304 -1.0820  3.2042  0.2192
 3409TIP3   OH231717   5.433   5.827  13.238  0.4701 -0.8586 -0.3882
 3409TIP3    H131718   5.412   5.789  13.153  0.6792 -1.2691 -0.2550
 3409TIP3    H231719   5.372   5.786  13.299 -2.8751  2.6100 -0.9444
 3410TIP3   OH231720   0.825   1.982  13.397 -0.4248 -0.4976 -0.4303
 3410TIP3    H131721   0.809   1.906  13.341 -0.9805 -1.0503  0.4427
 3410TIP3    H231722   0.841   1.944  13.484 -0.1810  0.3596 -0.0922
 3411TIP3   OH231723   4.599   4.503   1.129 -0.2996  0.2671  0.2183
 3411TIP3    H131724   4.569   4.591   1.109  1.7754  1.2761  1.1929
 3411TIP3    H231725   4.525   4.447   1.108 -2.7125  2.4756  2.0767
 3412TIP3   OH231726   1.258   4.697   3.087 -0.7718 -0.2771 -0.2971
 3412TIP3    H131727   1.279   4.714   3.179 -0.7509 -0.0561 -0.3424
 3412TIP3    H231728   1.322   4.748   3.038 -0.3095 -0.9847 -0.4380
 3413TIP3   OH231729   4.964   0.573   2.820 -0.0307 -0.1595  0.4685
 3413TIP3    H131730   4.978   0.667   2.835  0.7888 -0.1551 -0.2302
 3413TIP3    H231731   4.967   0.533   2.907  0.1952  0.3858  0.7129
 3414TIP3   OH231732   1.647   5.737   4.810 -0.5270 -0.1010 -0.0095
 3414TIP3    H131733   1.627   5.813   4.864 -0.5870  0.9164 -1.4137
 3414TIP3    H231734   1.702   5.771   4.739  2.7849 -2.0440  1.3840
 3415TIP3   OH231735   2.766   2.541  15.354 -0.1336  0.1788 -0.0361
 3415TIP3    H131736   2.702   2.476  15.323 -0.8044  0.8851 -0.1474
 3415TIP3    H231737   2.727   2.577  15.433 -0.2643  1.2154 -0.5618
 3416TIP3   OH231738   2.025   5.162  12.191  0.3458 -0.0907  0.1746
 3416TIP3    H131739   1.930   5.176  12.185 -0.2038 -0.6012  4.2653
 3416TIP3    H231740   2.040   5.146  12.284  4.3334 -1.3401 -0.5074
 3417TIP3   OH231741   2.494   4.628   1.367 -0.0373  0.6622  0.3696
 3417TIP3    H131742   2.445   4.554   1.333 -2.3269  2.1630  0.1795
 3417TIP3    H231743   2.447   4.655   1.446  0.7243  1.9013  0.4369
 3418TIP3   OH231744   1.665   4.187  14.342  0.1148 -0.4620 -0.0548
 3418TIP3    H131745   1.611   4.259  14.308  1.2687 -0.0817 -1.1736
 3418TIP3    H231746   1.751   4.227  14.358  1.0913 -1.7747 -1.6946
 3419TIP3   OH231747   2.670   4.716   5.158 -0.1776  0.2851 -0.1467
 3419TIP3    H131748   2.712   4.785   5.107 -1.8266 -0.2106 -2.3463
 3419TIP3    H231749   2.723   4.638   5.141 -0.3966  0.2487 -0.7067
 3420TIP3   OH231750   2.683   1.884  16.371 -0.2903 -0.2173 -0.9165
 3420TIP3    H131751   2.705   1.904  16.462 -0.5184  0.2821 -0.9659
 3420TIP3    H231752   2.744   1.815  16.345 -1.2966 -1.5372  0.1223
 3421TIP3   OH231753   3.876   0.108   0.192  0.3145 -0.2836  0.0807
 3421TIP3    H131754   3.970   0.091   0.198  0.9283  1.9102 -1.7768
 3421TIP3    H231755   3.863   0.192   0.237 -0.5901 -0.1234 -0.4394
 3422TIP3   OH231756   4.149   2.622  17.083 -0.5010 -0.2845  0.4477
 3422TIP3    H131757   4.216   2.668  17.032 -0.6558 -0.6090 -0.0580
 3422TIP3    H231758   4.172   2.639  17.174  0.2301 -0.3386  0.2803
 3423TIP3   OH231759   3.284   0.999  14.775 -0.5597  0.5945  0.2172
 3423TIP3    H131760   3.328   0.983  14.858 -1.2979 -1.2795  0.2950
 3423TIP3    H231761   3.196   0.962  14.787 -0.4721 -0.3009 -1.5937
 3424TIP3   OH231762   2.265   5.191  11.240  0.1468 -0.6756  0.2482
 3424TIP3    H131763   2.263   5.123  11.307 -1.0678 -0.8896  0.0070
 3424TIP3    H231764   2.332   5.253  11.271  0.0590 -1.0978  1.3244
 3425TIP3   OH231765   5.276   4.772  11.859  0.1131  0.0493 -0.4180
 3425TIP3    H131766   5.305   4.864  11.855  1.2548 -0.3277 -3.4542
 3425TIP3    H231767   5.354   4.722  11.836 -1.0056 -1.5546 -0.8356
 3426TIP3   OH231768   6.040   5.183  11.764 -0.1912 -0.0446 -0.9715
 3426TIP3    H131769   5.981   5.200  11.690 -2.2704  1.0171  0.8046
 3426TIP3    H231770   6.041   5.265  11.813  1.0341 -0.7511  0.2540
 3427TIP3   OH231771   0.741   5.370  15.617  0.7990  0.1457  0.5788
 3427TIP3    H131772   0.821   5.419  15.595  0.0795  1.1313  0.1016
 3427TIP3    H231773   0.706   5.343  15.532  1.7025 -2.1182  0.8445
 3428TIP3   OH231774   1.687   0.131   5.370 -0.4875 -0.1966  0.2991
 3428TIP3    H131775   1.736   0.168   5.297  0.3351  0.7166  1.2741
 3428TIP3    H231776   1.619   0.077   5.329 -0.0820  0.3264 -1.1180
 3429TIP3   OH231777   3.073   1.100   0.830 -0.0387 -0.3198 -0.0542
 3429TIP3    H131778   3.105   1.010   0.830 -0.4236 -0.4953 -1.6817
 3429TIP3    H231779   2.979   1.093   0.844 -0.1039 -0.2009 -0.4032
 3430TIP3   OH231780   1.302   0.147   4.935 -0.0928 -0.5561 -0.1019
 3430TIP3    H131781   1.357   0.094   4.878 -0.2986 -0.8121 -0.0638
 3430TIP3    H231782   1.223   0.094   4.948 -1.0674  0.4947 -1.4925
 3431TIP3   OH231783   5.885   4.559  11.895  0.0483  0.3696 -0.5036
 3431TIP3    H131784   5.947   4.563  11.822  0.3344 -0.0034 -0.2791
 3431TIP3    H231785   5.843   4.646  11.894  1.0086  0.8491 -0.2724
 3432TIP3   OH231786   6.301   2.095  15.573  0.5659  0.3050 -0.0346
 3432TIP3    H131787   6.360   2.022  15.555 -1.1246 -0.8526 -1.1285
 3432TIP3    H231788   6.216   2.054  15.587  0.2080  1.8098  2.9436
 3433TIP3   OH231789   2.648   0.046  15.376  0.6584 -0.3700  0.0404
 3433TIP3    H131790   2.595  -0.005  15.314  1.8716 -0.9118 -0.5736
 3433TIP3    H231791   2.705   0.099  15.322 -0.4286  1.5662  0.6753
 3434TIP3   OH231792   3.954   2.222  15.597  0.0895  0.8205  0.4400
 3434TIP3    H131793   3.867   2.211  15.558  0.5454 -1.0765 -0.1076
 3434TIP3    H231794   3.954   2.314  15.626 -1.0111  1.7892 -2.2175
 3435TIP3   OH231795   4.529   4.060  13.286 -0.1224  0.0709  0.3452
 3435TIP3    H131796   4.624   4.066  13.288 -0.1339  0.0819  1.4227
 3435TIP3    H231797   4.503   4.065  13.377 -1.1358 -0.3474  0.0930
 3436TIP3   OH231798   0.228   3.767  15.930  0.0628 -0.6484  0.2460
 3436TIP3    H131799   0.246   3.836  15.865  1.6624  0.0686  1.4011
 3436TIP3    H231800   0.160   3.714  15.889  0.2129  0.4432 -1.5416
 3437TIP3   OH231801   0.008   3.868  12.884 -0.2056 -0.9430  0.0881
 3437TIP3    H131802  -0.081   3.837  12.899 -0.3194 -0.7441 -0.1668
 3437TIP3    H231803   0.021   3.937  12.949 -0.8270  0.1718 -0.9393
 3438TIP3   OH231804   0.081   1.394  14.179  0.0532 -0.0860  0.0423
 3438TIP3    H131805   0.062   1.367  14.089  1.9805  3.0999 -1.5249
 3438TIP3    H231806   0.148   1.332  14.209 -0.9682 -1.4804 -0.4912
 3439TIP3   OH231807   5.898   5.215  16.198 -0.2143  0.3214 -0.0208
 3439TIP3    H131808   5.926   5.125  16.184 -0.8071  0.4546 -2.5892
 3439TIP3    H231809   5.945   5.243  16.276  1.0784 -1.7453  0.0170
 3440TIP3   OH231810   2.123   4.628   4.779  0.4947 -0.2933 -0.1043
 3440TIP3    H131811   2.096   4.588   4.696 -0.0261  1.9904 -1.1059
 3440TIP3    H231812   2.217   4.613   4.783  0.4645 -0.7803 -0.9092
 3441TIP3   OH231813   5.819   6.242   4.487  0.5127  0.3185 -0.2213
 3441TIP3    H131814   5.787   6.223   4.399 -1.3708  3.2595 -0.3359
 3441TIP3    H231815   5.792   6.168   4.540 -2.0420  0.3299 -1.3879
 3442TIP3   OH231816   3.170   5.518   0.475  0.1161  0.3149  0.1595
 3442TIP3    H131817   3.121   5.450   0.521 -1.4320  2.1325  1.3393
 3442TIP3    H231818   3.118   5.598   0.487  0.8851  1.3756 -2.7574
 3443TIP3   OH231819   4.805   5.714   0.680  0.3713 -0.0046 -0.3301
 3443TIP3    H131820   4.712   5.694   0.668  0.2284  0.9649 -0.9633
 3443TIP3    H231821   4.838   5.642   0.734 -0.2832 -1.4784 -1.7981
 3444TIP3   OH231822   1.802   5.644   1.635 -0.1467  0.5827 -0.1672
 3444TIP3    H131823   1.824   5.581   1.566 -0.2889  1.0573 -0.6507
 3444TIP3    H231824   1.712   5.669   1.617  0.1381  1.4539 -0.3985
 3445TIP3   OH231825   2.703   4.576   0.723  0.2884 -0.3767  0.5763
 3445TIP3    H131826   2.710   4.581   0.819  0.7566 -1.8984  0.6559
 3445TIP3    H231827   2.792   4.558   0.693 -0.3387 -3.4541  0.1976
 3446TIP3   OH231828   6.742   0.696   2.384 -0.0558  0.3482 -0.3947
 3446TIP3    H131829   6.836   0.704   2.396  0.2578 -2.6848 -0.2387
 3446TIP3    H231830   6.730   0.672   2.292 -0.5470 -0.6897 -0.0736
 3447TIP3   OH231831   6.424   2.330   2.339 -0.1331  0.0731 -0.2267
 3447TIP3    H131832   6.374   2.280   2.404 -0.0486 -0.3945 -0.5162
 3447TIP3    H231833   6.495   2.271   2.314 -0.0359  0.3380 -0.5800
 3448TIP3   OH231834   6.694   6.738   3.785 -0.1272  0.2645 -0.0426
 3448TIP3    H131835   6.639   6.688   3.845  0.8862  0.4737  1.0959
 3448TIP3    H231836   6.699   6.684   3.706 -1.7733  0.1491 -0.1038
 3449TIP3   OH231837   0.949   1.716   5.799 -0.2837  0.7062  0.2227
 3449TIP3    H131838   0.868   1.664   5.802 -0.3475  0.8315  1.5011
 3449TIP3    H231839   1.013   1.658   5.758 -0.7789  0.2262  0.1132
 3450TIP3   OH231840   2.790   1.270  13.850  0.5522  0.3649  0.5650
 3450TIP3    H131841   2.863   1.286  13.790  1.4261 -2.3638  0.7624
 3450TIP3    H231842   2.729   1.216  13.799 -0.6231  1.3433  0.8945
 3451TIP3   OH231843   4.929   6.261   0.457  0.0532  0.4494  0.5934
 3451TIP3    H131844   4.992   6.215   0.514 -1.1094  0.4717  1.9430
 3451TIP3    H231845   4.844   6.226   0.483 -0.5215  0.4421 -1.1927
 3452TIP3   OH231846   2.721   6.766  13.197  0.8319 -0.2002  0.6109
 3452TIP3    H131847   2.773   6.752  13.277 -1.4654  0.5265  2.3490
 3452TIP3    H231848   2.631   6.748  13.224  0.1405 -1.9217 -2.4001
 3453TIP3   OH231849   5.035   6.340   5.190 -0.1925  0.3731 -0.1484
 3453TIP3    H131850   5.007   6.266   5.243 -2.0577 -0.1071 -1.6895
 3453TIP3    H231851   5.046   6.412   5.252  0.1003 -0.7620  1.1666
 3454TIP3   OH231852   3.883   5.889  16.629  0.1380 -0.3635  0.0156
 3454TIP3    H131853   3.827   5.921  16.700 -0.7193 -0.9097 -0.3980
 3454TIP3    H231854   3.901   5.798  16.652 -1.0391 -0.8701 -0.9976
 3455TIP3   OH231855   3.115   5.301  16.453  0.0257  0.4261  0.1206
 3455TIP3    H131856   3.140   5.252  16.531  1.1071  0.8144  0.0295
 3455TIP3    H231857   3.196   5.309  16.403 -0.2727  1.7473 -0.1704
 3456TIP3   OH231858   5.182   5.310  11.591 -0.5411  0.6056 -0.2542
 3456TIP3    H131859   5.253   5.327  11.528 -0.5008  0.1299 -0.3394
 3456TIP3    H231860   5.103   5.305  11.537 -0.5025  0.1686 -0.2769
 3457TIP3   OH231861   4.359   5.463   5.453 -0.6857  0.1894 -0.3779
 3457TIP3    H131862   4.365   5.414   5.371  1.5045  0.1902 -0.2741
 3457TIP3    H231863   4.365   5.397   5.522  1.5774  0.4395 -0.2450
 3458TIP3   OH231864   5.483   6.316  11.777  0.0479  0.8528  0.0210
 3458TIP3    H131865   5.548   6.298  11.845  1.8888  0.3276 -1.7576
 3458TIP3    H231866   5.427   6.238  11.777  1.5062 -0.2570 -0.5982
 3459TIP3   OH231867   5.751   2.472   2.844 -0.1105  0.1394  0.8638
 3459TIP3    H131868   5.696   2.551   2.853 -0.0170  0.4766 -1.0226
 3459TIP3    H231869   5.688   2.401   2.831 -0.1979  0.5416 -1.4065
 3460TIP3   OH231870   2.902   2.292  10.766  1.0641 -0.0286  0.2189
 3460TIP3    H131871   2.863   2.293  10.853  0.6006  0.6580  0.0146
 3460TIP3    H231872   2.990   2.327  10.779  1.1297 -0.2820  0.4664
 3461TIP3   OH231873   0.386   5.679  13.933 -0.3377  0.9994  0.6314
 3461TIP3    H131874   0.393   5.717  13.845 -1.2858 -0.8273 -0.2898
 3461TIP3    H231875   0.341   5.746  13.984 -2.6776  0.8769 -1.1269
 3462TIP3   OH231876   1.352   3.810   6.327  0.0856  0.0691 -0.6864
 3462TIP3    H131877   1.359   3.821   6.422  2.5563  0.9643 -0.8899
 3462TIP3    H231878   1.260   3.825   6.307 -0.5324 -0.3751  1.5844
 3463TIP3   OH231879   3.008   1.423  14.847  0.3449  0.3181  0.4579
 3463TIP3    H131880   3.080   1.460  14.797  1.0154 -0.7834  0.5731
 3463TIP3    H231881   3.015   1.328  14.833 -1.0417  0.1779  0.5186
 3464TIP3   OH231882   3.690   4.835   1.437 -0.0561 -0.3824 -0.5581
 3464TIP3    H131883   3.682   4.879   1.522 -1.7228 -0.6072 -0.5712
 3464TIP3    H231884   3.774   4.866   1.402  1.6532 -1.7654  1.9973
 3465TIP3   OH231885   2.987   1.225   1.482  0.0094  0.0654 -0.1940
 3465TIP3    H131886   3.017   1.199   1.569 -0.0005 -0.2265 -0.2766
 3465TIP3    H231887   2.959   1.316   1.493  0.5284  0.2035 -0.0245
 3466TIP3   OH231888   5.764   0.349  11.965  0.4552  0.2151  0.0298
 3466TIP3    H131889   5.852   0.321  11.942  0.3688 -0.7062  0.7515
 3466TIP3    H231890   5.718   0.267  11.986 -0.6949  0.6310 -0.7595
 3467TIP3   OH231891   4.401   2.208   2.927 -0.3514  0.1745  0.1715
 3467TIP3    H131892   4.483   2.165   2.950  0.2333  1.0701 -0.1864
 3467TIP3    H231893   4.338   2.176   2.992  0.8698  1.4378  2.0766
 3468TIP3   OH231894   3.519   4.916  14.779 -0.3732 -0.1023  0.3161
 3468TIP3    H131895   3.532   4.821  14.785  2.0531  0.1514 -0.1550
 3468TIP3    H231896   3.523   4.936  14.686 -1.9274  0.3778  0.3202
 3469TIP3   OH231897   4.853   3.759  11.609  0.0768 -0.8935 -0.4452
 3469TIP3    H131898   4.934   3.779  11.562 -0.2089  0.2190 -0.5033
 3469TIP3    H231899   4.861   3.667  11.633  2.0314 -0.4543  0.8500
 3470TIP3   OH231900   1.027   5.888   4.940  0.1327  0.8400 -0.6346
 3470TIP3    H131901   0.995   5.967   4.985 -0.2730  0.8367 -0.9162
 3470TIP3    H231902   0.972   5.880   4.862 -0.1341  0.0249 -0.3773
 3471TIP3   OH231903   2.567   5.146  14.879  0.2098 -0.4703 -0.4750
 3471TIP3    H131904   2.581   5.177  14.790 -0.5955  0.1918 -0.3833
 3471TIP3    H231905   2.651   5.110  14.905  1.1575  1.4938 -0.6515
 3472TIP3   OH231906   4.718   4.640   0.684 -0.8984  0.4484  0.2546
 3472TIP3    H131907   4.666   4.563   0.662 -0.1289  0.4035 -1.5393
 3472TIP3    H231908   4.799   4.630   0.634 -0.5516  2.1478  0.4015
 3473TIP3   OH231909   2.867   1.197  16.825 -0.3647 -0.0534  0.2685
 3473TIP3    H131910   2.946   1.162  16.785  0.6623  0.2539  1.9211
 3473TIP3    H231911   2.814   1.227  16.751  0.7705 -0.8328 -0.9120
 3474TIP3   OH231912   4.758   2.886   5.138 -0.1938 -0.2664  0.5528
 3474TIP3    H131913   4.771   2.887   5.044 -0.5313  0.0636  0.5038
 3474TIP3    H231914   4.727   2.798   5.158 -1.0764 -0.0508  0.2108
 3475TIP3   OH231915   4.697   4.259   5.364  1.1933  0.3211  0.8215
 3475TIP3    H131916   4.617   4.302   5.395  0.1785 -1.6682  1.1414
 3475TIP3    H231917   4.680   4.165   5.378  2.9752 -0.2466 -0.5552
 3476TIP3   OH231918   2.771   0.641   0.448  0.4622 -0.3025 -0.0037
 3476TIP3    H131919   2.717   0.719   0.431  0.8195  0.0734  0.5141
 3476TIP3    H231920   2.852   0.677   0.485  1.1374 -0.8458 -0.9183
 3477TIP3   OH231921   2.214   3.423  11.555 -0.1389 -0.6652 -0.1228
 3477TIP3    H131922   2.293   3.406  11.504 -0.7053 -0.8295 -0.9645
 3477TIP3    H231923   2.246   3.466  11.634  0.9889 -2.3539  0.4107
 3478TIP3   OH231924   0.459   2.389   6.602  0.0036 -0.7619 -0.3711
 3478TIP3    H131925   0.434   2.323   6.667  0.2227  0.0678  0.5692
 3478TIP3    H231926   0.502   2.458   6.652 -1.6201  0.8536 -1.0821
 3479TIP3   OH231927   5.288   4.435   0.039 -0.0635  0.0709  0.6751
 3479TIP3    H131928   5.207   4.389   0.020 -0.9068  1.1635  1.4792
 3479TIP3    H231929   5.357   4.371   0.022 -1.1582 -1.3198  1.3099
 3480TIP3   OH231930   4.978   2.171   0.119 -0.0317  0.1844 -0.2173
 3480TIP3    H131931   4.999   2.096   0.063  0.9570  1.4713 -1.6348
 3480TIP3    H231932   5.025   2.244   0.080 -1.4888  1.7020  0.7432
 3481TIP3   OH231933   0.536   0.264  16.859  0.3921 -0.3311  0.3339
 3481TIP3    H131934   0.576   0.240  16.775  1.4712 -0.2556  0.8239
 3481TIP3    H231935   0.549   0.188  16.915  1.0847  0.2106  0.9216
 3482TIP3   OH231936   1.669   5.238  14.591 -0.3537  0.0968  0.1883
 3482TIP3    H131937   1.665   5.257  14.685  1.6597 -1.5644  0.6954
 3482TIP3    H231938   1.687   5.323  14.550  0.3519  0.5972  1.4801
 3483TIP3   OH231939   5.415   2.271  11.792 -0.4128  0.3252  0.2490
 3483TIP3    H131940   5.320   2.273  11.787 -0.5131 -1.2457  0.8891
 3483TIP3    H231941   5.443   2.223  11.714 -0.1291  1.0310 -0.0832
 3484TIP3   OH231942   3.379   1.890   0.638  0.2451 -0.3662  0.3923
 3484TIP3    H131943   3.344   1.955   0.699 -0.3552  0.2127 -0.5590
 3484TIP3    H231944   3.315   1.885   0.568  1.2001 -0.6118 -0.4855
 3485TIP3   OH231945   4.079   1.869   1.096 -0.0173 -0.1941  0.0592
 3485TIP3    H131946   4.102   1.833   1.182  0.4188  0.2638  0.1370
 3485TIP3    H231947   4.163   1.879   1.051  0.0585  2.1704  0.6095
 3486TIP3   OH231948   3.172   3.460   4.709  0.0915 -0.1457  0.3595
 3486TIP3    H131949   3.081   3.483   4.688  0.1164 -0.3067  0.0651
 3486TIP3    H231950   3.165   3.402   4.785 -0.3738 -3.3208 -1.8972
 3487TIP3   OH231951   2.490   2.317  14.112  0.1963  0.3235  0.0140
 3487TIP3    H131952   2.420   2.313  14.177  0.1699  0.4760 -0.0047
 3487TIP3    H231953   2.538   2.397  14.133  1.6105 -0.8210  1.2980
 3488TIP3   OH231954   4.517   1.241  16.318 -0.1161  0.2220 -0.2380
 3488TIP3    H131955   4.566   1.240  16.236  0.3602 -0.9307  0.0345
 3488TIP3    H231956   4.447   1.304  16.304 -2.1548 -2.3356 -2.8100
 3489TIP3   OH231957   3.191   2.420   2.363  0.0171  0.1063 -0.3298
 3489TIP3    H131958   3.203   2.407   2.457 -1.6684 -1.0272 -0.2323
 3489TIP3    H231959   3.193   2.515   2.351 -0.2803  0.2886  0.9275
 3490TIP3   OH231960   6.219   6.568   4.229 -0.4452  0.5127 -0.5486
 3490TIP3    H131961   6.178   6.540   4.311 -0.1320 -0.5026 -0.7253
 3490TIP3    H231962   6.146   6.574   4.167 -0.6095  0.7484 -0.3347
 3491TIP3   OH231963   0.661   0.287  15.125 -0.1448  0.1523  0.3581
 3491TIP3    H131964   0.605   0.361  15.149  0.0148  0.1119  0.8636
 3491TIP3    H231965   0.620   0.212  15.168  0.0184  0.0419  0.3191
 3492TIP3   OH231966   5.292   5.966   3.095  0.4949 -0.0298  0.3397
 3492TIP3    H131967   5.371   5.943   3.144  0.5689  3.2521  2.0349
 3492TIP3    H231968   5.321   6.033   3.033 -0.4692 -0.9177 -1.1519
 3493TIP3   OH231969   1.530   2.377   4.502 -0.0172 -0.2192 -0.0925
 3493TIP3    H131970   1.466   2.448   4.494  0.3796  0.0071 -1.4793
 3493TIP3    H231971   1.583   2.383   4.423  0.3327 -1.7827 -0.0089
 3494TIP3   OH231972   5.088   1.260   5.102 -0.7251 -0.4102 -0.5689
 3494TIP3    H131973   5.100   1.353   5.082  0.6412 -0.8374 -1.9958
 3494TIP3    H231974   5.133   1.214   5.031 -0.9772 -2.1738  0.3369
 3495TIP3   OH231975   3.203   3.370  14.401  0.2367  0.6388  0.6437
 3495TIP3    H131976   3.175   3.281  14.379 -1.2785  1.0553  0.8022
 3495TIP3    H231977   3.277   3.357  14.460  1.8513 -0.4982 -1.4617
 3496TIP3   OH231978   1.797   5.972   4.876 -0.3378 -0.2507 -0.1965
 3496TIP3    H131979   1.876   5.935   4.916  0.9840  1.2451 -1.2819
 3496TIP3    H231980   1.734   5.977   4.948  0.3765 -1.8594  0.6122
 3497TIP3   OH231981   5.818   2.634  10.712  0.7670 -0.0619  0.4618
 3497TIP3    H131982   5.905   2.674  10.706  1.2264 -1.2246 -1.1796
 3497TIP3    H231983   5.834   2.540  10.706 -0.6141 -0.2880 -0.0832
 3498TIP3   OH231984   6.350   6.536  14.968 -0.4234  0.4415  0.5803
 3498TIP3    H131985   6.298   6.476  15.022  1.3307 -0.9731  0.8122
 3498TIP3    H231986   6.439   6.525  15.000  0.5018  0.4969 -1.7835
 3499TIP3   OH231987   3.547   4.344   5.967 -0.2717  0.2431  0.1111
 3499TIP3    H131988   3.527   4.436   5.987 -0.2685  0.3605 -0.4032
 3499TIP3    H231989   3.520   4.333   5.875  0.8220  0.0497 -0.1967
 3500TIP3   OH231990   4.798   4.502   5.418  0.2666  0.6354 -0.0153
 3500TIP3    H131991   4.787   4.415   5.380  5.2643  0.3650 -1.6601
 3500TIP3    H231992   4.812   4.487   5.511  0.7019 -0.3534 -0.2265
 3501TIP3   OH231993   3.750   5.308   4.259  0.7364 -0.7163  0.0624
 3501TIP3    H131994   3.787   5.363   4.190 -0.4638  0.9556  0.6892
 3501TIP3    H231995   3.657   5.332   4.262 -0.2722 -4.0021 -0.7526
 3502TIP3   OH231996   3.874   0.952  14.995  0.3635 -0.0055  0.4627
 3502TIP3    H131997   3.842   1.042  15.007  1.5473  0.5888 -0.5036
 3502TIP3    H231998   3.968   0.963  14.980  0.4935 -1.4094  0.1450
 3503TIP3   OH231999   2.706   4.651   1.793  0.5120 -0.0316 -0.7417
 3503TIP3    H132000   2.757   4.605   1.726  0.3969  1.1953 -1.6935
 3503TIP3    H232001   2.757   4.729   1.813  0.3695 -0.2056  0.3688
 3504TIP3   OH232002   0.023   6.705  15.701 -0.4799 -0.0740  0.3501
 3504TIP3    H132003   0.045   6.629  15.755  0.4713 -1.2090 -1.5037
 3504TIP3    H232004  -0.010   6.667  15.619 -0.5974  1.5305 -0.3862
 3505TIP3   OH232005   5.095   3.334   4.149 -0.6936  0.1767  0.2088
 3505TIP3    H132006   5.079   3.401   4.216  0.7561 -0.0443  0.8077
 3505TIP3    H232007   5.072   3.252   4.191  1.1752 -0.0721  0.8443
 3506TIP3   OH232008   4.151   5.296  14.360  0.1860 -0.0357  0.1381
 3506TIP3    H132009   4.128   5.371  14.306  2.4990  0.1094 -0.7911
 3506TIP3    H232010   4.141   5.220  14.303 -0.9974 -0.3365  0.7112
 3507TIP3   OH232011   1.164   1.281  14.692  0.0107 -0.7735  0.4881
 3507TIP3    H132012   1.193   1.193  14.714 -1.9909 -1.2847  1.2824
 3507TIP3    H232013   1.070   1.273  14.680 -0.6506  1.6682  2.9560
 3508TIP3   OH232014   1.507   0.861  16.938 -0.2415  0.1259 -0.0827
 3508TIP3    H132015   1.571   0.810  16.987 -1.8694 -0.2641  1.7128
 3508TIP3    H232016   1.479   0.803  16.867  0.3652 -0.2063 -0.0571
 3509TIP3   OH232017   2.442   4.476   4.205 -0.1855 -0.1673  0.1070
 3509TIP3    H132018   2.510   4.513   4.260 -0.0669  0.3819 -0.3980
 3509TIP3    H232019   2.379   4.437   4.266  0.5387 -0.6174  0.5712
 3510TIP3   OH232020   0.129   5.131  15.316  0.1134 -0.0060 -0.0427
 3510TIP3    H132021   0.062   5.172  15.261 -0.9944 -2.3888 -0.5757
 3510TIP3    H232022   0.208   5.132  15.262 -0.7823 -1.6502 -1.4802
 3511TIP3   OH232023   3.832   5.035  12.448 -0.7174  0.1584  0.0393
 3511TIP3    H132024   3.774   4.959  12.441 -1.4593  0.5411  1.5609
 3511TIP3    H232025   3.866   5.031  12.537  0.2520  0.9071 -0.2762
 3512TIP3   OH232026   5.307   1.240  13.598 -0.4158 -0.0602  0.6281
 3512TIP3    H132027   5.390   1.192  13.600  0.5380  1.3878 -0.7838
 3512TIP3    H232028   5.301   1.271  13.507 -2.4281  0.0306  0.7631
 3513TIP3   OH232029   4.170   0.931   5.999  0.3144  0.0528  0.2848
 3513TIP3    H132030   4.258   0.966   5.987  0.1219 -0.1013 -2.0514
 3513TIP3    H232031   4.118   0.972   5.928 -0.4152 -3.2411 -1.2790
 3514TIP3   OH232032   0.087   6.342  13.546  0.1167  0.0867  0.0079
 3514TIP3    H132033   0.144   6.274  13.583 -0.3345 -0.7942 -0.8671
 3514TIP3    H232034   0.080   6.407  13.615  1.2705 -0.3274  0.5524
 3515TIP3   OH232035   5.927   1.240  14.399 -0.3013  0.0433 -0.0336
 3515TIP3    H132036   5.847   1.198  14.367 -0.5714 -0.1426  0.8819
 3515TIP3    H232037   5.897   1.297  14.470  0.3787  0.0007  0.2911
 3516TIP3   OH232038   3.790   2.099   0.681  0.0566  0.5942 -1.0897
 3516TIP3    H132039   3.760   2.011   0.657 -0.8743  0.4877  0.3423
 3516TIP3    H232040   3.885   2.089   0.691 -0.2935 -1.0160  1.7785
 3517TIP3   OH232041   0.949   0.924   4.372 -0.3710  0.6108  0.6912
 3517TIP3    H132042   0.917   0.967   4.293 -1.5436 -0.9363  0.2727
 3517TIP3    H232043   1.044   0.932   4.367 -0.5035  2.2180  0.1312
 3518TIP3   OH232044   1.317   0.604   4.838  0.0923  0.7158  0.0154
 3518TIP3    H132045   1.326   0.693   4.873  1.5506  0.1327  1.1937
 3518TIP3    H232046   1.267   0.557   4.904  0.6085  0.2803  0.1042
 3519TIP3   OH232047   4.436   3.425  14.441 -0.3128  0.2847  0.3046
 3519TIP3    H132048   4.382   3.493  14.403  1.0897  0.5295 -1.3364
 3519TIP3    H232049   4.418   3.430  14.535 -1.8934  1.4051 -0.0245
 3520TIP3   OH232050   4.836   6.595   5.659 -0.3616 -0.3544 -0.7721
 3520TIP3    H132051   4.755   6.544   5.648  0.2154 -0.9367 -2.7711
 3520TIP3    H232052   4.873   6.563   5.742 -1.6677 -0.7815 -0.3171
 3521TIP3   OH232053   5.018   3.627  16.682 -0.2442  0.0633  0.5220
 3521TIP3    H132054   5.023   3.622  16.777 -0.9866 -1.7544  0.5045
 3521TIP3    H232055   4.925   3.630  16.662 -0.0964  0.5382 -0.1457
 3522TIP3   OH232056   1.954   6.032   3.909 -0.8356 -0.1220 -0.5829
 3522TIP3    H132057   1.948   5.939   3.932  3.6990 -0.2979  0.9478
 3522TIP3    H232058   1.950   6.077   3.993 -1.4185  0.9209 -1.1617
 3523TIP3   OH232059   6.081   4.879  13.178  0.3094  0.1922  0.6120
 3523TIP3    H132060   6.173   4.881  13.153  0.1127 -1.1328 -0.3373
 3523TIP3    H232061   6.045   4.960  13.141  0.6938 -0.2265 -0.7671
 3524TIP3   OH232062   5.144   5.829   1.054  0.3176 -0.4311 -0.4121
 3524TIP3    H132063   5.131   5.920   1.081  0.7144 -0.8801  1.4326
 3524TIP3    H232064   5.209   5.834   0.984  0.0844  0.7295 -0.5739
 3525TIP3   OH232065   6.187   3.889   4.571  0.3818 -0.1125 -0.0764
 3525TIP3    H132066   6.238   3.901   4.490  0.2183  0.3391 -0.1171
 3525TIP3    H232067   6.100   3.863   4.542 -0.1285  1.5471 -0.1341
 3526TIP3   OH232068   3.776   1.909  16.737 -0.2877 -0.3663 -0.4265
 3526TIP3    H132069   3.760   1.907  16.642  0.0568  1.4644 -0.5504
 3526TIP3    H232070   3.853   1.853  16.749  0.3432  0.2613 -1.3916
 3527TIP3   OH232071   5.399   5.218  15.124 -0.2919 -0.3321  0.2371
 3527TIP3    H132072   5.423   5.214  15.031  1.0727 -1.6988  0.6017
 3527TIP3    H232073   5.314   5.176  15.129 -0.1596 -0.6859 -0.3356
 3528TIP3   OH232074   4.545   5.937  12.204 -0.2226 -0.5544 -0.1515
 3528TIP3    H132075   4.633   5.953  12.169  0.3580 -2.7274  0.1071
 3528TIP3    H232076   4.559   5.871  12.273 -2.1709 -1.9861 -1.0258
 3529TIP3   OH232077   3.391   3.307   3.141 -0.6128 -0.3301 -0.8484
 3529TIP3    H132078   3.301   3.326   3.166 -0.7318 -1.4333 -0.4175
 3529TIP3    H232079   3.442   3.376   3.183 -1.0973 -0.6081  0.2191
 3530TIP3   OH232080   2.454   1.068   4.695  0.5305  0.4077  0.0532
 3530TIP3    H132081   2.429   1.119   4.772  0.8040 -2.4160  2.1837
 3530TIP3    H232082   2.550   1.071   4.694  0.5540  2.5847 -1.8913
 3531TIP3   OH232083   3.865   1.196   4.943 -0.5315  0.2928  0.2359
 3531TIP3    H132084   3.844   1.115   4.896  0.0562 -0.1629  0.7425
 3531TIP3    H232085   3.957   1.213   4.922 -1.3516  2.3933 -2.1543
 3532TIP3   OH232086   2.503   3.817   0.400  0.2334  0.5961 -0.2990
 3532TIP3    H132087   2.557   3.743   0.375 -0.4313  0.2632 -0.8093
 3532TIP3    H232088   2.553   3.863   0.467  1.3085  0.5222 -1.0258
 3533TIP3   OH232089   1.511   4.689   1.141 -0.0406  0.5223  0.1847
 3533TIP3    H132090   1.444   4.756   1.148 -0.2757  0.3076 -0.0267
 3533TIP3    H232091   1.545   4.697   1.052 -0.5177 -0.0681 -0.0522
 3534TIP3   OH232092   5.478   2.021  10.978 -0.1574 -0.2113  0.1293
 3534TIP3    H132093   5.523   1.937  10.973 -0.7160 -0.4643 -1.4748
 3534TIP3    H232094   5.538   2.084  10.938 -0.1365 -0.0383  0.4317
 3535TIP3   OH232095   4.953   5.734   5.195  0.2943  0.0520 -0.3093
 3535TIP3    H132096   4.984   5.715   5.106 -0.0732 -0.6203 -0.3052
 3535TIP3    H232097   5.001   5.673   5.250  1.6913  1.5237  0.1722
 3536TIP3   OH232098   5.865   1.566   2.124  0.5817 -0.9037 -1.0077
 3536TIP3    H132099   5.951   1.585   2.088  1.3648 -1.1402  0.6618
 3536TIP3    H232100   5.810   1.639   2.094  1.7624  0.1251 -0.7200
 3537TIP3   OH232101   5.673   5.283   0.575  0.6829 -0.0167 -0.3799
 3537TIP3    H132102   5.683   5.189   0.560  1.1100 -0.0121 -0.1524
 3537TIP3    H232103   5.716   5.324   0.500 -1.2051  0.0051 -1.4957
 3538TIP3   OH232104   0.252   5.876  13.486  0.3388  0.4575 -0.8001
 3538TIP3    H132105   0.195   5.942  13.446  0.5615  0.9174 -0.3638
 3538TIP3    H232106   0.265   5.811  13.417 -1.2960 -0.0389 -0.6902
 3539TIP3   OH232107   2.803   0.512   4.577  0.5461 -1.1435 -0.3190
 3539TIP3    H132108   2.756   0.475   4.651 -2.0320  0.5362 -0.9649
 3539TIP3    H232109   2.747   0.494   4.501  1.4729  0.0109 -1.3244
 3540TIP3   OH232110   2.784   4.176  16.014 -0.0721  0.2250  0.2302
 3540TIP3    H132111   2.754   4.214  15.932  0.3066 -0.2309 -0.1292
 3540TIP3    H232112   2.761   4.240  16.081 -0.6890  0.4458 -0.1891
 3541TIP3   OH232113   2.847   2.164   1.780  0.4056 -0.0169 -0.2327
 3541TIP3    H132114   2.889   2.215   1.849 -1.1175 -0.6621  1.2523
 3541TIP3    H232115   2.870   2.073   1.800  1.8459 -0.0952 -1.9690
 3542TIP3   OH232116   2.658   0.768  13.207  0.3539  0.2519 -1.0374
 3542TIP3    H132117   2.618   0.729  13.129  0.1431 -0.7260 -0.4500
 3542TIP3    H232118   2.750   0.741  13.203 -0.2289 -2.2269  0.4999
 3543TIP3   OH232119   2.673   5.579   0.316 -0.5227  0.4173 -0.1667
 3543TIP3    H132120   2.676   5.631   0.396  2.0754  0.0468  0.0659
 3543TIP3    H232121   2.702   5.492   0.343  2.6789  0.8251 -1.7660
 3544TIP3   OH232122   2.781   4.161   0.914 -0.2401 -0.3641  0.0813
 3544TIP3    H132123   2.715   4.227   0.935  1.2712  0.3965  2.9408
 3544TIP3    H232124   2.752   4.083   0.961  0.1763 -0.4136  0.2638
 3545TIP3   OH232125   2.003   4.786   5.765 -0.1110  0.5634  0.0240
 3545TIP3    H132126   1.926   4.765   5.817  1.3742 -0.2199  2.0408
 3545TIP3    H232127   2.029   4.873   5.793  1.1421 -0.1656  1.2620
 3546TIP3   OH232128   6.788   3.345   0.994  0.0725  0.2574  0.0612
 3546TIP3    H132129   6.746   3.259   1.003  1.1841 -0.4572 -1.1616
 3546TIP3    H232130   6.744   3.385   0.919 -1.1336  1.2186  1.2365
 3547TIP3   OH232131   1.922   3.126   6.558 -0.4106 -0.2322  0.2210
 3547TIP3    H132132   1.995   3.112   6.619 -0.7555 -1.1497  0.4526
 3547TIP3    H232133   1.847   3.087   6.603 -0.9439  0.2784 -0.2228
 3548TIP3   OH232134   0.966   4.780  15.421  0.1282  0.8118  0.8302
 3548TIP3    H132135   1.006   4.773  15.508 -2.6157  1.4442  2.2342
 3548TIP3    H232136   0.925   4.695  15.406 -1.9404  1.6306  1.5473
 3549TIP3   OH232137   6.726   0.101   4.878 -0.3535  0.1426 -0.3132
 3549TIP3    H132138   6.790   0.072   4.814  0.2978  0.0689  0.3563
 3549TIP3    H232139   6.649   0.125   4.826 -0.2621 -1.0241 -1.0269
 3550TIP3   OH232140   1.867   0.949   0.140  0.5043  0.7095  0.3937
 3550TIP3    H132141   1.897   0.970   0.051 -1.1864  1.3425 -0.0722
 3550TIP3    H232142   1.782   0.906   0.126  0.1751  0.9000  1.7139
 3551TIP3   OH232143   4.237   0.641  11.067 -0.9019 -0.6152 -0.0898
 3551TIP3    H132144   4.290   0.719  11.085  1.0758 -2.3873  2.5703
 3551TIP3    H232145   4.147   0.669  11.084 -0.4491  1.4542 -0.7788
 3552TIP3   OH232146   1.171   6.279   3.206 -0.0095  0.4421 -0.4880
 3552TIP3    H132147   1.138   6.368   3.200 -0.2330  0.3579 -0.4983
 3552TIP3    H232148   1.227   6.269   3.129  1.1695  1.0525  0.2522
 3553TIP3   OH232149   1.392   4.111  12.823  0.2563 -0.2391  1.0344
 3553TIP3    H132150   1.419   4.187  12.873  0.1211  0.1789  0.4904
 3553TIP3    H232151   1.422   4.129  12.734 -1.5643  0.1591  0.4442
 3554TIP3   OH232152   4.090   6.606   6.018  0.8337 -0.2387  0.1450
 3554TIP3    H132153   4.098   6.688   5.970 -0.1842  0.1479  0.5992
 3554TIP3    H232154   3.998   6.580   6.007  0.8797 -0.7582  0.8812
 3555TIP3   OH232155   4.139   0.848   0.954 -0.1583  0.1510 -0.0829
 3555TIP3    H132156   4.105   0.839   1.043 -1.3555  0.3115 -0.5077
 3555TIP3    H232157   4.162   0.759   0.928 -0.1636  0.0528  0.2454
 3556TIP3   OH232158   2.238   6.066  17.108  0.3898 -0.2989 -0.0871
 3556TIP3    H132159   2.202   6.018  17.183  0.1079 -2.3756 -1.4733
 3556TIP3    H232160   2.193   6.029  17.032  0.0279  2.3368 -1.2745
 3557TIP3   OH232161   6.229   2.792  13.450 -0.4101 -0.5951 -0.6216
 3557TIP3    H132162   6.309   2.786  13.504 -0.8868  0.7201  0.2772
 3557TIP3    H232163   6.262   2.794  13.360  0.4588 -1.8930 -0.3699
 3558TIP3   OH232164   2.903   5.230  12.038 -0.3969  0.1036 -0.5104
 3558TIP3    H132165   2.887   5.321  12.011 -1.1505  0.4278  0.9512
 3558TIP3    H232166   2.922   5.236  12.131  0.1626 -1.1981 -0.5280
 3559TIP3   OH232167   3.361   0.025  11.926  0.2377  0.0031 -0.6939
 3559TIP3    H132168   3.398   0.093  11.982 -2.8084 -0.3668  2.0918
 3559TIP3    H232169   3.306   0.072  11.864 -2.7624  0.3212  1.9271
 3560TIP3   OH232170   0.398   4.812   4.460  0.2377  0.1499 -0.5171
 3560TIP3    H132171   0.323   4.769   4.418 -0.3263  0.9837 -0.4086
 3560TIP3    H232172   0.466   4.813   4.393 -0.5922  1.3128 -1.4015
 3561TIP3   OH232173   5.573   6.788   5.178  0.2340 -0.0028  0.5206
 3561TIP3    H132174   5.618   6.734   5.114  0.4087 -0.5918  1.1312
 3561TIP3    H232175   5.614   6.875   5.169 -0.0973  0.0591 -0.5073
 3562TIP3   OH232176   4.399   4.750  13.311 -0.1818  0.4634 -0.1960
 3562TIP3    H132177   4.392   4.831  13.361 -0.4033  1.4338 -1.7473
 3562TIP3    H232178   4.494   4.735  13.303 -0.1453 -0.2093  1.2748
 3563TIP3   OH232179   1.962   1.491  11.301  0.3397  0.2553  0.1105
 3563TIP3    H132180   2.016   1.533  11.234 -0.2521  0.7190 -0.0876
 3563TIP3    H232181   1.936   1.563  11.359 -1.8532  0.4868 -1.0173
 3564TIP3   OH232182   0.430   1.465   1.365  0.0334 -0.6734  0.1731
 3564TIP3    H132183   0.370   1.514   1.309  2.2111  1.6753 -0.2984
 3564TIP3    H232184   0.465   1.396   1.308  1.7125  1.2666 -1.2898
 3565TIP3   OH232185   0.982   2.636  15.263  0.1963  0.0978 -0.5153
 3565TIP3    H132186   1.040   2.709  15.285 -0.0302  0.5995 -1.5404
 3565TIP3    H232187   1.036   2.558  15.275  0.0843  0.2931  1.8597
 3566TIP3   OH232188   4.004   3.840   5.071  0.0812 -0.0521 -0.2602
 3566TIP3    H132189   4.056   3.906   5.116 -1.8768 -0.1215  2.3627
 3566TIP3    H232190   3.919   3.882   5.058 -0.9803 -1.7433  0.7969
 3567TIP3   OH232191   4.539   2.609  15.912 -0.1943 -0.4042  0.2210
 3567TIP3    H132192   4.460   2.556  15.913  0.3058 -1.1540  0.6169
 3567TIP3    H232193   4.571   2.603  15.822 -0.8889  0.3836 -0.0981
 3568TIP3   OH232194   1.110   1.515  14.205  0.2041  0.3129 -0.1611
 3568TIP3    H132195   1.022   1.478  14.213  0.0815  0.9954  3.1190
 3568TIP3    H232196   1.167   1.452  14.249  0.4140  2.3584  2.8193
 3569TIP3   OH232197   1.921   1.743  14.155  0.3570 -0.1458  0.1860
 3569TIP3    H132198   2.015   1.758  14.144  0.8820 -2.3889  1.0295
 3569TIP3    H232199   1.890   1.725  14.066  1.1523 -1.3579  0.1260
 3570TIP3   OH232200   5.876   2.701  14.534 -0.0536 -0.1101 -0.2433
 3570TIP3    H132201   5.891   2.742  14.620 -0.3704  2.2849 -1.2602
 3570TIP3    H232202   5.822   2.625  14.553 -2.1694  1.6776  1.5153
 3571TIP3   OH232203   5.174   1.904   1.427  0.2756  0.7622  0.2731
 3571TIP3    H132204   5.196   1.997   1.415 -0.2431  0.9175  0.4844
 3571TIP3    H232205   5.079   1.904   1.442  0.4902  0.3606  1.8950
 3572TIP3   OH232206   4.286   6.577   5.152 -0.6266 -0.1607  0.3710
 3572TIP3    H132207   4.327   6.662   5.140  0.7372 -0.4690  2.3855
 3572TIP3    H232208   4.297   6.533   5.068  0.6571  0.8459 -0.0162
 3573TIP3   OH232209   6.193   1.438   4.310 -0.1801  0.1470 -0.6971
 3573TIP3    H132210   6.105   1.453   4.274 -0.7538  1.6203  1.1949
 3573TIP3    H232211   6.250   1.495   4.259 -0.3027 -0.6396 -1.7743
 3574TIP3   OH232212   3.680   2.148   1.484  0.1179  0.4431  0.2208
 3574TIP3    H132213   3.749   2.090   1.452 -0.6002  0.9535 -2.4514
 3574TIP3    H232214   3.707   2.170   1.573  1.7079 -1.9250  0.4132
 3575TIP3   OH232215   3.782   4.518  14.223 -0.0361 -0.8832 -0.6783
 3575TIP3    H132216   3.845   4.499  14.153  0.1552 -0.6575 -0.5675
 3575TIP3    H232217   3.739   4.434  14.240  2.2946 -1.7942  1.3130
 3576TIP3   OH232218   3.350   4.849   2.050  0.5581 -0.2952 -0.5557
 3576TIP3    H132219   3.353   4.794   1.971 -0.2680 -1.7520  0.3711
 3576TIP3    H232220   3.392   4.796   2.117 -2.3411 -0.8985  0.9498
 3577TIP3   OH232221   5.557   4.452  10.962  0.1949  0.1406  0.3095
 3577TIP3    H132222   5.564   4.545  10.938  1.5070  0.2842  1.1543
 3577TIP3    H232223   5.469   4.427  10.933 -1.2859  2.3554  2.4075
 3578TIP3   OH232224   3.935   4.584   4.524 -0.4197  0.0960  0.1788
 3578TIP3    H132225   3.933   4.674   4.557  1.7500  0.1258  0.3548
 3578TIP3    H232226   3.927   4.529   4.602  1.6801  0.1766  0.5081
 3579TIP3   OH232227   0.420   0.480  12.164 -0.1630 -0.1001 -0.1213
 3579TIP3    H132228   0.487   0.433  12.213 -1.7963 -0.1061  2.2233
 3579TIP3    H232229   0.469   0.550  12.119  1.5217 -0.6904  0.7077
 3580TIP3   OH232230   1.531   1.014   0.503 -0.2860  0.3543  0.4359
 3580TIP3    H132231   1.621   1.044   0.490 -0.4949  0.0724 -2.0880
 3580TIP3    H232232   1.483   1.093   0.529  0.4405  0.7420  0.6299
 3581TIP3   OH232233   4.352   3.736  11.737 -0.2214  0.0453  0.3874
 3581TIP3    H132234   4.411   3.686  11.794  0.2809  0.9919  0.7208
 3581TIP3    H232235   4.279   3.677  11.721 -0.3855 -0.2480  2.0453
 3582TIP3   OH232236   5.189   1.340  15.915  0.4545 -0.4142  1.0478
 3582TIP3    H132237   5.159   1.347  16.006  2.3012  0.3434  1.6428
 3582TIP3    H232238   5.196   1.431  15.885  0.6798 -0.6336  0.4277
 3583TIP3   OH232239   5.400   4.288  16.574 -0.2771  0.1329  0.0095
 3583TIP3    H132240   5.488   4.324  16.582 -0.5571  0.7391  0.3503
 3583TIP3    H232241   5.399   4.213  16.634 -0.8348  1.7506  2.1366
 3584TIP3   OH232242   0.978   1.030  14.264  0.1691  0.2415 -0.1331
 3584TIP3    H132243   0.898   1.010  14.314 -0.0321 -2.3058 -1.2983
 3584TIP3    H232244   0.947   1.043  14.175  1.0490 -1.7326 -0.7962
 3585TIP3   OH232245   1.962   6.094  10.082  0.3450 -0.3262  0.0732
 3585TIP3    H132246   1.941   6.044  10.003 -0.6131  0.3554 -0.1140
 3585TIP3    H232247   2.002   6.030  10.141  1.9276 -0.6661 -1.2707
 3586TIP3   OH232248   6.095   6.082   3.657  0.5631  0.7723 -0.2351
 3586TIP3    H132249   6.155   6.062   3.585  1.8012 -4.2702  1.7623
 3586TIP3    H232250   6.146   6.139   3.715  2.7865 -1.6394  0.3669
 3587TIP3   OH232251   4.411   4.494   6.062 -0.0025 -0.2542  0.7060
 3587TIP3    H132252   4.335   4.487   6.120 -0.5670 -0.1342  0.0050
 3587TIP3    H232253   4.486   4.492   6.120 -0.5704  0.4977  1.5029
 3588TIP3   OH232254   5.572   5.102  15.313 -0.2900 -0.2551  0.2754
 3588TIP3    H132255   5.526   5.141  15.388 -1.6969  0.1280 -0.7411
 3588TIP3    H232256   5.532   5.144  15.237 -0.5826 -2.3507 -0.7896
 3589TIP3   OH232257   4.737   4.888   4.409 -0.0769  0.1306  0.2930
 3589TIP3    H132258   4.752   4.967   4.460 -0.6280  0.0552  0.5837
 3589TIP3    H232259   4.708   4.823   4.474 -3.1031  0.6699 -0.3673
 3590TIP3   OH232260   0.206   5.009  12.256 -0.2687  0.0320 -0.0790
 3590TIP3    H132261   0.155   4.991  12.177 -0.8057  0.8688  0.0631
 3590TIP3    H232262   0.276   5.067  12.226 -1.7321  2.1779  0.3862
 3591TIP3   OH232263   5.789   5.321   3.846  0.3682 -0.3522 -0.5213
 3591TIP3    H132264   5.778   5.408   3.885  1.0782  1.5202 -3.9656
 3591TIP3    H232265   5.710   5.273   3.869  0.8743  0.3170  3.2671
 3592TIP3   OH232266   5.655   2.983  16.369  0.2041 -0.3282  0.1277
 3592TIP3    H132267   5.750   2.978  16.379  0.2212  0.5251  0.4893
 3592TIP3    H232268   5.631   3.065  16.412 -0.5265  0.1592 -1.1540
 3593TIP3   OH232269   6.058   3.086   6.615 -0.7152  0.2602 -0.2600
 3593TIP3    H132270   6.141   3.083   6.567 -1.4825  0.8360 -1.6900
 3593TIP3    H232271   6.076   3.140   6.691 -0.1367  1.6725 -1.3458
 3594TIP3   OH232272   1.107   5.859   3.744 -0.1533  0.3179  0.1723
 3594TIP3    H132273   1.169   5.906   3.688  0.2907 -0.9490 -0.4375
 3594TIP3    H232274   1.031   5.917   3.748  0.0869  0.7728 -1.1425
 3595TIP3   OH232275   5.217   3.763   0.166 -0.3225  0.0103 -0.4689
 3595TIP3    H132276   5.252   3.842   0.125 -0.4658 -0.4818 -1.5750
 3595TIP3    H232277   5.222   3.780   0.260  1.0670  0.7114 -0.6585
 3596TIP3   OH232278   5.535   2.821  11.409 -0.2468 -0.0227  0.3183
 3596TIP3    H132279   5.623   2.853  11.428 -0.3797  0.3287  0.3560
 3596TIP3    H232280   5.483   2.900  11.397 -0.4474 -0.2353 -0.2212
 3597TIP3   OH232281   5.682   4.096  15.946  0.0457  0.1947  0.2710
 3597TIP3    H132282   5.595   4.074  15.978  0.2637 -0.5825  0.3490
 3597TIP3    H232283   5.706   4.175  15.995 -0.4480  0.1790  0.5422
 3598TIP3   OH232284   4.389   1.367  17.184 -0.2341  0.0017 -0.3593
 3598TIP3    H132285   4.464   1.343  17.239  0.0123 -0.3477 -0.8390
 3598TIP3    H232286   4.427   1.426  17.118 -0.4716  0.1769 -0.3398
 3599TIP3   OH232287   1.562   2.370  16.289 -0.2269 -0.8311  0.3054
 3599TIP3    H132288   1.649   2.339  16.317  0.4841  0.0444 -0.8256
 3599TIP3    H232289   1.527   2.414  16.366  0.7013 -0.4861  0.5551
 3600TIP3   OH232290   2.108   3.391  11.192 -0.3930  0.1034  0.0671
 3600TIP3    H132291   2.022   3.379  11.233 -1.6107  1.1334 -2.0404
 3600TIP3    H232292   2.133   3.304  11.161 -0.5756 -0.2298  0.8343
 3601TIP3   OH232293   2.950   2.354  14.469 -0.0671  0.0768  0.0229
 3601TIP3    H132294   3.027   2.410  14.465  1.0097 -1.3949 -1.5792
 3601TIP3    H232295   2.985   2.266  14.483 -1.6042 -0.3995  1.1474
 3602TIP3   OH232296   4.830   6.343  14.634  0.3450 -0.3118 -0.1338
 3602TIP3    H132297   4.818   6.249  14.616 -0.9658 -0.0817 -0.5958
 3602TIP3    H232298   4.802   6.386  14.553 -2.4661  0.6104  1.1760
 3603TIP3   OH232299   3.379   4.132   2.469 -1.0133  0.0373 -0.5052
 3603TIP3    H132300   3.384   4.102   2.379 -0.5746  0.2770 -0.5640
 3603TIP3    H232301   3.393   4.053   2.522 -0.4561  0.0341 -0.6536
 3604TIP3   OH232302   0.402   2.957   0.728 -0.8893 -0.7831  0.0908
 3604TIP3    H132303   0.475   2.897   0.716 -0.6855 -0.3122 -1.1651
 3604TIP3    H232304   0.427   3.012   0.802 -0.3361 -1.1501  0.1806
 3605TIP3   OH232305   4.846   1.358  16.365 -0.8945 -0.1319 -0.3216
 3605TIP3    H132306   4.930   1.389  16.329 -0.4797 -1.2278 -0.3324
 3605TIP3    H232307   4.785   1.429  16.346 -1.0370 -1.0671 -4.3907
 3606TIP3   OH232308   3.712   3.423  13.499 -0.1642 -0.4195 -0.2268
 3606TIP3    H132309   3.688   3.487  13.565 -0.9906  1.7281 -2.4702
 3606TIP3    H232310   3.630   3.402  13.455  0.4058 -1.5860 -0.7704
 3607TIP3   OH232311   3.058   0.023   3.652  0.2072  0.0738 -0.4278
 3607TIP3    H132312   3.136   0.073   3.677 -1.2309  1.2084  2.1763
 3607TIP3    H232313   3.010   0.081   3.593 -0.6641  1.1986  1.3110
 3608TIP3   OH232314   2.262   5.716   1.952 -0.3191 -0.5100 -0.2615
 3608TIP3    H132315   2.261   5.792   1.894  2.0600  0.3400  0.6879
 3608TIP3    H232316   2.268   5.641   1.893 -0.3517  0.1832 -1.1727
 3609TIP3   OH232317   4.096   0.575  10.785 -0.2441 -0.2589  0.8487
 3609TIP3    H132318   4.039   0.605  10.856 -2.5947 -1.6191 -0.3479
 3609TIP3    H232319   4.064   0.619  10.707  0.9541 -0.3709  0.2674
 3610TIP3   OH232320   5.243   0.332  15.858 -0.0697 -0.1767  0.9397
 3610TIP3    H132321   5.148   0.333  15.873 -0.5130  0.5144 -1.4330
 3610TIP3    H232322   5.266   0.425  15.848  0.3121 -0.4592 -1.1947
 3611TIP3   OH232323   2.389   5.863   1.389 -0.6360 -0.5230 -0.4996
 3611TIP3    H132324   2.438   5.892   1.312 -0.5723 -0.9863 -0.6327
 3611TIP3    H232325   2.386   5.768   1.381 -1.5871 -0.4977 -0.5062
 3612TIP3   OH232326   4.713   5.921  13.178 -0.3966  0.3870  0.4395
 3612TIP3    H132327   4.786   5.944  13.235 -0.8607  0.8173  0.8649
 3612TIP3    H232328   4.734   5.833  13.147 -0.8622 -0.4923  2.4586
 3613TIP3   OH232329   4.846   2.889  13.599  0.1735 -0.5114  0.2011
 3613TIP3    H132330   4.771   2.938  13.633 -1.5291 -1.7131 -1.5895
 3613TIP3    H232331   4.845   2.905  13.505  2.3026 -0.4497  0.1406
 3614TIP3   OH232332   5.636   5.802  11.260  0.2213  0.7491 -0.2029
 3614TIP3    H132333   5.712   5.751  11.289 -0.8016 -0.5510  0.3272
 3614TIP3    H232334   5.615   5.858  11.334  1.4962  2.1687 -0.8733
 3615TIP3   OH232335   6.515   6.085   4.357  0.0162 -0.0101 -0.0221
 3615TIP3    H132336   6.540   6.041   4.439  1.9110 -0.2652 -0.6791
 3615TIP3    H232337   6.459   6.022   4.312 -0.4959 -0.1382  0.7764
 3616TIP3   OH232338   2.896   6.339  10.477 -0.0682 -0.4732  0.3484
 3616TIP3    H132339   2.837   6.273  10.442 -0.0031 -0.4856  0.2638
 3616TIP3    H232340   2.872   6.419  10.431 -0.9394 -0.1702  1.2720
 3617TIP3   OH232341   4.241   0.315   0.737 -0.2617  0.0043 -0.2753
 3617TIP3    H132342   4.167   0.290   0.792  0.7825 -0.6006  0.9066
 3617TIP3    H232343   4.203   0.369   0.668 -2.0408 -1.6332 -0.6627
 3618TIP3   OH232344   3.698   5.421   1.868 -0.3404  0.4382 -0.1301
 3618TIP3    H132345   3.768   5.356   1.861  0.0525  0.8346  0.0909
 3618TIP3    H232346   3.739   5.497   1.910 -0.6656  1.0209 -0.8337
 3619TIP3   OH232347   0.725   2.421   5.769 -0.7621 -0.1959 -0.5350
 3619TIP3    H132348   0.721   2.487   5.839 -1.3508  1.8211 -2.3384
 3619TIP3    H232349   0.817   2.397   5.764 -0.4321  0.9254 -0.1796
 3620TIP3   OH232350   5.221   0.172   0.384 -0.1139  0.2670  0.3400
 3620TIP3    H132351   5.169   0.151   0.306  2.0781  0.3417 -1.2290
 3620TIP3    H232352   5.252   0.087   0.415  0.7329  0.3862 -0.1522
 3621TIP3   OH232353   4.927   6.021   0.176  0.3498 -0.3487 -0.1965
 3621TIP3    H132354   4.909   5.980   0.262 -2.6469  0.2370 -0.4329
 3621TIP3    H232355   4.951   6.111   0.197  0.6525 -0.4829  0.0510
 3622TIP3   OH232356   4.501   1.637  13.660  0.4133  0.0081 -0.7656
 3622TIP3    H132357   4.580   1.684  13.631  0.1740 -0.3316 -2.0311
 3622TIP3    H232358   4.435   1.705  13.670  0.0627 -0.0149 -2.6086
 3623TIP3   OH232359   0.014   1.433  17.014 -0.1831 -0.1211 -0.4181
 3623TIP3    H132360   0.072   1.380  17.069 -1.7199  0.5004  1.9182
 3623TIP3    H232361  -0.006   1.510  17.067 -3.1265 -0.2934 -1.1251
 3624TIP3   OH232362   1.351   1.626  11.542 -0.3752  0.1595 -0.0323
 3624TIP3    H132363   1.424   1.638  11.480 -1.5507  2.5857 -1.0745
 3624TIP3    H232364   1.382   1.666  11.623  1.1526 -2.9894  1.1239
 3625TIP3   OH232365   0.446   4.961   6.638  0.6403  0.8434 -0.0924
 3625TIP3    H132366   0.369   5.001   6.679 -1.8690 -1.9887 -1.5840
 3625TIP3    H232367   0.458   4.878   6.685  1.2755  0.1820 -1.3669
 3626TIP3   OH232368   5.403   0.848  16.756 -0.9857  0.0040  0.5386
 3626TIP3    H132369   5.381   0.941  16.749 -2.3591 -0.3293  0.0926
 3626TIP3    H232370   5.324   0.802  16.728 -0.3055 -1.3094  0.6687
 3627TIP3   OH232371   1.280   6.100  13.660 -0.1789 -0.4972  0.2475
 3627TIP3    H132372   1.230   6.026  13.625 -0.8223  0.2828 -0.5077
 3627TIP3    H232373   1.363   6.096  13.613 -1.9940  2.1828 -3.7210
 3628TIP3   OH232374   0.707   3.730  13.980 -0.2721  0.2534 -0.3408
 3628TIP3    H132375   0.732   3.753  14.069  0.8109 -0.2309 -0.5013
 3628TIP3    H232376   0.683   3.637  13.984 -0.6258  0.3368 -0.4753
 3629TIP3   OH232377   3.816   3.529  13.917  0.0144 -0.0658 -0.0564
 3629TIP3    H132378   3.738   3.518  13.864 -0.8535 -0.6298  1.2688
 3629TIP3    H232379   3.820   3.623  13.935 -0.4828 -0.0574  0.0269
 3630TIP3   OH232380   0.350   6.707   1.759  0.0174 -0.3263 -0.0099
 3630TIP3    H132381   0.377   6.646   1.690  0.5797 -2.0340  1.6232
 3630TIP3    H232382   0.405   6.784   1.746 -0.4252 -0.2819 -1.9058
 3631TIP3   OH232383   0.335   2.125   2.997 -0.1716  0.4629  0.1598
 3631TIP3    H132384   0.252   2.092   3.032 -0.7198  0.9123 -0.6769
 3631TIP3    H232385   0.339   2.216   3.027  0.3771  0.2367  0.7989
 3632TIP3   OH232386   1.632   3.041  11.391  0.3213 -0.2229 -0.0817
 3632TIP3    H132387   1.695   3.079  11.453  1.4844 -0.5835 -1.0030
 3632TIP3    H232388   1.651   3.086  11.308 -0.8315 -0.1475 -0.3115
 3633TIP3   OH232389   1.800   5.694  13.397  0.2284 -0.1708  0.2267
 3633TIP3    H132390   1.785   5.781  13.359 -0.8351  1.3603  3.7073
 3633TIP3    H232391   1.854   5.711  13.475  0.3959 -2.7121  0.7426
 3634TIP3   OH232392   5.378   0.370   0.270 -0.0712 -0.4472  0.2123
 3634TIP3    H132393   5.445   0.342   0.208  0.3375 -0.2605  0.5703
 3634TIP3    H232394   5.331   0.289   0.292  2.9283 -1.5537  3.4999
 3635TIP3   OH232395   1.134   6.424   1.560 -0.7330  0.1708 -0.4446
 3635TIP3    H132396   1.046   6.388   1.564 -1.0012  0.8745  0.7886
 3635TIP3    H232397   1.165   6.421   1.651  1.1837 -1.6093 -1.0655
 3636TIP3   OH232398   6.779   5.753  10.336  0.3601 -0.6452  0.6193
 3636TIP3    H132399   6.691   5.791  10.337  0.1284 -1.1732  1.6004
 3636TIP3    H232400   6.831   5.815  10.285 -0.7080 -0.6344 -0.5067
 3637TIP3   OH232401   2.365   3.283   4.881 -0.0885 -0.7283 -0.0672
 3637TIP3    H132402   2.388   3.329   4.801 -0.0083 -1.1021 -0.2644
 3637TIP3    H232403   2.385   3.344   4.951  0.2609 -0.5614 -0.3102
 3638TIP3   OH232404   1.694   1.811   3.819 -0.1725  0.4758  0.4030
 3638TIP3    H132405   1.710   1.721   3.794 -0.9796  0.9255 -1.9194
 3638TIP3    H232406   1.678   1.857   3.737 -0.7009  2.5592  1.5932
 3639TIP3   OH232407   5.888   0.381   3.168 -0.7992  0.5094  0.1039
 3639TIP3    H132408   5.907   0.364   3.076 -0.4070 -1.5977  0.5271
 3639TIP3    H232409   5.815   0.442   3.167  0.6948  2.3980 -1.5722
 3640TIP3   OH232410   4.876   3.161  16.757  0.1831 -0.2843 -0.3078
 3640TIP3    H132411   4.786   3.193  16.765  0.5830  0.5864  1.1919
 3640TIP3    H232412   4.868   3.066  16.758 -0.7033 -0.2175  0.3788
 3641TIP3   OH232413   0.767   6.235   5.196  0.2603  0.1118  0.1086
 3641TIP3    H132414   0.788   6.316   5.243  1.2968  0.3540 -0.7359
 3641TIP3    H232415   0.715   6.184   5.259  0.4250  1.0099  1.0085
 3642TIP3   OH232416   3.766   2.291   3.943  0.2003  0.2493 -0.1316
 3642TIP3    H132417   3.730   2.210   3.980 -2.5531  0.3309 -2.3202
 3642TIP3    H232418   3.828   2.261   3.877 -2.0737 -0.3172 -2.1858
 3643TIP3   OH232419   0.898   6.323   0.274 -0.9521 -0.4646 -1.1157
 3643TIP3    H132420   0.927   6.232   0.273  1.5785  0.1623  1.3360
 3643TIP3    H232421   0.892   6.347   0.181  0.6190 -2.4982 -1.8226
 3644TIP3   OH232422   5.695   0.152   3.235  0.4064  0.0078  0.2503
 3644TIP3    H132423   5.714   0.155   3.141  0.8345 -0.5314  0.3166
 3644TIP3    H232424   5.764   0.205   3.275  0.3864  0.0065  0.2860
 3645TIP3   OH232425   4.788   3.209  15.780  0.1146  0.5553 -0.9159
 3645TIP3    H132426   4.805   3.263  15.856  0.4426 -0.5984 -0.1421
 3645TIP3    H232427   4.715   3.153  15.806  0.1993  0.1748 -1.4681
 3646TIP3   OH232428   4.301   0.293   3.423 -0.8410  0.5652 -0.3340
 3646TIP3    H132429   4.257   0.324   3.502 -1.1861  0.1986 -0.3806
 3646TIP3    H232430   4.392   0.279   3.450 -0.9837  0.3279  0.0302
 3647TIP3   OH232431   5.791   6.383  11.039 -0.0539 -0.3212 -0.2608
 3647TIP3    H132432   5.848   6.406  10.966  1.7983 -1.5598  0.7071
 3647TIP3    H232433   5.802   6.289  11.050 -1.7584 -0.4804  0.4580
 3648TIP3   OH232434   1.758   3.667   5.551 -0.5433 -0.4944 -0.1292
 3648TIP3    H132435   1.797   3.629   5.630 -0.1871  0.4658  0.1824
 3648TIP3    H232436   1.829   3.718   5.512 -0.2877 -2.0675 -1.8723
 3649TIP3   OH232437   6.468   6.083   1.823 -0.0505  0.4124 -0.0824
 3649TIP3    H132438   6.441   6.039   1.904  1.4032  0.3386  0.3916
 3649TIP3    H232439   6.488   6.172   1.850  1.1455  0.1988 -0.1846
 3650TIP3   OH232440   0.313   2.663  14.070  0.1607  0.3327  0.1104
 3650TIP3    H132441   0.354   2.671  13.984 -0.4362  0.1615 -0.1929
 3650TIP3    H232442   0.372   2.710  14.129  1.1876 -0.5500 -0.1846
 3651TIP3   OH232443   5.310   2.951  12.475 -0.1574  0.2954  0.1031
 3651TIP3    H132444   5.366   3.016  12.517  0.3174 -0.5251  0.7724
 3651TIP3    H232445   5.297   2.985  12.386 -1.0112  1.9501  0.8180
 3652TIP3   OH232446   5.610   4.579   5.258 -0.1578  0.1021  0.6845
 3652TIP3    H132447   5.616   4.511   5.191 -0.5918  1.0868 -0.3910
 3652TIP3    H232448   5.629   4.534   5.340 -0.6371 -1.3495  0.0245
 3653TIP3   OH232449   3.905   4.945   3.456 -0.0827  0.0662  0.7458
 3653TIP3    H132450   3.976   4.883   3.472 -0.2491 -0.6083 -0.9327
 3653TIP3    H232451   3.830   4.909   3.504 -0.0376 -0.7688  0.2021
 3654TIP3   OH232452   5.805   6.394  15.864 -0.1826  0.4560  0.0359
 3654TIP3    H132453   5.718   6.357  15.872 -0.4533  1.1491  0.3849
 3654TIP3    H232454   5.792   6.477  15.818  0.0532  1.4051  1.6213
 3655TIP3   OH232455   0.819   3.486  12.152 -0.1766 -0.4242 -0.0208
 3655TIP3    H132456   0.806   3.551  12.221  0.8304 -2.6199  2.3684
 3655TIP3    H232457   0.732   3.450  12.136 -0.4957  0.4428 -0.3154
 3656TIP3   OH232458   5.502   2.645   3.189 -0.0969  1.0503  0.1579
 3656TIP3    H132459   5.504   2.648   3.093  3.1948 -0.9837  0.0206
 3656TIP3    H232460   5.408   2.644   3.211 -1.1429 -2.5272 -3.2950
 3657TIP3   OH232461   0.420   4.168   4.281 -0.1580  0.1056  0.1126
 3657TIP3    H132462   0.400   4.216   4.361  2.2248  0.0722  0.7814
 3657TIP3    H232463   0.351   4.194   4.220  0.3521  3.5023  0.7983
 3658TIP3   OH232464   0.896   1.051   5.944  0.0370 -0.7215 -0.2042
 3658TIP3    H132465   0.867   1.130   5.989  0.8543  1.3363 -2.9944
 3658TIP3    H232466   0.836   1.041   5.870  0.5482 -2.1311 -0.4715
 3659TIP3   OH232467   1.613   4.723  15.810  0.7962  0.5369 -0.3156
 3659TIP3    H132468   1.517   4.719  15.814  0.7356  2.1696  0.6406
 3659TIP3    H232469   1.638   4.644  15.763 -1.0066 -0.0691 -0.3313
 3660TIP3   OH232470   5.191   1.500  16.682 -0.0674 -0.0019 -0.2030
 3660TIP3    H132471   5.221   1.550  16.606  1.9641  0.4817  0.8471
 3660TIP3    H232472   5.097   1.488  16.668  0.1146  0.7671 -2.3741
 3661TIP3   OH232473   6.105   5.242  12.944  0.3108  0.0171  0.5658
 3661TIP3    H132474   6.051   5.224  12.867  0.7013 -1.0462  0.5325
 3661TIP3    H232475   6.075   5.328  12.974  0.2370  0.5214 -0.8411
 3662TIP3   OH232476   0.928   4.236  11.358  0.2574  0.4277 -0.1622
 3662TIP3    H132477   0.987   4.272  11.291 -1.6308 -0.5632 -2.4913
 3662TIP3    H232478   0.859   4.302  11.367  0.3434  0.4139  0.6041
 3663TIP3   OH232479   0.366   0.601  15.428 -0.2042  0.1722 -0.0817
 3663TIP3    H132480   0.316   0.683  15.434  1.2010  1.0383  0.2647
 3663TIP3    H232481   0.428   0.616  15.357  0.7004 -0.2293  0.6087
 3664TIP3   OH232482   3.485   4.557  13.712  0.2045  0.0098 -0.7476
 3664TIP3    H132483   3.493   4.618  13.785  0.8244 -1.0149  0.0768
 3664TIP3    H232484   3.506   4.608  13.635 -1.0111  1.2647 -0.2901
 3665TIP3   OH232485   0.523   1.057   4.212 -0.1883 -0.7954 -0.0705
 3665TIP3    H132486   0.473   1.097   4.141  0.3427  1.1170  0.5902
 3665TIP3    H232487   0.609   1.098   4.207 -1.0660  1.9897  3.6846
 3666TIP3   OH232488   3.720   0.010  11.525  0.1502 -0.4547 -0.1691
 3666TIP3    H132489   3.810   0.035  11.502  0.3226 -2.5776 -2.2838
 3666TIP3    H232490   3.690   0.079  11.583  2.5435  1.2631 -0.7902
 3667TIP3   OH232491   1.584   3.754   2.952 -0.0385  0.1977  0.4798
 3667TIP3    H132492   1.496   3.782   2.976 -0.1153 -0.1428  0.5997
 3667TIP3    H232493   1.633   3.758   3.035  0.1476  0.7075  0.3513
 3668TIP3   OH232494   1.224   4.552   0.527  0.0889 -0.6746  0.1395
 3668TIP3    H132495   1.244   4.645   0.539  0.1087 -0.8864  1.9424
 3668TIP3    H232496   1.140   4.552   0.481  0.3896  0.2200 -0.4495
 3669TIP3   OH232497   3.368   6.528  11.069  0.0004 -0.3466 -0.1707
 3669TIP3    H132498   3.278   6.494  11.067 -0.5536  1.0925 -0.7371
 3669TIP3    H232499   3.419   6.466  11.017 -0.3830 -1.8865  1.2098
 3670TIP3   OH232500   6.071   3.365  16.996  0.0064 -0.7632 -0.4535
 3670TIP3    H132501   6.010   3.406  17.056  0.4856 -0.5518 -0.1087
 3670TIP3    H232502   6.099   3.284  17.040  2.8992  0.9495  1.1765
 3671TIP3   OH232503   6.665   1.082  14.540  0.2396 -0.2449  0.1248
 3671TIP3    H132504   6.570   1.089  14.531  0.2712 -0.6891 -0.7081
 3671TIP3    H232505   6.680   0.996  14.578  0.3439 -0.6809 -0.8598
 3672TIP3   OH232506   1.808   3.815   1.837  0.1078  0.7756 -0.0521
 3672TIP3    H132507   1.795   3.862   1.920 -2.0751 -0.1107  0.1736
 3672TIP3    H232508   1.761   3.867   1.772  2.7395  2.0920 -1.0763
 3673TIP3   OH232509   6.559   4.927   4.092 -0.3981  0.0402 -0.7798
 3673TIP3    H132510   6.524   4.852   4.045 -0.3205 -1.8549  1.9350
 3673TIP3    H232511   6.482   4.980   4.115 -1.0233 -1.4422  0.7879
 3674TIP3   OH232512   1.798   1.584   3.213  0.0718  0.0018  0.2131
 3674TIP3    H132513   1.732   1.523   3.182  0.0304  0.4852 -0.6761
 3674TIP3    H232514   1.867   1.529   3.250 -0.2412 -0.5533 -0.0227
 3675TIP3   OH232515   2.930   2.448   6.009  0.3342  0.7780  0.4838
 3675TIP3    H132516   2.917   2.504   5.932  1.5726  0.7661  0.2400
 3675TIP3    H232517   3.025   2.433   6.011  0.0301 -1.4591  0.4382
 3676TIP3   OH232518   0.652   1.139  16.275  0.7492  0.4047 -0.0622
 3676TIP3    H132519   0.648   1.044  16.265  0.7090  0.2974  0.8953
 3676TIP3    H232520   0.685   1.152  16.364  0.3654  1.2891 -0.0450
 3677TIP3   OH232521   0.286   6.217  15.242 -0.5921 -0.6595 -0.5818
 3677TIP3    H132522   0.211   6.171  15.203 -0.3074 -2.6373  1.0788
 3677TIP3    H232523   0.362   6.165  15.217  0.0144  0.1427 -0.4563
 3678TIP3   OH232524   5.671   3.940  14.808 -0.3910  0.3595 -0.0613
 3678TIP3    H132525   5.636   4.005  14.870  1.8837  1.0579  0.5792
 3678TIP3    H232526   5.690   3.864  14.862 -0.3698  0.1968 -0.2997
 3679TIP3   OH232527   4.356   2.854   4.305  0.2731 -0.1520  0.4906
 3679TIP3    H132528   4.361   2.931   4.362  3.3825 -0.4534  0.7606
 3679TIP3    H232529   4.334   2.782   4.363  1.1420 -0.0790  0.9173
 3680TIP3   OH232530   1.909   3.325  16.868  0.2580  0.1382  1.0765
 3680TIP3    H132531   1.975   3.376  16.915  2.4445 -0.9920 -0.5613
 3680TIP3    H232532   1.959   3.275  16.803 -2.1532 -1.4174  0.2690
 3681TIP3   OH232533   5.417   6.108  14.555 -0.0286  0.0644  0.4525
 3681TIP3    H132534   5.425   6.076  14.465  0.1504 -0.0789  0.5197
 3681TIP3    H232535   5.409   6.203  14.546  0.8556  0.1339  0.3316
 3682TIP3   OH232536   1.435   6.504   5.086  0.1705  0.3959  0.2736
 3682TIP3    H132537   1.361   6.510   5.026 -0.8768  0.6922  1.5601
 3682TIP3    H232538   1.455   6.410   5.091 -1.5607  0.0432  1.5662
 3683TIP3   OH232539   6.662   2.973   5.852 -0.4895  0.4800  0.2780
 3683TIP3    H132540   6.578   2.951   5.894 -0.8940  0.7058 -0.3957
 3683TIP3    H232541   6.638   3.034   5.783 -0.3248 -2.3173 -2.4683
 3684TIP3   OH232542   4.558   5.892   1.996 -0.0371  0.3576  0.1771
 3684TIP3    H132543   4.637   5.865   2.044  1.8019  0.6138 -2.4914
 3684TIP3    H232544   4.570   5.986   1.981 -1.4952  0.6614  0.8092
 3685TIP3   OH232545   1.817   3.251   2.101 -0.9243 -0.7066 -0.4040
 3685TIP3    H132546   1.898   3.299   2.117 -1.9703  1.1482 -0.4153
 3685TIP3    H232547   1.784   3.286   2.018 -1.6522 -1.5737 -0.5022
 3686TIP3   OH232548   2.450   4.318  16.051  0.1001 -0.4140 -0.0960
 3686TIP3    H132549   2.514   4.297  15.983  1.1506 -1.1388  1.0814
 3686TIP3    H232550   2.496   4.377  16.110 -0.3069 -0.9356  0.7653
 3687TIP3   OH232551   5.227   0.471  14.447 -0.8748 -0.0750  0.4941
 3687TIP3    H132552   5.240   0.525  14.525 -0.4557 -0.2415  0.5441
 3687TIP3    H232553   5.316   0.445  14.422 -1.0322 -0.2635  0.1331
 3688TIP3   OH232554   4.639   0.095  14.474 -0.9876 -0.0234  0.3459
 3688TIP3    H132555   4.643   0.182  14.435  1.1593  0.2787  1.1142
 3688TIP3    H232556   4.694   0.040  14.419 -0.0645 -0.2026  1.3931
 3689TIP3   OH232557   4.490   5.366   2.677 -0.3659 -0.5454  0.1921
 3689TIP3    H132558   4.558   5.402   2.734 -0.7555 -0.5984  0.6962
 3689TIP3    H232559   4.433   5.316   2.736 -0.0914 -1.6092 -0.4170
 3690TIP3   OH232560   5.262   4.918  15.620 -0.1592  0.0948  0.1981
 3690TIP3    H132561   5.270   4.947  15.710 -0.4421  2.6134 -0.5243
 3690TIP3    H232562   5.184   4.861  15.620 -0.3390  0.3159  1.4569
 3691TIP3   OH232563   3.652   4.149   2.454  0.0203 -0.1993  0.0860
 3691TIP3    H132564   3.560   4.144   2.477  0.0065 -0.1688  0.0369
 3691TIP3    H232565   3.663   4.234   2.412 -0.3087 -0.9088 -1.5338
 3692TIP3   OH232566   0.911   5.586  10.024 -0.4438  0.1847  0.2959
 3692TIP3    H132567   0.999   5.616  10.001 -0.1187 -0.7801  0.2441
 3692TIP3    H232568   0.874   5.658  10.076  0.3623  0.6108  0.2981
 3693TIP3   OH232569   1.593   6.359  13.275 -0.0389  1.1634 -0.9883
 3693TIP3    H132570   1.595   6.438  13.329 -2.9338 -0.1952  1.3836
 3693TIP3    H232571   1.602   6.287  13.337  1.2596 -0.4603 -2.9434
 3694TIP3   OH232572   1.892   2.793  15.126 -0.0907 -0.1252  0.3560
 3694TIP3    H132573   1.910   2.733  15.198 -1.3488 -0.4072  0.4659
 3694TIP3    H232574   1.814   2.757  15.084  0.3852  0.2569 -0.9073
 3695TIP3   OH232575   6.019   3.107  15.465  0.1263 -0.0470 -0.0793
 3695TIP3    H132576   6.040   3.188  15.418 -2.3216  0.3786 -0.6046
 3695TIP3    H232577   6.023   3.039  15.398  1.4569 -0.2679  0.2033
 3696TIP3   OH232578   6.270   4.093  11.752 -0.1227  0.3782  0.2492
 3696TIP3    H132579   6.291   4.176  11.709 -1.6332  0.7452  0.1826
 3696TIP3    H232580   6.355   4.054  11.770  0.5948  1.0432 -1.4598
 3697TIP3   OH232581   2.678   4.806   3.578  0.3273  0.5452  0.0330
 3697TIP3    H132582   2.639   4.770   3.499  1.3736  0.1410 -0.3160
 3697TIP3    H232583   2.678   4.901   3.564  1.4559  0.4246 -0.9261
 3698TIP3   OH232584   6.515   2.410  16.032 -0.4101  0.3369  0.3919
 3698TIP3    H132585   6.507   2.395  16.126 -2.5762 -2.1907 -0.0883
 3698TIP3    H232586   6.479   2.331  15.992  3.3314 -0.1299 -2.6121
 3699TIP3   OH232587   6.474   1.904  15.514  0.1308 -0.9360  0.3602
 3699TIP3    H132588   6.550   1.962  15.512 -1.0993  0.7666 -0.6501
 3699TIP3    H232589   6.503   1.828  15.563  2.5062 -0.4134 -0.0799
 3700TIP3   OH232590   1.990   4.293  11.329  0.2876 -0.0097 -0.0053
 3700TIP3    H132591   2.045   4.362  11.366 -0.1021 -0.0642  0.6845
 3700TIP3    H232592   1.973   4.233  11.401 -0.4157 -0.1622 -0.2828
 3701TIP3   OH232593   4.057   1.441  12.848 -0.0652  0.2646 -0.3453
 3701TIP3    H132594   4.079   1.493  12.926  0.4595  0.2815 -0.5031
 3701TIP3    H232595   4.114   1.365  12.854  1.7150  1.4055 -1.9559
 3702TIP3   OH232596   6.649   5.421   5.449  0.5862  0.2096  0.1244
 3702TIP3    H132597   6.564   5.383   5.426  0.9288 -0.8293  0.5249
 3702TIP3    H232598   6.689   5.443   5.365 -0.0212  0.5819 -0.0750
 3703TIP3   OH232599   0.619   5.336  15.114 -0.2237  0.6174 -0.0133
 3703TIP3    H132600   0.538   5.382  15.133 -1.3365 -0.6532 -1.4656
 3703TIP3    H232601   0.667   5.395  15.055 -0.0324  1.3894  0.8863
 3704TIP3   OH232602   3.310   0.857  11.488 -0.2232  0.0637 -0.6614
 3704TIP3    H132603   3.350   0.835  11.572 -0.6484  1.0087 -0.2004
 3704TIP3    H232604   3.330   0.950  11.476 -2.2415  0.5823 -0.4149
 3705TIP3   OH232605   0.566   3.359   1.317  0.7894 -0.0860 -0.4415
 3705TIP3    H132606   0.584   3.453   1.306  0.4572 -0.1641 -1.7762
 3705TIP3    H232607   0.497   3.356   1.382  0.0288  0.6768 -1.1895
 3706TIP3   OH232608   2.684   6.092  14.733  0.1310 -0.1733 -0.2087
 3706TIP3    H132609   2.679   6.083  14.828 -1.9175 -1.0687 -0.3290
 3706TIP3    H232610   2.764   6.047  14.708  1.0439  0.6508  1.1350
 3707TIP3   OH232611   4.432   2.282  13.495 -0.3028  0.2557 -0.1901
 3707TIP3    H132612   4.443   2.187  13.487  0.3421  0.2338  0.7182
 3707TIP3    H232613   4.388   2.308  13.415 -1.4468 -0.9678 -0.0040
 3708TIP3   OH232614   5.653   6.686   2.694 -0.1773 -0.4550 -0.2593
 3708TIP3    H132615   5.630   6.641   2.776  1.1589 -0.2338  0.2595
 3708TIP3    H232616   5.666   6.616   2.631  1.6560 -0.8162  0.4850
 3709TIP3   OH232617   5.023   1.882   3.115  0.2562 -0.1164  0.0653
 3709TIP3    H132618   4.948   1.860   3.171 -0.1349 -1.2323 -0.8523
 3709TIP3    H232619   5.090   1.912   3.176  0.2701 -2.4222  1.3179
 3710TIP3   OH232620   3.076   0.172   0.319 -0.4342  0.4133 -0.2354
 3710TIP3    H132621   3.081   0.226   0.398 -1.3433  1.3623 -0.8138
 3710TIP3    H232622   3.009   0.213   0.265  0.1649 -0.2212 -1.5142
 3711TIP3   OH232623   5.487   0.303   5.819  0.3506  0.2163  0.1412
 3711TIP3    H132624   5.462   0.293   5.727  0.1157  0.6488  0.1528
 3711TIP3    H232625   5.535   0.386   5.821  2.9510 -1.1744 -0.1159
 3712TIP3   OH232626   3.053   1.268  12.910  0.3601 -0.2743  0.3176
 3712TIP3    H132627   3.077   1.243  13.000  0.5908  0.7188  0.5492
 3712TIP3    H232628   2.978   1.213  12.889 -0.0551 -0.1215  1.3368
 3713TIP3   OH232629   0.610   5.784  16.342  0.0473  0.3497  0.6211
 3713TIP3    H132630   0.621   5.804  16.249  0.1311 -2.1238  0.0346
 3713TIP3    H232631   0.687   5.732  16.365 -0.3429  0.2928  1.9044
 3714TIP3   OH232632   3.296   1.721  16.621 -0.4034 -0.7290  0.1090
 3714TIP3    H132633   3.323   1.651  16.680  0.6020  1.0503  1.9129
 3714TIP3    H232634   3.333   1.800  16.660 -1.0239  0.7503 -2.1255
 3715TIP3   OH232635   1.269   5.020   5.257  0.2215 -0.1870  0.6289
 3715TIP3    H132636   1.247   5.087   5.321  1.8716  2.0263 -0.9244
 3715TIP3    H232637   1.362   5.002   5.272  0.0015 -1.5348  0.4840
 3716TIP3   OH232638   5.595   5.735   4.483 -0.0602 -0.0677  0.0431
 3716TIP3    H132639   5.598   5.643   4.509 -0.6373  0.0757  0.6475
 3716TIP3    H232640   5.686   5.764   4.485  0.2777 -0.9305 -1.3362
 3717TIP3   OH232641   6.807   4.157   2.486  0.5564 -0.0045  0.2194
 3717TIP3    H132642   6.855   4.188   2.409  2.1513 -0.7854  0.8656
 3717TIP3    H232643   6.795   4.063   2.469 -0.8105  0.1783  0.0579
 3718TIP3   OH232644   1.264   0.902  12.638 -0.2809 -0.0600 -0.1520
 3718TIP3    H132645   1.196   0.922  12.702  0.4081 -0.5786  0.7846
 3718TIP3    H232646   1.219   0.895  12.554 -1.5330 -1.2990  0.5825
 3719TIP3   OH232647   4.106   0.722  14.489 -0.2743 -0.0117 -0.1169
 3719TIP3    H132648   4.043   0.701  14.420 -0.4383  1.0104 -0.2991
 3719TIP3    H232649   4.054   0.726  14.569 -0.3644  0.3304 -0.1888
 3720TIP3   OH232650   5.578   4.048   3.065  0.6046 -0.1790  0.1172
 3720TIP3    H132651   5.625   4.048   2.982 -0.0993 -1.1349 -0.2998
 3720TIP3    H232652   5.493   4.008   3.045  0.2104  0.0958  1.1729
 3721TIP3   OH232653   1.447   2.851   0.204  0.1319 -0.7217  0.0357
 3721TIP3    H132654   1.509   2.909   0.248 -0.0592 -0.3793 -0.1435
 3721TIP3    H232655   1.494   2.821   0.126 -0.4369  0.7102 -0.9015
 3722TIP3   OH232656   6.389   1.042  11.581 -0.3389  0.4293 -0.3765
 3722TIP3    H132657   6.391   1.121  11.526  0.2713  0.3103 -0.5335
 3722TIP3    H232658   6.400   0.970  11.520  0.3530  0.2982 -0.1079
 3723TIP3   OH232659   4.684   0.603  16.461 -0.4568 -0.2721 -0.0930
 3723TIP3    H132660   4.660   0.563  16.378  1.1988 -2.4672  0.3668
 3723TIP3    H232661   4.655   0.540  16.527  3.8642 -1.9554  0.5842
 3724TIP3   OH232662   2.065   4.160  15.126 -0.5545  0.0985  0.5163
 3724TIP3    H132663   2.074   4.074  15.167 -0.7788 -0.2003 -0.0463
 3724TIP3    H232664   2.052   4.141  15.033 -2.3201  0.6519  0.6128
 3725TIP3   OH232665   1.811   5.039  10.866 -0.3658 -0.6037  0.2739
 3725TIP3    H132666   1.892   5.059  10.913 -0.9531  0.8859  0.7268
 3725TIP3    H232667   1.800   4.944  10.873  1.2329 -0.7976  0.3582
 3726TIP3   OH232668   6.500   5.989   6.702 -0.0583 -0.4343  0.0432
 3726TIP3    H132669   6.470   5.915   6.754 -0.9426 -0.8331 -1.0014
 3726TIP3    H232670   6.579   5.956   6.658  0.1247 -0.4221  0.3617
 3727TIP3   OH232671   5.734   5.431  12.585 -0.1848 -0.2426  0.0687
 3727TIP3    H132672   5.783   5.376  12.523  2.2829  0.5375  1.2205
 3727TIP3    H232673   5.725   5.515  12.539 -0.0458 -0.2525  0.0209
 3728TIP3   OH232674   6.760   4.582  11.590 -0.2071  0.3607  0.1800
 3728TIP3    H132675   6.790   4.521  11.522  2.0625 -0.0941  1.4887
 3728TIP3    H232676   6.815   4.563  11.665 -0.8886  2.6122  1.3377
 3729TIP3   OH232677   0.912   3.855  15.496  0.0028  0.0289 -0.0846
 3729TIP3    H132678   0.976   3.862  15.426  0.5453 -0.4432  0.3446
 3729TIP3    H232679   0.827   3.862  15.453  0.3348  0.0904 -0.7378
 3730TIP3   OH232680   2.259   5.307   2.225 -0.6691  0.0722  0.2220
 3730TIP3    H132681   2.188   5.316   2.161 -1.2334 -0.8404  0.6973
 3730TIP3    H232682   2.319   5.378   2.205 -2.3827  1.7145  0.6562
 3731TIP3   OH232683   3.185   0.627   4.520  0.1546 -0.4018  0.6312
 3731TIP3    H132684   3.165   0.534   4.521  1.2835 -0.6808  3.0206
 3731TIP3    H232685   3.254   0.638   4.585 -0.9417  2.3084  1.5055
 3732TIP3   OH232686   3.649   5.405   4.711 -0.0656 -0.0699  0.1418
 3732TIP3    H132687   3.681   5.329   4.662 -2.0821  0.0498 -1.4923
 3732TIP3    H232688   3.571   5.373   4.756 -0.2192  0.7214  0.4519
 3733TIP3   OH232689   1.786   3.559   1.052  0.0296 -0.3003 -0.9259
 3733TIP3    H132690   1.802   3.530   0.962 -1.3479 -0.3557 -1.1681
 3733TIP3    H232691   1.717   3.501   1.084 -1.0267  1.0915 -0.5835
 3734TIP3   OH232692   5.527   2.127   3.653  0.0171 -0.1872  0.4984
 3734TIP3    H132693   5.560   2.164   3.571  2.2215 -0.3581  1.2381
 3734TIP3    H232694   5.481   2.200   3.696 -1.3832 -0.1725 -0.9584
 3735TIP3   OH232695   4.433   4.043   3.898  0.8656 -0.0918  0.2219
 3735TIP3    H132696   4.353   4.056   3.847  1.9100 -0.0857 -1.5219
 3735TIP3    H232697   4.421   3.958   3.941  0.3116 -0.5498 -0.8026
 3736TIP3   OH232698   3.111   1.450   3.795  0.3888 -0.1234  0.3611
 3736TIP3    H132699   3.036   1.412   3.839 -0.4428  1.0902  0.0478
 3736TIP3    H232700   3.090   1.443   3.702  0.7866 -0.0431  0.2640
 3737TIP3   OH232701   1.828   3.207   1.638  0.2238  0.4222  0.0889
 3737TIP3    H132702   1.736   3.197   1.615  0.8199 -1.1981 -1.8797
 3737TIP3    H232703   1.827   3.238   1.728 -2.2382  1.0027 -0.0732
 3738TIP3   OH232704   1.046   0.427   0.203  0.7393  0.1047 -0.2822
 3738TIP3    H132705   0.991   0.471   0.268 -0.1212 -1.2335 -0.0581
 3738TIP3    H232706   0.997   0.435   0.121  1.3624  0.9538 -0.5829
 3739TIP3   OH232707   2.098   2.804  13.728  0.5493 -0.5732  0.0900
 3739TIP3    H132708   2.127   2.786  13.639  0.4399 -1.2469  0.1896
 3739TIP3    H232709   2.012   2.764  13.735  1.0308 -1.5049  0.8413
 3740TIP3   OH232710   5.412   0.923  11.381 -0.0469 -0.3504 -0.1196
 3740TIP3    H132711   5.423   0.908  11.287 -0.5941  1.3915 -0.5013
 3740TIP3    H232712   5.445   0.843  11.422  4.1541  0.3678 -1.5900
 3741TIP3   OH232713   4.355   6.161  11.749 -0.2213  0.5058  0.0063
 3741TIP3    H132714   4.314   6.223  11.808  0.8854  0.8900  0.4047
 3741TIP3    H232715   4.409   6.105  11.805 -2.4282 -1.9323 -0.1220
 3742TIP3   OH232716   5.476   6.553   4.473 -0.1936 -0.0102  0.2719
 3742TIP3    H132717   5.381   6.550   4.487 -0.1284  1.7380  1.5125
 3742TIP3    H232718   5.486   6.557   4.378 -1.4078  0.4171  0.1391
 3743TIP3   OH232719   6.676   5.284  13.711  0.2812 -0.0304  0.8508
 3743TIP3    H132720   6.604   5.269  13.651  1.3060  0.0922 -0.4592
 3743TIP3    H232721   6.665   5.375  13.740  0.9395  0.6300 -0.8415
 3744TIP3   OH232722   2.724   4.434  11.594 -0.9080 -0.0994  0.2390
 3744TIP3    H132723   2.818   4.426  11.612 -0.8273 -3.0227 -1.0021
 3744TIP3    H232724   2.692   4.344  11.588 -3.0007  0.6630 -3.2049
 3745TIP3   OH232725   3.628   4.587  15.000  0.5798  0.3472  0.9158
 3745TIP3    H132726   3.704   4.643  14.984 -1.4630  2.8785 -0.9125
 3745TIP3    H232727   3.554   4.648  15.005 -1.5382 -2.0579  1.0597
 3746TIP3   OH232728   6.470   2.614   4.956 -0.3926  0.1659 -0.3608
 3746TIP3    H132729   6.531   2.549   4.990 -0.4551  0.3379  0.0831
 3746TIP3    H232730   6.524   2.692   4.942 -0.4273  0.1901 -0.3622
 3747TIP3   OH232731   0.721   0.720   5.552  0.5749  0.1554  0.0563
 3747TIP3    H132732   0.809   0.723   5.590  1.1066  0.7588 -1.1804
 3747TIP3    H232733   0.724   0.783   5.480 -1.3563  1.3967  0.9709
 3748TIP3   OH232734   1.265   0.735   3.517 -0.3755 -0.5750  0.0367
 3748TIP3    H132735   1.345   0.689   3.493  0.1991 -1.0751  2.6235
 3748TIP3    H232736   1.202   0.711   3.449  1.4564 -0.6342 -1.7361
 3749TIP3   OH232737   5.133   2.481   0.241 -0.6092 -0.3754  1.4017
 3749TIP3    H132738   5.122   2.555   0.182 -1.9804 -1.0491  0.7536
 3749TIP3    H232739   5.203   2.429   0.202 -0.2488  0.1138  1.3859
 3750TIP3   OH232740   0.876   3.783  14.762 -0.2402  0.1677  0.0522
 3750TIP3    H132741   0.804   3.738  14.717  0.8723 -0.9520 -0.6798
 3750TIP3    H232742   0.955   3.738  14.731  0.8183  1.7269  0.4053
 3751TIP3   OH232743   3.987   4.378  11.844 -0.0781  0.5364 -0.1657
 3751TIP3    H132744   3.904   4.408  11.879 -0.6317 -0.1582 -0.8481
 3751TIP3    H232745   4.032   4.458  11.817  0.1067  1.0400  1.4997
 3752TIP3   OH232746   6.412   3.305  11.426 -0.5778  0.4802 -0.3800
 3752TIP3    H132747   6.436   3.343  11.511  1.7528 -0.3214 -0.5913
 3752TIP3    H232748   6.493   3.311  11.374 -0.7988 -2.4910 -1.2305
 3753TIP3   OH232749   5.319   5.284  12.046 -0.2797 -0.5651 -0.8550
 3753TIP3    H132750   5.392   5.248  12.096 -1.2335 -1.8746 -0.3325
 3753TIP3    H232751   5.321   5.378  12.065  0.7412 -0.7115 -0.1527
 3754TIP3   OH232752   1.665   2.240   1.786  0.2712  0.0557  0.0765
 3754TIP3    H132753   1.740   2.185   1.809  0.4886  0.3021 -0.0400
 3754TIP3    H232754   1.696   2.295   1.714  0.7627  1.8827  1.6117
 3755TIP3   OH232755   3.047   1.562   2.596  0.0874 -0.7886  0.4191
 3755TIP3    H132756   3.050   1.604   2.682  0.9041  0.8603 -0.3764
 3755TIP3    H232757   2.958   1.525   2.591 -0.2352 -0.2276  1.6451
 3756TIP3   OH232758   6.699   2.496   2.695 -0.5729  0.1110  0.3614
 3756TIP3    H132759   6.765   2.487   2.626  0.7673 -3.0153  1.8210
 3756TIP3    H232760   6.742   2.545   2.764 -0.7443  0.3546  0.2989
 3757TIP3   OH232761   3.497   0.292  16.740 -0.3311  0.5561 -0.4906
 3757TIP3    H132762   3.409   0.264  16.762 -0.1542  0.2626 -0.1557
 3757TIP3    H232763   3.514   0.254  16.654 -0.1996 -0.1298 -0.1678
 3758TIP3   OH232764   2.120   3.229   1.988  0.2848 -0.0749 -0.3637
 3758TIP3    H132765   2.113   3.134   2.003  0.2910  0.0558  0.5127
 3758TIP3    H232766   2.110   3.267   2.075  0.1811  0.7388 -0.7310
 3759TIP3   OH232767   5.180   6.785   1.823  0.0422  0.5446  0.1543
 3759TIP3    H132768   5.265   6.770   1.864 -0.4169 -1.8205  0.3707
 3759TIP3    H232769   5.124   6.716   1.859 -1.6110  1.2295 -1.0122
 3760TIP3   OH232770   3.413   1.670   1.773  0.0130  0.0827  0.0007
 3760TIP3    H132771   3.475   1.743   1.773 -0.5033  0.5503 -1.4125
 3760TIP3    H232772   3.328   1.711   1.758 -0.5500 -0.6332  1.1536
 3761TIP3   OH232773   4.978   4.918  10.612 -0.2513  0.4218 -0.1956
 3761TIP3    H132774   4.957   4.832  10.576 -1.2700 -1.0857  3.4471
 3761TIP3    H232775   5.073   4.919  10.619 -0.2125 -0.3123 -0.5237
 3762TIP3   OH232776   0.475   2.591  15.875  0.2367 -0.1226 -0.3231
 3762TIP3    H132777   0.559   2.591  15.920 -0.5738 -1.0805  1.2471
 3762TIP3    H232778   0.452   2.684  15.867  1.0579  0.1121 -0.0790
 3763TIP3   OH232779   4.123   6.689   6.291 -0.2483  0.0733  0.3361
 3763TIP3    H132780   4.060   6.750   6.253  0.7190  0.3442 -0.8664
 3763TIP3    H232781   4.133   6.620   6.226  0.5197 -0.0952  0.6236
 3764TIP3   OH232782   1.373   4.167  11.531  0.4210  0.6751 -0.5794
 3764TIP3    H132783   1.332   4.172  11.444  1.5398  1.5995 -1.0887
 3764TIP3    H232784   1.414   4.081  11.533  0.5213  0.7089 -1.0379
 3765TIP3   OH232785   1.242   3.085   0.325 -0.0639  0.6535  0.3101
 3765TIP3    H132786   1.243   2.991   0.342 -2.3069  0.3794 -0.5878
 3765TIP3    H232787   1.301   3.123   0.390 -0.3228 -1.2198  1.7177
 3766TIP3   OH232788   4.102   0.974  12.134  0.3343  0.2961 -0.4416
 3766TIP3    H132789   4.144   0.976  12.048  0.6062  0.4146 -0.3077
 3766TIP3    H232790   4.173   0.958  12.196  0.1201  0.0682 -0.2499
 3767TIP3   OH232791   5.923   1.549   6.571 -0.1387  0.8461 -0.2317
 3767TIP3    H132792   5.916   1.503   6.654 -0.1306 -0.4449 -0.9217
 3767TIP3    H232793   5.943   1.481   6.507  0.4130  1.8875 -1.2111
 3768TIP3   OH232794   1.599   4.268   1.647 -0.0983  0.0866  0.6580
 3768TIP3    H132795   1.581   4.249   1.555  2.9084 -1.5125  0.3026
 3768TIP3    H232796   1.611   4.363   1.650  1.9330 -0.0394 -1.1159
 3769TIP3   OH232797   0.181   0.597  13.075  0.4377 -0.2927  0.6710
 3769TIP3    H132798   0.173   0.519  13.022  0.3914  0.2461 -0.1275
 3769TIP3    H232799   0.117   0.586  13.145 -0.5020 -0.3769 -0.1828
 3770TIP3   OH232800   2.910   0.346   1.093 -0.5618  0.0877 -0.2889
 3770TIP3    H132801   2.965   0.332   1.169  0.3565  0.6033 -0.8364
 3770TIP3    H232802   2.933   0.435   1.063 -2.1188  0.5594 -0.1815
 3771TIP3   OH232803   4.082   2.015   3.718 -0.6105 -0.6864  0.4464
 3771TIP3    H132804   4.173   2.018   3.750 -0.7198  0.9498  0.6979
 3771TIP3    H232805   4.081   1.944   3.654  0.6940 -1.1276  0.8800
 3772TIP3   OH232806   3.179   4.748  16.471 -0.1446 -0.4580 -0.1348
 3772TIP3    H132807   3.173   4.656  16.494  0.5324 -0.5571 -0.3456
 3772TIP3    H232808   3.273   4.766  16.463 -0.2809  0.1313 -0.5514
 3773TIP3   OH232809   5.442   0.637   1.462  0.8632 -0.7913  0.2342
 3773TIP3    H132810   5.499   0.713   1.454  0.0320 -0.1983 -0.1738
 3773TIP3    H232811   5.356   0.673   1.485  0.0062 -1.4116 -1.7924
 3774TIP3   OH232812   0.044   0.826   0.662 -0.0735  0.7239  0.0784
 3774TIP3    H132813  -0.022   0.883   0.622  0.0110  1.0964  0.4629
 3774TIP3    H232814  -0.000   0.788   0.738 -1.2234 -2.2630 -1.8958
 3775TIP3   OH232815   5.724   1.532   0.467 -0.4195  0.0707 -0.1895
 3775TIP3    H132816   5.696   1.621   0.490 -0.0719  0.4374 -1.1392
 3775TIP3    H232817   5.668   1.475   0.520  0.7351  0.8600  2.0236
 3776TIP3   OH232818   6.559   2.422  11.930  0.2892  0.2824 -0.3433
 3776TIP3    H132819   6.504   2.500  11.917  0.5692  0.7004  0.8844
 3776TIP3    H232820   6.636   2.454  11.976  2.2541 -0.0507 -3.1344
 3777TIP3   OH232821   3.164   5.047  14.750 -0.2082  0.3072  0.1625
 3777TIP3    H132822   3.246   5.072  14.707 -0.5147  0.6118 -0.2550
 3777TIP3    H232823   3.132   5.128  14.791 -0.8054  0.4279 -0.5258
 3778TIP3   OH232824   3.796   0.383  14.608 -0.1428  0.1206 -0.1175
 3778TIP3    H132825   3.796   0.342  14.694  1.1542  0.0352 -0.1272
 3778TIP3    H232826   3.781   0.476  14.624  0.4395  0.1566  0.2393
 3779TIP3   OH232827   1.288   2.311  14.573  0.2171  0.8205 -0.6845
 3779TIP3    H132828   1.378   2.316  14.606  0.2863 -1.5495 -0.3315
 3779TIP3    H232829   1.256   2.226  14.605 -1.8193  1.1795 -1.6339
 3780TIP3   OH232830   1.919   4.784   4.640  0.0437  0.1229 -0.6519
 3780TIP3    H132831   1.847   4.826   4.687  1.7421  0.7001  1.6354
 3780TIP3    H232832   1.982   4.762   4.708  2.4161  0.4022 -2.6121
 3781TIP3   OH232833   3.358   1.598   5.550 -0.2466  0.2007  0.1489
 3781TIP3    H132834   3.330   1.568   5.637  1.7286  0.7058  1.0026
 3781TIP3    H232835   3.409   1.524   5.515 -2.3866 -0.6658 -1.3376
 3782TIP3   OH232836   1.973   1.275  13.763 -0.2280 -0.2141  0.3805
 3782TIP3    H132837   1.982   1.359  13.718  0.9769 -0.7053 -0.3315
 3782TIP3    H232838   2.017   1.212  13.706 -1.0753 -1.3319  0.9235
 3783TIP3   OH232839   5.059   4.130  12.222 -0.0374  0.1748 -0.0938
 3783TIP3    H132840   5.144   4.115  12.263  0.0770  0.7848 -0.1030
 3783TIP3    H232841   5.054   4.065  12.152  1.0236  1.0258 -0.9915
 3784TIP3   OH232842   6.804   4.329   0.377 -0.4001 -0.3138 -0.2266
 3784TIP3    H132843   6.866   4.257   0.363  0.3920  0.1967  0.4984
 3784TIP3    H232844   6.845   4.404   0.333  0.0468  0.2890  1.1796
 3785TIP3   OH232845   3.479   1.005  15.397 -0.1301  0.1708  0.0542
 3785TIP3    H132846   3.421   1.081  15.403  0.3485  0.5106  0.4255
 3785TIP3    H232847   3.514   1.009  15.308  1.2459  1.4052  0.5974
 3786TIP3   OH232848   6.160   6.146  13.828 -0.1507 -0.4547  1.0090
 3786TIP3    H132849   6.071   6.146  13.791  0.1001 -2.5461  0.2867
 3786TIP3    H232850   6.167   6.062  13.873  1.8883 -0.9413 -0.0842
 3787TIP3   OH232851   6.531   3.827   3.460 -0.5756  0.0492 -0.3116
 3787TIP3    H132852   6.619   3.788   3.465  0.1675  1.7807  1.7088
 3787TIP3    H232853   6.475   3.766   3.508  0.3149  0.7035  1.6710
 3788TIP3   OH232854   6.300   5.549   2.770 -0.1186 -0.1823  0.0727
 3788TIP3    H132855   6.220   5.537   2.821  1.0898 -0.9622  1.8548
 3788TIP3    H232856   6.277   5.519   2.682 -2.4499  1.8301 -0.1243
 3789TIP3   OH232857   0.750   0.304   4.089  0.3877 -0.1937  0.0323
 3789TIP3    H132858   0.703   0.233   4.132  0.4210 -0.1496  0.1419
 3789TIP3    H232859   0.692   0.379   4.097  1.7517  0.6881  2.9472
 3790TIP3   OH232860   3.504   4.641   5.234 -0.0453  0.1395  0.2954
 3790TIP3    H132861   3.472   4.551   5.229 -2.6286  1.0093 -0.1584
 3790TIP3    H232862   3.570   4.647   5.165 -0.2834 -1.2542 -0.0694
 3791TIP3   OH232863   5.361   5.727   5.525 -0.5816 -0.8472 -0.0491
 3791TIP3    H132864   5.345   5.797   5.588  0.2131  0.2094 -0.9862
 3791TIP3    H232865   5.411   5.662   5.574 -0.9061 -0.5407  0.7011
 3792TIP3   OH232866   3.887   0.064  13.298 -0.0999 -0.5156  0.2105
 3792TIP3    H132867   3.840   0.014  13.365 -0.3315  1.0959  1.3128
 3792TIP3    H232868   3.824   0.129  13.269  0.7800  0.3420  0.1860
 3793TIP3   OH232869   2.170   0.049   0.520 -0.3778 -0.3492 -0.2139
 3793TIP3    H132870   2.078   0.059   0.495 -0.2602  0.1136 -0.4727
 3793TIP3    H232871   2.217   0.106   0.460  0.0418 -0.3014  0.1573
 3794TIP3   OH232872   0.759   6.473  13.773  0.0795 -0.2472  0.4737
 3794TIP3    H132873   0.680   6.521  13.798 -0.9644 -0.4460 -2.0746
 3794TIP3    H232874   0.753   6.390  13.821 -0.1418  0.5814  1.9128
 3795TIP3   OH232875   2.535   1.385  13.927  0.4806  0.1545 -0.1852
 3795TIP3    H132876   2.508   1.389  13.835  1.3191  2.8375 -0.4114
 3795TIP3    H232877   2.629   1.371  13.924  0.6845  1.3163  0.1860
 3796TIP3   OH232878   0.368   5.706   3.525 -0.0850 -0.4088 -0.1788
 3796TIP3    H132879   0.426   5.719   3.450  0.4543 -0.2893  0.2521
 3796TIP3    H232880   0.418   5.741   3.600 -0.2062 -1.4355  0.3920
 3797TIP3   OH232881   4.136   5.785   3.865  0.6965  0.3892  0.1146
 3797TIP3    H132882   4.152   5.799   3.959  0.4612 -0.4947  0.2985
 3797TIP3    H232883   4.104   5.695   3.860  0.5487  0.4881 -0.8025
 3798TIP3   OH232884   3.178   5.919   5.456  0.5228  0.4297 -0.8417
 3798TIP3    H132885   3.233   5.920   5.534  0.0682  2.1110 -0.4985
 3798TIP3    H232886   3.182   6.008   5.422 -1.5631  0.4927 -1.0805
 3799TIP3   OH232887   5.286   0.168   3.966 -0.0843 -0.1889  0.2771
 3799TIP3    H132888   5.364   0.218   3.990 -0.1667  0.4652 -0.7228
 3799TIP3    H232889   5.223   0.184   4.036 -0.3108  1.6166 -0.2900
 3800TIP3   OH232890   1.803   6.345  11.834 -0.1763 -0.1970  0.1813
 3800TIP3    H132891   1.848   6.334  11.917  1.3080 -0.5401 -0.6347
 3800TIP3    H232892   1.747   6.268  11.827 -0.9740  0.2498  1.2161
 3801TIP3   OH232893   2.173   6.566   4.986  0.4695  0.5619  0.0807
 3801TIP3    H132894   2.174   6.661   4.974 -0.5393  0.3111 -2.8546
 3801TIP3    H232895   2.236   6.533   4.922 -0.2551 -0.8156  0.0310
 3802TIP3   OH232896   4.565   2.591   3.677 -1.0077  0.8293  0.4148
 3802TIP3    H132897   4.620   2.592   3.755 -1.2061  0.6330  0.5576
 3802TIP3    H232898   4.605   2.656   3.619 -0.1321  0.0985  0.1769
 3803TIP3   OH232899   1.627   3.946  15.285 -0.3398  0.1598  0.2218
 3803TIP3    H132900   1.578   3.864  15.291  0.0055 -0.3030 -2.2087
 3803TIP3    H232901   1.674   3.940  15.202 -1.2342  3.3288 -0.6567
 3804TIP3   OH232902   3.167   3.534  11.359 -1.0248 -0.0513  0.0960
 3804TIP3    H132903   3.157   3.587  11.438 -0.9365 -0.5307  0.4327
 3804TIP3    H232904   3.099   3.565  11.300  0.7693  2.4647 -0.8632
 3805TIP3   OH232905   5.423   5.213   3.623  0.6367  0.1293  0.2566
 3805TIP3    H132906   5.426   5.190   3.716  0.6974 -1.2050 -0.0566
 3805TIP3    H232907   5.367   5.290   3.619 -2.5773 -1.9922  1.0277
 3806TIP3   OH232908   3.280   6.593   2.039 -0.2905  0.0736 -0.0598
 3806TIP3    H132909   3.267   6.636   2.124 -0.9248 -0.8078  0.3107
 3806TIP3    H232910   3.344   6.647   1.994 -1.0404  1.3811  0.4027
 3807TIP3   OH232911   5.548   0.765   1.827 -0.0200 -0.4607  0.2162
 3807TIP3    H132912   5.513   0.827   1.764  2.4547 -0.5055 -1.3403
 3807TIP3    H232913   5.554   0.815   1.909 -1.1511  0.3072 -0.1514
 3808TIP3   OH232914   6.719   0.279  11.128 -0.1498 -0.2394 -0.2944
 3808TIP3    H132915   6.644   0.335  11.106 -1.3762 -1.4942  0.5480
 3808TIP3    H232916   6.747   0.242  11.045 -0.1163  0.6482 -0.6897
 3809TIP3   OH232917   3.130   4.279   2.995  0.2459  0.0466  0.0483
 3809TIP3    H132918   3.035   4.271   3.008  0.0727  1.0553 -0.4868
 3809TIP3    H232919   3.154   4.358   3.043  0.9991 -0.7308  0.9896
 3810TIP3   OH232920   0.062   0.296   0.902 -0.1837  0.6723  0.4727
 3810TIP3    H132921   0.019   0.280   0.818 -0.3109 -0.9945  0.8128
 3810TIP3    H232922   0.028   0.227   0.960  1.6036  0.3840  1.2477
 3811TIP3   OH232923   1.583   5.888  13.500  0.6478 -0.5740 -0.0114
 3811TIP3    H132924   1.552   5.858  13.414  0.5683 -0.5050 -0.0072
 3811TIP3    H232925   1.665   5.840  13.514  0.0655 -1.4693  0.3933
 3812TIP3   OH232926   4.091   0.615  12.275 -0.0265 -0.2124  0.2400
 3812TIP3    H132927   4.185   0.601  12.273 -0.0298 -0.2398 -1.7741
 3812TIP3    H232928   4.081   0.708  12.295  0.4602 -0.1141  0.0440
 3813TIP3   OH232929   4.061   4.930   1.091  0.3045 -0.0297  0.1546
 3813TIP3    H132930   4.133   4.984   1.123  0.1323  0.4065 -0.1852
 3813TIP3    H232931   4.010   4.988   1.035  0.3020 -0.6307 -0.4816
 3814TIP3   OH232932   1.769   1.177   4.191 -0.0535  0.0227  0.1327
 3814TIP3    H132933   1.819   1.095   4.187 -0.9280 -0.6264  1.5125
 3814TIP3    H232934   1.734   1.188   4.103  0.1173 -1.0878 -0.0930
 3815TIP3   OH232935   4.950   4.517   0.521 -0.0811 -0.0164  0.0608
 3815TIP3    H132936   5.023   4.575   0.543  0.0069 -0.3160  0.5686
 3815TIP3    H232937   4.954   4.448   0.587 -0.6056 -0.2285 -0.1283
 3816TIP3   OH232938   6.218   5.105   5.963 -0.0756 -0.3586  0.1615
 3816TIP3    H132939   6.264   5.161   6.025  0.9487 -2.5590  1.5136
 3816TIP3    H232940   6.262   5.122   5.879 -1.3301  2.4781 -0.0474
 3817TIP3   OH232941   1.073   6.279  16.884 -0.6877 -0.4174 -0.2877
 3817TIP3    H132942   1.113   6.366  16.875 -0.4177 -0.5481 -0.3772
 3817TIP3    H232943   1.035   6.261  16.798 -1.0824 -0.2255 -0.1567
 3818TIP3   OH232944   3.196   2.857  16.636 -0.0994  0.3854 -0.5426
 3818TIP3    H132945   3.229   2.796  16.569 -1.1142  2.0034 -2.6137
 3818TIP3    H232946   3.101   2.848  16.632 -0.1763  0.4885  0.7384
 3819TIP3   OH232947   6.764   5.086   5.403 -0.5021 -0.3776  0.1485
 3819TIP3    H132948   6.722   5.000   5.400  0.7550 -1.0458  1.0520
 3819TIP3    H232949   6.690   5.148   5.403 -1.4221 -1.4294 -0.5229
 3820TIP3   OH232950   1.948   1.815   4.556  0.4797  0.1586  0.0724
 3820TIP3    H132951   1.936   1.901   4.597 -0.4001 -0.1091  0.4111
 3820TIP3    H232952   1.919   1.828   4.466 -0.5485  0.0147  0.3608
 3821TIP3   OH232953   1.304   2.545   0.574  0.8477  0.0850  0.3081
 3821TIP3    H132954   1.389   2.574   0.540  0.8886 -1.0984 -0.6673
 3821TIP3    H232955   1.292   2.458   0.536 -1.4007  0.7375 -0.6268
 3822TIP3   OH232956   0.964   4.154  15.743  0.1694 -0.3036 -0.4204
 3822TIP3    H132957   0.905   4.108  15.803  0.1121 -0.7866 -0.8403
 3822TIP3    H232958   1.052   4.132  15.775  0.2227 -2.4483 -1.8254
 3823TIP3   OH232959   1.534   5.093   1.549  0.0885  0.0688  0.0021
 3823TIP3    H132960   1.529   5.038   1.628  3.4492 -3.4718 -1.9129
 3823TIP3    H232961   1.597   5.161   1.572  0.9704 -0.8692  0.4300
 3824TIP3   OH232962   5.017   2.944   5.428 -0.2101  0.1942  0.1439
 3824TIP3    H132963   4.952   2.960   5.496 -0.1355 -1.0514  0.5340
 3824TIP3    H232964   5.090   2.903   5.474  0.4398  0.6660 -0.4530
 3825TIP3   OH232965   1.707   0.708   2.906 -0.0673  0.1279  0.0042
 3825TIP3    H132966   1.717   0.756   2.987  1.3268  0.0418 -0.1002
 3825TIP3    H232967   1.659   0.767   2.848 -2.1980 -0.2740  1.2475
 3826TIP3   OH232968   5.382   0.203  11.442 -0.2250 -0.3424  1.0897
 3826TIP3    H132969   5.330   0.269  11.395  1.3686  0.3683  0.2527
 3826TIP3    H232970   5.403   0.244  11.526  2.9154  1.4060 -0.3816
 3827TIP3   OH232971   2.678   3.525   0.710 -0.6127 -0.0690 -0.4049
 3827TIP3    H132972   2.614   3.507   0.641  0.8598 -0.1192 -1.8150
 3827TIP3    H232973   2.731   3.596   0.675  0.2079 -0.1430  0.6558
 3828TIP3   OH232974   0.166   3.886   0.217 -0.5128  0.1345  0.3449
 3828TIP3    H132975   0.137   3.870   0.307 -2.1748 -0.4676 -0.2458
 3828TIP3    H232976   0.123   3.968   0.194 -2.4780 -1.1431 -0.7987
 3829TIP3   OH232977   4.420   5.474  13.799 -0.2014 -0.1856  0.6653
 3829TIP3    H132978   4.371   5.429  13.731  0.5145 -0.6155  0.4214
 3829TIP3    H232979   4.359   5.540  13.834 -0.4895  0.2177 -0.5594
 3830TIP3   OH232980   5.334   3.066  11.393  0.3381 -0.3997  0.1327
 3830TIP3    H132981   5.391   3.123  11.340  1.2263 -1.1706  0.2337
 3830TIP3    H232982   5.248   3.107  11.387  1.1491  1.6449  1.1558
 3831TIP3   OH232983   6.043   5.764  12.033 -0.0162  0.8207  0.3652
 3831TIP3    H132984   6.119   5.799  12.080  1.4731 -0.4534 -0.9969
 3831TIP3    H232985   6.018   5.687  12.083  0.0963  0.7795  0.3585
 3832TIP3   OH232986   2.460   0.667   4.371 -0.2191 -0.0652 -0.2121
 3832TIP3    H132987   2.402   0.736   4.337 -1.2552 -1.1253 -0.6729
 3832TIP3    H232988   2.486   0.699   4.457 -0.6734  0.9180 -0.4225
 3833TIP3   OH232989   3.134   0.365   1.457  0.0655  0.4391 -0.0961
 3833TIP3    H132990   3.184   0.354   1.538 -0.1795 -0.5819 -0.0647
 3833TIP3    H232991   3.075   0.290   1.456 -0.6239  0.9869 -0.7324
 3834TIP3   OH232992   0.688   0.438   1.159 -0.4527  0.4987 -0.0779
 3834TIP3    H132993   0.633   0.455   1.083 -2.1290  1.4080  1.2664
 3834TIP3    H232994   0.629   0.447   1.234  1.4741  1.2398  1.4385
 3835TIP3   OH232995   0.167   3.484  13.932  0.3037  0.0645  0.0153
 3835TIP3    H132996   0.132   3.557  13.880  0.4153  0.9839  1.1800
 3835TIP3    H232997   0.238   3.524  13.984  2.4511 -1.5343 -1.5395
 3836TIP3   OH232998   4.078   1.042   1.925  0.1209  0.0893 -0.0145
 3836TIP3    H132999   4.059   1.130   1.958  0.5720  0.7362 -1.4039
 3836TIP3    H233000   4.173   1.043   1.909  0.0889 -0.5719 -0.2449
 3837TIP3   OH233001   0.016   2.626  10.494 -0.1784  0.8700  0.8891
 3837TIP3    H133002   0.022   2.719  10.472 -0.5903  0.8855  0.8334
 3837TIP3    H233003   0.042   2.622  10.586 -0.3219  1.0589  0.9375
 3838TIP3   OH233004   2.566   4.637   2.293 -0.2355  0.2070  0.1969
 3838TIP3    H133005   2.495   4.574   2.279 -0.7846  0.8830 -0.1324
 3838TIP3    H233006   2.557   4.699   2.220  0.2430  0.7084  0.5601
 3839TIP3   OH233007   0.939   3.120   1.062 -0.0765 -0.4391  0.1728
 3839TIP3    H133008   0.879   3.194   1.050 -0.4376 -1.1053 -2.7642
 3839TIP3    H233009   1.005   3.132   0.994  2.3441 -0.5944  2.3300
 3840TIP3   OH233010   6.823   6.703  13.295  0.2868  0.4161 -0.5480
 3840TIP3    H133011   6.814   6.787  13.250  0.1696  0.3859 -0.5809
 3840TIP3    H233012   6.747   6.652  13.266  0.2078  0.3996 -0.3086
 3841TIP3   OH233013   3.144   1.629  16.228  0.3004  0.5858 -0.3337
 3841TIP3    H133014   3.237   1.623  16.251  0.4264  1.7484 -0.5071
 3841TIP3    H233015   3.099   1.629  16.312  0.4890  0.6206 -0.2320
 3842TIP3   OH233016   1.500   6.573  13.009 -1.0653 -0.1105  0.5502
 3842TIP3    H133017   1.551   6.628  13.068 -0.3059 -0.4680  0.2453
 3842TIP3    H233018   1.437   6.529  13.066  0.4289 -1.3608  1.3194
 3843TIP3   OH233019   5.192   4.652   2.875 -0.0965  0.8475 -0.5865
 3843TIP3    H133020   5.268   4.654   2.816  0.9720  1.1201  0.7477
 3843TIP3    H233021   5.124   4.700   2.827  0.3034 -0.0461 -2.1287
 3844TIP3   OH233022   5.725   6.260   5.979 -0.6998 -0.3910  0.3066
 3844TIP3    H133023   5.653   6.198   5.987  1.4731 -3.3189 -0.7194
 3844TIP3    H233024   5.717   6.317   6.055 -4.5319  0.0576 -0.2506
 3845TIP3   OH233025   1.860   1.188   3.888 -0.0739  0.8784 -1.1801
 3845TIP3    H133026   1.898   1.131   3.820 -1.3204 -2.0245  0.3817
 3845TIP3    H233027   1.782   1.225   3.847  1.1995  2.2299 -2.4973
 3846TIP3   OH233028   1.255   1.857   4.411 -0.4172  0.1709  0.1130
 3846TIP3    H133029   1.172   1.897   4.385  0.2549  0.7293 -1.2521
 3846TIP3    H233030   1.262   1.874   4.505 -1.4512  0.8504  0.0777
 3847TIP3   OH233031   0.520   0.146   4.159  0.0810 -0.3564  0.0104
 3847TIP3    H133032   0.516   0.226   4.211 -2.6631  0.9450 -1.9665
 3847TIP3    H233033   0.444   0.095   4.187  0.5609 -1.2755 -0.3002
 3848TIP3   OH233034   2.080   3.872   1.239  0.0370 -0.1788  0.0457
 3848TIP3    H133035   2.128   3.826   1.308  0.9747  0.5455 -0.1040
 3848TIP3    H233036   2.106   3.827   1.158 -1.1987 -1.1434  0.1485
 3849TIP3   OH233037   6.292   6.058  15.798  0.4270 -0.3153  0.1502
 3849TIP3    H133038   6.236   6.029  15.870 -0.0518  0.6321  0.1790
 3849TIP3    H233039   6.304   6.152  15.814  1.9635 -0.4785  0.1003
 3850TIP3   OH233040   2.761   6.190  16.342  0.3533  0.4919 -0.4924
 3850TIP3    H133041   2.820   6.174  16.416 -0.8529  0.3586  0.4777
 3850TIP3    H233042   2.768   6.111  16.288 -1.2601 -0.9553  1.2802
 3851TIP3   OH233043   5.478   2.430  14.826  0.4538  0.4034 -0.2777
 3851TIP3    H133044   5.552   2.490  14.840  1.0610 -0.2415 -0.6905
 3851TIP3    H233045   5.404   2.489  14.808  0.9416  1.0492 -0.2350
 3852TIP3   OH233046   2.895   4.892   5.972 -0.3233  0.0707  0.1458
 3852TIP3    H133047   2.904   4.934   6.058 -0.3687  1.0360 -0.3001
 3852TIP3    H233048   2.800   4.887   5.958 -0.3093  0.7124 -0.2126
 3853TIP3   OH233049   1.535   2.980   4.269 -0.2238  0.3673  0.6046
 3853TIP3    H133050   1.452   2.989   4.316  0.4121  0.5984  1.7125
 3853TIP3    H233051   1.580   2.908   4.314 -0.0810 -0.1772 -0.3887
 3854TIP3   OH233052   5.476   3.531  15.414  0.2128 -0.3058  0.1157
 3854TIP3    H133053   5.549   3.469  15.421 -0.2698 -0.7393  2.3206
 3854TIP3    H233054   5.419   3.494  15.347  0.5470 -1.6100  0.5188
 3855TIP3   OH233055   1.175   4.601   3.805  0.4443  0.0252  0.2209
 3855TIP3    H133056   1.249   4.542   3.819  0.5079  0.1199  0.2842
 3855TIP3    H233057   1.139   4.574   3.721 -0.4591 -1.1159  0.9409
 3856TIP3   OH233058   1.453   1.163  14.580 -0.4110  0.0540  0.0107
 3856TIP3    H133059   1.489   1.154  14.491  0.9571 -2.9916  0.7542
 3856TIP3    H233060   1.359   1.160  14.568 -0.2737  0.4184 -1.3817
 3857TIP3   OH233061   4.963   6.837   0.462 -0.3490 -0.0368  0.7068
 3857TIP3    H133062   5.055   6.822   0.485 -0.6579  0.1382  2.1945
 3857TIP3    H233063   4.930   6.893   0.533 -1.7460 -0.5779  0.5145
 3858TIP3   OH233064   6.145   0.760   1.719  0.0063  0.1982 -0.2410
 3858TIP3    H133065   6.148   0.676   1.674 -1.8627  0.1611 -0.3807
 3858TIP3    H233066   6.068   0.754   1.776 -0.4959  1.9876 -0.6570
 3859TIP3   OH233067   1.078   3.736   5.373 -0.1830 -0.0674  0.2882
 3859TIP3    H133068   1.062   3.823   5.335 -0.3546  0.2399  1.0432
 3859TIP3    H233069   1.159   3.747   5.423 -0.9930  0.0681  1.6060
 3860TIP3   OH233070   0.675   5.332   0.353  0.2892  0.3986  0.2431
 3860TIP3    H133071   0.673   5.257   0.293  0.1215  0.2858  0.3849
 3860TIP3    H233072   0.663   5.293   0.439 -0.0267  0.6090  0.2973
 3861TIP3   OH233073   1.982   0.578  12.954 -0.7004  0.3228 -0.6406
 3861TIP3    H133074   1.958   0.573  13.046 -1.4683  1.7757 -0.7234
 3861TIP3    H233075   1.953   0.665  12.927 -1.1652 -0.3501 -2.4460
 3862TIP3   OH233076   1.028   0.405  12.866  0.3887 -0.3366 -0.4213
 3862TIP3    H133077   1.033   0.445  12.953  0.7798 -1.0641 -0.0948
 3862TIP3    H233078   1.108   0.435  12.822  0.6195 -0.6605 -0.2223
 3863TIP3   OH233079   5.258   5.844   2.601  0.3195  0.4022 -0.1988
 3863TIP3    H133080   5.261   5.764   2.654  0.7443  0.8470  0.4614
 3863TIP3    H233081   5.230   5.912   2.662 -0.2255  0.7246 -0.8048
 3864TIP3   OH233082   1.579   1.261   6.663  0.2239 -1.1584 -0.2144
 3864TIP3    H133083   1.646   1.312   6.706  0.3611  1.2510 -2.9656
 3864TIP3    H233084   1.620   1.176   6.646  1.2312 -1.0268  1.4074
 3865TIP3   OH233085   5.057   3.861  14.829  0.3596 -0.1889  0.2105
 3865TIP3    H133086   4.985   3.881  14.889  0.3966  1.3279 -0.2090
 3865TIP3    H233087   5.062   3.765  14.829  0.0442 -0.2619  2.2439
 3866TIP3   OH233088   1.323   0.927   1.273 -0.4080 -0.0619 -0.3865
 3866TIP3    H133089   1.305   0.996   1.209  0.2376  0.7782  0.3103
 3866TIP3    H233090   1.375   0.970   1.341  2.0502 -1.7625 -1.0631
 3867TIP3   OH233091   3.010   0.564  13.793  0.2712 -0.3989  0.5356
 3867TIP3    H133092   3.098   0.531  13.776  0.3445  0.1721 -0.2370
 3867TIP3    H233093   3.024   0.648  13.838  0.1215 -0.3380  0.4690
 3868TIP3   OH233094   1.250   4.237   1.017 -0.2665  0.2576  0.3932
 3868TIP3    H133095   1.321   4.290   1.053 -0.9288  1.0358  0.5810
 3868TIP3    H233096   1.214   4.289   0.945  0.7228 -1.0656 -1.1407
 3869TIP3   OH233097   3.005   5.779   3.449 -0.2702  0.7709 -0.0403
 3869TIP3    H133098   2.919   5.788   3.491  0.0388 -2.9711  1.8074
 3869TIP3    H233099   2.995   5.706   3.388  1.4289  0.7295 -0.3120
 3870TIP3   OH233100   2.273   0.154  13.835 -0.3890  0.3245 -0.3551
 3870TIP3    H133101   2.299   0.239  13.801  0.5578  1.1991  2.3243
 3870TIP3    H233102   2.190   0.170  13.880  0.2511  0.1115  0.9732
 3871TIP3   OH233103   6.233   1.167  12.243 -0.1228 -0.4600  0.3874
 3871TIP3    H133104   6.279   1.083  12.243 -0.2593 -0.5474 -0.5248
 3871TIP3    H233105   6.147   1.146  12.281 -0.3473 -0.8521 -0.3148
 3872TIP3   OH233106   5.045   2.981  16.243 -0.0691 -0.1341  0.2094
 3872TIP3    H133107   5.114   3.014  16.185  0.7215 -0.9800  0.6433
 3872TIP3    H233108   5.082   2.991  16.331 -1.1222  0.8223  0.5664
 3873TIP3   OH233109   1.864   3.019   2.539 -0.5458 -0.4129 -0.2357
 3873TIP3    H133110   1.881   3.092   2.479 -1.2232 -0.3888 -0.4098
 3873TIP3    H233111   1.950   2.985   2.561 -0.2941 -1.0917 -2.0634
 3874TIP3   OH233112   1.994   4.666  14.928  0.0831 -0.2197  0.4549
 3874TIP3    H133113   1.967   4.757  14.931  1.9232  0.4122 -0.4143
 3874TIP3    H233114   2.035   4.655  14.842 -1.1611 -2.2092  0.0501
 3875TIP3   OH233115   1.510   2.518  16.545 -0.1532 -0.0055 -0.1814
 3875TIP3    H133116   1.567   2.520  16.621 -0.5134 -0.9982  0.1225
 3875TIP3    H233117   1.426   2.487  16.578 -0.8104  1.2004 -0.6705
 3876TIP3   OH233118   3.354   4.470  11.795  0.2042  0.4280 -0.3953
 3876TIP3    H133119   3.272   4.520  11.797  0.2289  0.5167 -1.2757
 3876TIP3    H233120   3.347   4.410  11.869 -1.4599 -0.8347 -1.5185
 3877TIP3   OH233121   1.199   4.784   0.259 -0.4041 -0.6166  0.2066
 3877TIP3    H133122   1.195   4.731   0.179 -0.9588  1.0799 -0.9621
 3877TIP3    H233123   1.292   4.786   0.282 -0.4217 -2.5189  0.6416
 3878TIP3   OH233124   6.348   6.129   5.248 -0.9062 -0.1470  0.3345
 3878TIP3    H133125   6.268   6.148   5.297 -1.5418 -2.3068  0.2514
 3878TIP3    H233126   6.369   6.038   5.271  0.7025 -0.1006 -0.7805
 3879TIP3   OH233127   0.755   5.877  12.163 -0.0428  0.0045 -1.4563
 3879TIP3    H133128   0.760   5.800  12.220 -0.8920  0.2023 -1.0971
 3879TIP3    H233129   0.791   5.948  12.215  1.4410 -0.2771 -2.0573
 3880TIP3   OH233130   6.587   5.721   1.967  0.2352 -0.5147 -0.3616
 3880TIP3    H133131   6.584   5.756   1.877 -0.5264  1.7205  0.4719
 3880TIP3    H233132   6.525   5.648   1.966  2.7496 -2.8642 -2.4772
 3881TIP3   OH233133   0.446   2.288  11.975 -0.2208 -0.4280  0.4149
 3881TIP3    H133134   0.390   2.352  11.930  0.3828 -0.9578 -1.1760
 3881TIP3    H233135   0.518   2.340  12.010 -1.2916  0.1530  1.8225
 3882TIP3   OH233136   5.061   6.150   5.435 -0.5294 -0.6878 -0.2210
 3882TIP3    H133137   5.156   6.135   5.433 -0.1410  1.5223 -2.1214
 3882TIP3    H233138   5.026   6.084   5.375 -0.2235 -1.5497  0.5253
 3883TIP3   OH233139   1.583   5.511  15.785 -0.4603 -0.3169 -0.1234
 3883TIP3    H133140   1.624   5.442  15.836 -2.3043 -1.7008 -0.4280
 3883TIP3    H233141   1.651   5.537  15.722  1.1660  0.0614  1.6781
 3884TIP3   OH233142   5.939   4.779  11.658 -0.4509  0.3621  0.1286
 3884TIP3    H133143   5.886   4.744  11.587 -0.9741 -2.4758  1.7551
 3884TIP3    H233144   5.876   4.799  11.728  0.3554 -1.5210  1.4933
 3885TIP3   OH233145   6.545   4.574   0.749 -0.1997  0.2392  0.0300
 3885TIP3    H133146   6.500   4.611   0.825  0.6506 -0.4178  0.8812
 3885TIP3    H233147   6.631   4.548   0.783  0.2320  0.0257 -1.1855
 3886TIP3   OH233148   6.216   0.182  11.716  0.0996 -0.3506 -0.7315
 3886TIP3    H133149   6.241   0.259  11.767  0.2518 -0.6588 -0.3322
 3886TIP3    H233150   6.293   0.162  11.663  0.1719 -0.4124 -0.6039
 3887TIP3   OH233151   3.607   5.984  12.956 -0.0777 -0.4285 -0.0096
 3887TIP3    H133152   3.581   6.076  12.955 -1.3167 -0.7593 -0.0147
 3887TIP3    H233153   3.610   5.960  12.863 -1.4197 -0.8181  0.0268
 3888TIP3   OH233154   5.676   4.706   0.493  0.8080  0.6124  0.7024
 3888TIP3    H133155   5.730   4.674   0.422  0.3334 -1.3417  1.1618
 3888TIP3    H233156   5.666   4.632   0.552 -2.9733  0.5458  0.2709
 3889TIP3   OH233157   2.637   5.874   4.517  0.2404 -0.3676  0.2423
 3889TIP3    H133158   2.667   5.792   4.557  0.5296 -0.4122 -0.0641
 3889TIP3    H233159   2.542   5.867   4.516  0.2625 -0.6790  0.2536
 3890TIP3   OH233160   1.753   3.972   4.932 -0.6157 -1.0255  0.3200
 3890TIP3    H133161   1.795   3.963   5.017 -0.8012 -1.5320  0.3621
 3890TIP3    H233162   1.749   4.066   4.917 -1.2731 -0.8946  1.2253
 3891TIP3   OH233163   5.375   1.533  14.817  0.1755 -0.2363 -0.3321
 3891TIP3    H133164   5.436   1.489  14.758  2.1301 -0.4594  1.7034
 3891TIP3    H233165   5.372   1.477  14.894 -1.6542  0.4413  0.1376
 3892TIP3   OH233166   2.185   1.040  12.999  0.5226  0.1069 -0.1256
 3892TIP3    H133167   2.167   1.104  12.931 -0.4022  0.9432  0.8700
 3892TIP3    H233168   2.116   1.054  13.064  0.0040 -2.2344 -0.1010
 3893TIP3   OH233169   0.731   0.982   4.514 -0.3553 -0.2542  0.3650
 3893TIP3    H133170   0.817   0.962   4.479 -0.7639  2.4182 -2.5648
 3893TIP3    H233171   0.670   0.931   4.459 -0.7732  0.0929  0.4993
 3894TIP3   OH233172   5.215   1.325  15.534  0.6820  0.0620 -0.0843
 3894TIP3    H133173   5.134   1.307  15.582 -0.7493  0.5208 -2.1942
 3894TIP3    H233174   5.231   1.418  15.545 -0.0121  0.2993 -0.9821
 3895TIP3   OH233175   0.758   1.803   1.906 -0.3942  0.5162 -0.4328
 3895TIP3    H133176   0.713   1.848   1.834 -1.2377 -0.1018 -0.3081
 3895TIP3    H233177   0.721   1.715   1.906  2.1472 -0.6357 -1.4738
 3896TIP3   OH233178   3.043   5.351  12.569  0.0970  0.3190 -0.4033
 3896TIP3    H133179   3.113   5.414  12.553  1.4014 -1.1450 -0.7269
 3896TIP3    H233180   3.066   5.311  12.653 -1.9844  1.8411  0.9877
 3897TIP3   OH233181   6.085   4.229   4.423 -0.4565  0.6531  0.3755
 3897TIP3    H133182   6.180   4.223   4.413 -0.5651  0.4117 -0.5838
 3897TIP3    H233183   6.073   4.271   4.508  0.4819 -1.3002  1.5525
 3898TIP3   OH233184   2.592   3.918   5.959 -0.0985  0.4031  0.2243
 3898TIP3    H133185   2.661   3.857   5.984 -0.0010  0.5299  0.2643
 3898TIP3    H233186   2.600   3.991   6.021  0.8732  1.2547 -0.8726
 3899TIP3   OH233187   4.229   3.470  12.667  0.2766 -0.6482  0.0677
 3899TIP3    H133188   4.171   3.542  12.645  0.8045 -0.7812 -1.9716
 3899TIP3    H233189   4.176   3.391  12.654  0.4580 -0.7151 -0.2745
 3900TIP3   OH233190   3.034   5.228   3.646  0.2134 -0.0466 -0.0233
 3900TIP3    H133191   3.094   5.154   3.655 -1.9393 -1.9407  0.0225
 3900TIP3    H233192   3.072   5.298   3.698  1.5519 -1.6982  1.3067
 3901TIP3   OH233193   2.227   4.463  14.597 -0.4470  0.3957 -0.0456
 3901TIP3    H133194   2.250   4.435  14.508 -0.0812  0.8593 -0.1067
 3901TIP3    H233195   2.155   4.407  14.623  0.0062 -0.3234 -0.3112
 3902TIP3   OH233196   1.595   1.534   2.407 -0.4039 -0.3918  0.1531
 3902TIP3    H133197   1.639   1.470   2.351  0.1327 -1.3817  1.6566
 3902TIP3    H233198   1.665   1.573   2.459 -0.6882  1.6264 -0.8658
 3903TIP3   OH233199   3.295   5.724   1.749 -0.2719 -0.1138  0.4728
 3903TIP3    H133200   3.260   5.724   1.660  1.1242 -0.6041 -0.1038
 3903TIP3    H233201   3.379   5.677   1.742  0.6659  1.2871  1.7086
 3904TIP3   OH233202   5.974   0.357  13.008  0.8848 -0.0370  0.4760
 3904TIP3    H133203   6.043   0.358  12.942 -0.9293 -0.4147 -1.5477
 3904TIP3    H233204   5.909   0.420  12.975 -1.5150 -2.4820  0.1377
 3905TIP3   OH233205   6.336   4.573   1.392  0.3110 -0.1739  0.2321
 3905TIP3    H133206   6.425   4.604   1.411 -0.1204  1.4696 -0.3271
 3905TIP3    H233207   6.293   4.647   1.350 -0.8162 -1.5150 -1.0864
 3906TIP3   OH233208   6.799   6.318   0.640  0.0951  0.1443 -0.3528
 3906TIP3    H133209   6.767   6.336   0.728 -1.2024 -1.3474 -0.4783
 3906TIP3    H233210   6.891   6.296   0.652 -0.2352 -0.7114  0.7359
 3907TIP3   OH233211   4.775   4.378   0.970 -0.3110  0.1687  0.0360
 3907TIP3    H133212   4.710   4.441   0.999  2.1317  2.1288  1.7520
 3907TIP3    H233213   4.851   4.394   1.026  2.2288 -0.8517 -2.7998
 3908TIP3   OH233214   1.902   2.051   6.266  0.6008  0.1443 -0.1128
 3908TIP3    H133215   1.977   2.060   6.324  0.9114  0.4779 -0.5554
 3908TIP3    H233216   1.913   1.966   6.224  0.2779 -0.1785  0.4466
 3909TIP3   OH233217   1.484   1.649   6.692 -0.4357  0.5205 -0.9371
 3909TIP3    H133218   1.416   1.709   6.723 -0.2331 -0.4278  1.5413
 3909TIP3    H233219   1.440   1.564   6.687  0.6375 -0.2618  1.4304
 3910TIP3   OH233220   4.042   1.617  13.601 -0.1547 -0.1366  0.3348
 3910TIP3    H133221   4.083   1.578  13.678  0.3477  1.5957  0.9984
 3910TIP3    H233222   4.076   1.706  13.599 -2.8542  1.0011  0.1634
 3911TIP3   OH233223   0.578   1.286   3.088  0.2382  0.4531  0.1857
 3911TIP3    H133224   0.580   1.378   3.061  0.9689  0.7219  1.1276
 3911TIP3    H233225   0.643   1.280   3.158  0.4397 -0.8609 -0.0986
 3912TIP3   OH233226   6.194   2.641  15.273 -0.4699  0.0074 -0.5800
 3912TIP3    H133227   6.262   2.634  15.340 -1.8062  3.1374  1.3154
 3912TIP3    H233228   6.238   2.682  15.198 -0.0536  1.4170  0.3919
 3913TIP3   OH233229   6.352   5.784  11.325  0.7200 -0.5244  0.3003
 3913TIP3    H133230   6.360   5.741  11.240  1.3512 -0.7542  0.4718
 3913TIP3    H233231   6.403   5.864  11.317  2.1652 -1.3453  0.9768
 3914TIP3   OH233232   5.499   0.285  15.764 -0.1818  0.2024 -0.3712
 3914TIP3    H133233   5.407   0.279  15.789 -0.3068 -2.2558 -1.1661
 3914TIP3    H233234   5.505   0.368  15.716 -1.8807  0.6012  0.0280
 3915TIP3   OH233235   3.631   3.234  11.182 -0.6214  0.2966  0.1037
 3915TIP3    H133236   3.659   3.266  11.096 -1.9471  1.4281  0.0690
 3915TIP3    H233237   3.699   3.170  11.206 -0.1015  0.1097 -1.6661
 3916TIP3   OH233238   0.123   3.312   5.550  0.6562  0.1711  0.1980
 3916TIP3    H133239   0.039   3.322   5.505 -0.7816 -0.8450  2.4746
 3916TIP3    H233240   0.101   3.267   5.632  3.3558  0.3786  1.1298
 3917TIP3   OH233241   1.269   4.847   1.162 -0.0462  0.0068 -0.0027
 3917TIP3    H133242   1.268   4.846   1.258 -0.0991  1.1893  0.0295
 3917TIP3    H233243   1.233   4.933   1.139  0.4277 -0.0652 -1.0689
 3918TIP3   OH233244   5.753   3.768   2.118  0.5526 -0.4283 -0.1087
 3918TIP3    H133245   5.717   3.765   2.207 -2.7678  0.5824 -1.2686
 3918TIP3    H233246   5.806   3.847   2.116  1.2304 -0.8256  1.1265
 3919TIP3   OH233247   1.764   0.589  14.895 -0.1768 -0.2367 -0.7943
 3919TIP3    H133248   1.717   0.619  14.973 -1.3107 -1.0918 -1.1131
 3919TIP3    H233249   1.737   0.498  14.885  2.3441 -1.1111 -0.4413
 3920TIP3   OH233250   0.547   1.468  13.759  0.1205 -0.0117  0.7671
 3920TIP3    H133251   0.516   1.503  13.676 -1.7766  0.2616  1.5175
 3920TIP3    H233252   0.475   1.410  13.788  0.6229  0.0912  2.3084
 3921TIP3   OH233253   0.999   2.883  16.158  0.2136 -0.1475  0.2642
 3921TIP3    H133254   0.918   2.892  16.209  0.1193  0.3804  0.0275
 3921TIP3    H233255   1.000   2.960  16.101  0.4993 -0.5440 -0.2722
 3922TIP3   OH233256   3.638   0.028  14.701 -0.0600 -0.0086  0.0124
 3922TIP3    H133257   3.632   0.007  14.607  1.3682  1.3004 -0.4185
 3922TIP3    H233258   3.580  -0.035  14.743  0.5969 -1.8052 -1.5814
 3923TIP3   OH233259   2.225   4.488   2.374  0.5033  0.1683 -0.3660
 3923TIP3    H133260   2.289   4.443   2.319  2.1129  1.5835  0.2706
 3923TIP3    H233261   2.274   4.516   2.451 -1.0591  0.6861  0.4986
 3924TIP3   OH233262   4.301   6.396  15.893 -0.1589  0.1175  0.3465
 3924TIP3    H133263   4.297   6.314  15.844  0.0168  1.6073 -2.4015
 3924TIP3    H233264   4.213   6.408  15.928 -0.4711 -0.7526 -0.1080
 3925TIP3   OH233265   4.876   3.188  13.788  0.0006  0.2616 -0.3400
 3925TIP3    H133266   4.853   3.228  13.704 -1.3757  1.0331  0.3731
 3925TIP3    H233267   4.909   3.262  13.841  0.9920 -0.2420 -0.2230
 3926TIP3   OH233268   3.196   0.900  15.465  0.0817 -0.0503 -0.1084
 3926TIP3    H133269   3.181   0.904  15.371  0.5124  0.1857 -0.1726
 3926TIP3    H233270   3.151   0.976  15.501  1.3548  0.8569 -0.3397
 3927TIP3   OH233271   6.308   6.153   1.170 -0.3288 -0.2320  0.7188
 3927TIP3    H133272   6.358   6.171   1.090 -1.0407  0.1986  0.3603
 3927TIP3    H233273   6.353   6.203   1.238 -0.7988  0.9070  0.2195
 3928TIP3   OH233274   5.597   2.413  13.504 -0.3256 -0.0683  0.0871
 3928TIP3    H133275   5.565   2.333  13.546  0.6493  0.3924  1.7825
 3928TIP3    H233276   5.518   2.465  13.487 -0.8262 -0.7425  0.3271
 3929TIP3   OH233277   6.622   3.467  16.586  0.5066  0.6789  0.8017
 3929TIP3    H133278   6.657   3.482  16.674  3.3675 -0.7492  0.0360
 3929TIP3    H233279   6.646   3.377  16.566 -2.0946  0.2160 -0.6483
 3930TIP3   OH233280   0.236   6.124  13.721  0.5373  0.4327  0.4032
 3930TIP3    H133281   0.222   6.043  13.672 -2.5137  2.0681 -1.7615
 3930TIP3    H233282   0.326   6.149  13.700 -0.0178  0.0881 -3.0342
 3931TIP3   OH233283   3.123   3.920   5.069  0.3311  0.0799  0.0945
 3931TIP3    H133284   3.039   3.917   5.115  0.6409  0.4309  0.6841
 3931TIP3    H233285   3.102   3.891   4.980 -0.4483  0.3585  0.1824
 3932TIP3   OH233286   2.982   3.866  14.936  0.3745 -0.6915  0.3356
 3932TIP3    H133287   2.897   3.848  14.896  1.3931 -3.8676 -0.6730
 3932TIP3    H233288   3.045   3.854  14.866  1.8880 -1.7703  1.8121
 3933TIP3   OH233289   5.891   5.332   6.688 -0.2469 -0.1567 -0.3485
 3933TIP3    H133290   5.927   5.256   6.641 -0.1231  0.4034 -1.1780
 3933TIP3    H233291   5.797   5.318   6.687 -0.3232  0.3237 -1.6324
 3934TIP3   OH233292   1.293   5.733  13.908  0.1882  0.1969  0.6902
 3934TIP3    H133293   1.316   5.684  13.829 -0.1168  1.7513 -0.4121
 3934TIP3    H233294   1.243   5.671  13.961 -0.6098 -0.5567 -0.8632
 3935TIP3   OH233295   6.140   6.269   5.342 -0.2193  0.0756 -0.0411
 3935TIP3    H133296   6.090   6.334   5.390  0.0979  1.2173 -1.2025
 3935TIP3    H233297   6.096   6.263   5.257  0.2953 -0.5689 -0.2753
 3936TIP3   OH233298   5.318   0.904   1.714 -0.4284  0.0521 -0.4268
 3936TIP3    H133299   5.223   0.912   1.718 -0.3181  2.6402 -0.9244
 3936TIP3    H233300   5.350   0.963   1.782  0.8248 -0.7951 -0.2517
 3937TIP3   OH233301   6.600   6.326   4.803 -0.5882  0.6823  0.0256
 3937TIP3    H133302   6.539   6.280   4.861  0.8168  1.1245  1.9231
 3937TIP3    H233303   6.581   6.419   4.816 -0.8148  0.7817 -0.8936
 3938TIP3   OH233304   3.968   0.714  11.103 -0.0195  0.1972 -0.7487
 3938TIP3    H133305   3.929   0.781  11.047  0.7576  0.6253 -0.7853
 3938TIP3    H233306   3.981   0.756  11.187 -2.1178 -0.7376  0.1067
 3939TIP3   OH233307   6.205   0.323   2.848  0.3779  0.4811  0.3247
 3939TIP3    H133308   6.257   0.393   2.887 -0.1264  0.6879  0.6286
 3939TIP3    H233309   6.250   0.243   2.873 -0.1295  0.5815  1.6492
 3940TIP3   OH233310   5.658   4.501   2.989  0.6640  0.1572  0.4497
 3940TIP3    H133311   5.691   4.415   3.016  0.1790  0.9634  4.1334
 3940TIP3    H233312   5.714   4.564   3.035 -2.4039  1.6211  2.5756
 3941TIP3   OH233313   5.933   5.034   0.190 -0.2513  0.1470 -0.0846
 3941TIP3    H133314   5.911   4.942   0.178 -0.5010  0.3129 -0.9129
 3941TIP3    H233315   6.019   5.044   0.150 -0.9616  0.6365 -1.5395
 3942TIP3   OH233316   4.221   1.614  16.516 -0.0493 -0.0675  0.2192
 3942TIP3    H133317   4.187   1.644  16.601 -2.7193 -0.5486 -0.5933
 3942TIP3    H233318   4.180   1.673  16.452  0.6693 -0.7137 -0.8595
 3943TIP3   OH233319   1.581   2.504  15.193 -0.0377  0.2812 -0.0939
 3943TIP3    H133320   1.637   2.430  15.169  0.1529 -0.2014  1.7336
 3943TIP3    H233321   1.532   2.475  15.270  1.1162  2.5209  1.6170
 3944TIP3   OH233322   2.074   6.722   4.561  0.1400  0.3743  0.7118
 3944TIP3    H133323   2.132   6.790   4.596  0.5076  0.6611 -0.4118
 3944TIP3    H233324   2.041   6.759   4.479 -0.3920 -0.4317  0.5538
 3945TIP3   OH233325   1.912   3.528   1.300 -0.7953 -0.4603 -0.3775
 3945TIP3    H133326   1.903   3.437   1.326 -0.1675 -0.4772 -0.2255
 3945TIP3    H233327   1.856   3.536   1.222 -1.5323 -0.7548  0.1139
 3946TIP3   OH233328   6.433   5.520  14.754 -0.3373 -0.3423 -0.5934
 3946TIP3    H133329   6.499   5.495  14.819  2.7552  1.4432 -2.7584
 3946TIP3    H233330   6.447   5.459  14.681  0.3763  1.2356 -1.8508
 3947TIP3   OH233331   6.032   6.097   0.508  0.3902 -0.3917  0.3024
 3947TIP3    H133332   5.974   6.049   0.449 -0.2939  0.5223  0.2070
 3947TIP3    H233333   6.120   6.080   0.474  0.5363 -4.0031  2.0044
 3948TIP3   OH233334   4.198   2.362  16.633  0.0575 -0.0355  0.1335
 3948TIP3    H133335   4.111   2.381  16.666 -0.1032 -0.5680  0.0178
 3948TIP3    H233336   4.253   2.433  16.668 -0.6014  0.8587 -0.6028
 3949TIP3   OH233337   1.934   5.027  11.965 -0.3996  0.0042 -0.3567
 3949TIP3    H133338   1.948   5.068  11.879 -0.2037 -1.1032 -0.8714
 3949TIP3    H233339   2.004   5.063  12.020  0.9634 -1.0288 -1.3251
 3950TIP3   OH233340   3.476   3.894   2.558 -0.1754 -0.1934  0.0220
 3950TIP3    H133341   3.572   3.896   2.556 -0.1786  0.6248  0.7272
 3950TIP3    H233342   3.452   3.858   2.472  0.6979  1.9196 -1.1719
 3951TIP3   OH233343   3.270   6.782   2.275  0.0524  0.1876 -0.0024
 3951TIP3    H133344   3.317   6.854   2.234  0.1330  0.1884  0.0921
 3951TIP3    H233345   3.203   6.824   2.329 -2.1742  0.1864 -2.5760
 3952TIP3   OH233346   4.498   1.998  13.490 -0.3117 -0.1616  0.1011
 3952TIP3    H133347   4.551   2.020  13.567  0.1473  2.4087 -0.8332
 3952TIP3    H233348   4.562   1.970  13.424 -0.0959  2.1202 -0.7531
 3953TIP3   OH233349   3.695   6.406  17.161  0.1175 -0.7103  0.1155
 3953TIP3    H133350   3.687   6.312  17.175 -1.9274 -0.4501  0.9582
 3953TIP3    H233351   3.650   6.446  17.236 -0.0063  0.9167 -0.7812
 3954TIP3   OH233352   1.744   2.478   1.678  0.4071 -0.5003  0.0476
 3954TIP3    H133353   1.732   2.508   1.588 -0.4095 -1.9417 -0.3514
 3954TIP3    H233354   1.713   2.551   1.732 -2.1148 -0.8010 -0.8929
 3955TIP3   OH233355   3.681   1.575   4.511 -0.0217 -1.0492  0.6060
 3955TIP3    H133356   3.776   1.573   4.502 -0.1282 -1.5402 -0.7399
 3955TIP3    H233357   3.648   1.563   4.421 -1.3511 -1.6283  1.1379
 3956TIP3   OH233358   6.372   3.251   2.909  0.2497 -0.0731  0.3814
 3956TIP3    H133359   6.441   3.313   2.886 -0.7509  0.7453 -0.5375
 3956TIP3    H233360   6.351   3.271   3.000  1.6869 -0.8080  0.8938
 3957TIP3   OH233361   0.775   4.129  12.166  0.1599 -0.2843 -0.0544
 3957TIP3    H133362   0.853   4.125  12.221 -0.2602  0.3507  0.5963
 3957TIP3    H233363   0.766   4.221  12.143 -0.4659 -0.3387 -0.0348
 3958TIP3   OH233364   5.834   3.600  11.296 -0.2793  0.1380  0.4802
 3958TIP3    H133365   5.846   3.602  11.391  2.1380 -0.4502  0.2650
 3958TIP3    H233366   5.891   3.529  11.266 -2.6305 -1.1313 -1.2600
 3959TIP3   OH233367   4.882   3.599  11.928 -0.3188 -0.0803 -0.5402
 3959TIP3    H133368   4.977   3.609  11.931 -0.2268 -0.3055 -1.9469
 3959TIP3    H233369   4.865   3.568  11.839 -1.6789 -0.3850 -0.1858
 3960TIP3   OH233370   2.749   3.327   5.744 -0.5323 -0.0823 -0.6042
 3960TIP3    H133371   2.746   3.242   5.789 -1.9719  0.9830  1.5020
 3960TIP3    H233372   2.842   3.343   5.729 -0.0655 -0.9922  1.0817
 3961TIP3   OH233373   0.166   1.123   2.059 -0.1198 -0.2330 -0.7052
 3961TIP3    H133374   0.151   1.110   1.965  1.0102  1.8110 -1.2413
 3961TIP3    H233375   0.171   1.218   2.069 -0.2558 -0.4150  1.4509
 3962TIP3   OH233376   3.842   5.849  12.997 -0.1185 -0.2108 -0.4627
 3962TIP3    H133377   3.832   5.758  13.023  1.2409 -0.2705 -0.0534
 3962TIP3    H233378   3.757   5.889  13.014 -0.7374 -1.3975 -0.6634
 3963TIP3   OH233379   6.064   3.174   3.895 -0.0042 -0.0628 -0.4350
 3963TIP3    H133380   6.010   3.106   3.937  1.5150 -0.9685  0.1251
 3963TIP3    H233381   6.095   3.133   3.814 -1.8056  1.2019 -1.8662
 3964TIP3   OH233382   1.376   6.646  13.562  0.2374 -0.1169  0.3796
 3964TIP3    H133383   1.376   6.561  13.519  0.0518 -0.1270  0.3987
 3964TIP3    H233384   1.300   6.692  13.524  1.0325  0.4939 -0.5339
 3965TIP3   OH233385   3.517   1.073  13.403  0.1494 -0.2606  0.1547
 3965TIP3    H133386   3.467   1.141  13.357 -0.5475 -0.6117  0.3801
 3965TIP3    H233387   3.605   1.079  13.366 -0.2492 -0.1499 -0.8227
 3966TIP3   OH233388   0.388   6.084  11.352  0.3579 -0.0496  0.2000
 3966TIP3    H133389   0.309   6.044  11.314  1.0375  1.5512 -3.2809
 3966TIP3    H233390   0.355   6.141  11.421 -1.3255 -0.8342  0.0974
 3967TIP3   OH233391   1.478   5.650  15.480  0.4904 -0.9785 -0.5278
 3967TIP3    H133392   1.389   5.617  15.488  0.0367  0.3785  0.4314
 3967TIP3    H233393   1.506   5.664  15.571  0.6934  1.0724 -0.8558
 3968TIP3   OH233394   3.085   2.351   1.127 -0.7767 -0.6958  0.8087
 3968TIP3    H133395   3.106   2.298   1.204  0.3691 -1.6058 -0.1086
 3968TIP3    H233396   3.167   2.395   1.105 -1.3166  0.2343  0.6014
 3969TIP3   OH233397   1.313   2.530  15.671 -0.0393 -0.1964  0.5389
 3969TIP3    H133398   1.374   2.472  15.625  0.5074 -0.2738  1.3357
 3969TIP3    H233399   1.227   2.507  15.636  0.2536 -0.9825  0.3093
 3970TIP3   OH233400   4.140   0.827   4.719  0.0793 -0.2018  0.3042
 3970TIP3    H133401   4.193   0.749   4.732  0.6683  0.2054  0.3815
 3970TIP3    H233402   4.178   0.893   4.777  2.0044  1.3034 -2.4252
 3971TIP3   OH233403   6.514   4.556  11.762 -0.0302 -0.3769  0.0247
 3971TIP3    H133404   6.605   4.533  11.745 -0.1703  0.7969 -2.9534
 3971TIP3    H233405   6.509   4.650  11.743 -2.1070 -0.6977 -1.3324
 3972TIP3   OH233406   5.515   1.216   3.850  0.0210 -0.1188  0.2518
 3972TIP3    H133407   5.477   1.223   3.938  0.5701  0.5995  0.4413
 3972TIP3    H233408   5.560   1.299   3.837  0.9129 -0.6667 -0.2495
 3973TIP3   OH233409   3.981   5.663   3.313  0.2538  0.8949 -0.3337
 3973TIP3    H133410   4.018   5.617   3.388 -1.5387  0.8925  0.6125
 3973TIP3    H233411   4.021   5.750   3.316  1.6127  0.2915 -0.5188
 3974TIP3   OH233412   4.845   0.452   4.468  0.0013 -0.6773 -0.0614
 3974TIP3    H133413   4.775   0.517   4.465  2.0764  1.6771 -1.9855
 3974TIP3    H233414   4.883   0.462   4.556 -0.9039 -0.6646  0.3332
 3975TIP3   OH233415   5.326   2.232   2.958  0.4441 -0.2782  0.3313
 3975TIP3    H133416   5.361   2.185   3.033 -0.2548  1.2548  1.6612
 3975TIP3    H233417   5.269   2.168   2.914  0.1828 -0.9462  1.6017
 3976TIP3   OH233418   2.567   5.070   0.964 -0.2384  0.2196  0.2452
 3976TIP3    H133419   2.493   5.121   0.931 -0.1797  0.5912  0.6704
 3976TIP3    H233420   2.581   5.002   0.898 -1.1274 -0.0244  0.2948
 3977TIP3   OH233421   1.495   5.897  12.719  0.2410 -0.2010  0.0468
 3977TIP3    H133422   1.531   5.873  12.804  0.9517 -1.5115 -0.6009
 3977TIP3    H233423   1.402   5.874  12.725  0.5833 -1.6806 -0.0041
 3978TIP3   OH233424   6.800   2.032   5.125  0.7326  0.2628 -0.0664
 3978TIP3    H133425   6.733   2.100   5.126 -0.3946 -0.7767 -0.9307
 3978TIP3    H233426   6.796   1.994   5.213 -0.9177 -0.7572 -0.5230
 3979TIP3   OH233427   2.116   1.421  14.236  0.1050  0.5591 -0.0370
 3979TIP3    H133428   2.195   1.475  14.243  0.3475  0.2093 -0.0380
 3979TIP3    H233429   2.070   1.435  14.319 -1.3041  3.0022 -1.1140
 3980TIP3   OH233430   4.937   1.966   4.309  0.2531  0.4457 -0.1695
 3980TIP3    H133431   5.005   2.032   4.296  0.1264  0.3761 -1.3621
 3980TIP3    H233432   4.984   1.882   4.306  0.6794  0.4472  3.0947
 3981TIP3   OH233433   3.182   4.205  15.802 -0.3881 -0.2884  0.8339
 3981TIP3    H133434   3.252   4.264  15.830  1.5436 -2.0231 -0.0264
 3981TIP3    H233435   3.175   4.140  15.872  1.7596 -2.4008 -0.7403
 3982TIP3   OH233436   0.544   3.686  12.877 -0.2095 -0.8514  0.1199
 3982TIP3    H133437   0.498   3.603  12.893 -1.0215 -0.9914 -2.3529
 3982TIP3    H233438   0.636   3.661  12.868 -0.2954 -1.3206  0.5121
 3983TIP3   OH233439   3.389   0.473  16.311  0.2887 -0.5827  0.0424
 3983TIP3    H133440   3.327   0.538  16.280  1.6638  0.2720 -1.0766
 3983TIP3    H233441   3.336   0.409  16.358 -1.1182  1.3299  1.2150
 3984TIP3   OH233442   6.134   6.120  14.799 -0.4065 -0.1691  0.4219
 3984TIP3    H133443   6.196   6.114  14.726  1.7875  1.0693  2.0719
 3984TIP3    H233444   6.093   6.206  14.788  2.4771  1.6311  2.4008
 3985TIP3   OH233445   6.281   1.452  16.867  0.4629 -0.5478  0.3988
 3985TIP3    H133446   6.228   1.411  16.935  0.0041  0.5293  0.7076
 3985TIP3    H233447   6.305   1.380  16.809 -0.4718 -1.2253  0.8258
 3986TIP3   OH233448   5.566   0.864  15.851  0.3956 -0.2655 -0.3974
 3986TIP3    H133449   5.612   0.884  15.933 -0.3404  4.7898 -0.8915
 3986TIP3    H233450   5.474   0.861  15.876  0.3007 -0.4383 -0.7687
 3987TIP3   OH233451   5.422   4.574  13.640 -0.5114  0.0701  0.8021
 3987TIP3    H133452   5.490   4.517  13.676  0.3723 -0.2383 -1.2219
 3987TIP3    H233453   5.348   4.564  13.699  0.5256 -1.1501  1.9412
 3988TIP3   OH233454   5.717   0.154   5.802 -0.1126 -0.7086  0.2710
 3988TIP3    H133455   5.742   0.124   5.890 -0.7103 -1.4448  0.1965
 3988TIP3    H233456   5.635   0.202   5.815 -0.3694 -1.0902  0.0768
 3989TIP3   OH233457   2.969   5.485  14.502  0.6914 -0.5558  0.0258
 3989TIP3    H133458   3.060   5.498  14.475  0.3280  1.2648 -0.4893
 3989TIP3    H233459   2.961   5.534  14.584 -0.0164  0.0029 -0.3652
 3990TIP3   OH233460   6.194   5.626  14.781 -0.0676  0.2339 -0.0619
 3990TIP3    H133461   6.285   5.598  14.787 -0.4772 -1.8066 -2.0374
 3990TIP3    H233462   6.145   5.561  14.833 -0.6206 -0.2755 -1.1790
 3991TIP3   OH233463   4.604   2.209   3.393  0.1909  0.2754 -0.0040
 3991TIP3    H133464   4.587   2.116   3.401 -0.7463  0.4626  0.2938
 3991TIP3    H233465   4.598   2.226   3.299 -3.7595  0.7227  0.1564
 3992TIP3   OH233466   3.630   1.428  15.240  0.5744  0.3029  0.7021
 3992TIP3    H133467   3.697   1.451  15.176  0.1409  0.4165  0.2954
 3992TIP3    H233468   3.593   1.511  15.268  0.9707  0.2785  1.3365
 3993TIP3   OH233469   0.602   3.668   0.253 -0.0878  0.0377  0.1486
 3993TIP3    H133470   0.589   3.759   0.279  0.5650 -0.4992  2.5408
 3993TIP3    H233471   0.521   3.645   0.206 -1.4935  1.0411  1.9676
 3994TIP3   OH233472   3.181   0.324  16.740 -0.6170 -0.1894  0.7639
 3994TIP3    H133473   3.133   0.262  16.686 -0.1190 -1.0238  1.2555
 3994TIP3    H233474   3.133   0.325  16.823  0.1163 -0.9290  1.2126
 3995TIP3   OH233475   2.536   2.832  15.420 -0.2167 -0.0027  0.3331
 3995TIP3    H133476   2.464   2.894  15.412 -1.0448 -0.9964 -0.1127
 3995TIP3    H233477   2.569   2.821  15.331  1.3695  1.4174  0.6895
 3996TIP3   OH233478   3.477   1.923   3.872 -0.0903  0.3934  0.6163
 3996TIP3    H133479   3.382   1.928   3.878 -0.0559  0.8224  0.8648
 3996TIP3    H233480   3.499   1.834   3.899 -0.2437  0.9999  3.0125
 3997TIP3   OH233481   6.462   5.068   3.749  0.3226  0.3578 -0.6480
 3997TIP3    H133482   6.420   5.108   3.825 -0.5820 -1.1536 -0.3227
 3997TIP3    H233483   6.553   5.099   3.752  1.2483 -2.1147  2.9291
 3998TIP3   OH233484   1.252   4.380   4.984 -0.1786  0.3546 -0.1749
 3998TIP3    H133485   1.217   4.447   4.926  0.0445  0.3789 -0.2838
 3998TIP3    H233486   1.330   4.420   5.022  0.4223 -0.1325 -0.8700
 3999TIP3   OH233487   4.860   1.216   0.336  0.1188  0.7394  0.3605
 3999TIP3    H133488   4.782   1.235   0.389 -1.0182 -0.0229 -0.9597
 3999TIP3    H233489   4.934   1.230   0.396 -1.1141 -0.7480  2.3826
 4000TIP3   OH233490   5.583   6.150   1.554 -0.2173 -0.3494  0.1321
 4000TIP3    H133491   5.654   6.087   1.564  1.5637  1.5748  0.3889
 4000TIP3    H233492   5.511   6.100   1.516  0.9503 -2.5833  0.7016
 4001TIP3   OH233493   0.938   3.442  12.976 -0.1341  0.3571  0.0233
 4001TIP3    H133494   1.001   3.378  13.008 -0.6829 -1.6466 -2.5554
 4001TIP3    H233495   0.915   3.494  13.053  2.4582 -0.6946  1.6379
 4002TIP3   OH233496   4.588   1.315   0.924  0.4297  0.7548 -0.1984
 4002TIP3    H133497   4.591   1.242   0.986  1.9149  0.7848 -0.2201
 4002TIP3    H233498   4.543   1.279   0.847  1.5251 -0.2832 -0.3792
 4003TIP3   OH233499   6.452   1.444  14.467 -0.0089  0.3405 -0.0935
 4003TIP3    H133500   6.453   1.515  14.403 -1.0882  1.2008  0.7947
 4003TIP3    H233501   6.537   1.449  14.510 -0.0556  1.0762 -0.0769
 4004TIP3   OH233502   6.544   0.873   2.886 -0.1573  0.5734 -0.3196
 4004TIP3    H133503   6.632   0.841   2.909 -0.4628  0.7211  1.1069
 4004TIP3    H233504   6.496   0.874   2.968 -1.2284  1.3960 -0.9306
 4005TIP3   OH233505   0.929   1.970  15.688  0.2069 -0.4687 -0.1408
 4005TIP3    H133506   0.972   1.890  15.659  0.5841 -0.1026 -0.6009
 4005TIP3    H233507   0.921   2.024  15.609  0.7044  0.2963  0.3160
 4006TIP3   OH233508   0.940   6.024  16.087 -0.2541 -0.3491 -0.2235
 4006TIP3    H133509   0.905   6.105  16.049  0.9491 -0.0558 -0.7482
 4006TIP3    H233510   0.917   5.956  16.023 -1.7624 -0.5583  0.4831
 4007TIP3   OH233511   3.833   4.649  15.952 -0.1432  0.3579 -0.1939
 4007TIP3    H133512   3.866   4.559  15.947  0.0563  0.4564 -0.6561
 4007TIP3    H233513   3.787   4.662  15.869  1.1047  1.1835 -0.7828
 4008TIP3   OH233514   1.773   5.676  15.635  0.5077 -0.3126 -0.9298
 4008TIP3    H133515   1.836   5.701  15.702 -0.5995  0.3908 -0.1129
 4008TIP3    H233516   1.761   5.755  15.582  0.1036 -0.3497 -0.8966
 4009TIP3   OH233517   5.833   1.413  12.709 -0.1361 -0.0013 -0.1066
 4009TIP3    H133518   5.841   1.472  12.634 -0.9172 -2.4032 -2.2558
 4009TIP3    H233519   5.922   1.404  12.743  0.3402  0.7592 -1.1009
 4010TIP3   OH233520   1.065   1.958   0.023  0.2465  0.2177 -0.4645
 4010TIP3    H133521   1.146   1.909   0.036  0.6218  0.4889 -1.6407
 4010TIP3    H233522   1.083   2.044   0.060  0.5440  0.3150 -0.8296
 4011TIP3   OH233523   0.147   4.361  14.823  0.1598 -0.4721 -0.5273
 4011TIP3    H133524   0.163   4.403  14.908 -0.0747 -0.7804 -0.3257
 4011TIP3    H233525   0.233   4.356  14.782 -0.0365  2.0032 -1.4296
 4012TIP3   OH233526   5.485   6.068  17.080 -0.0481  0.4139 -0.3199
 4012TIP3    H133527   5.423   6.071  17.152 -1.7971 -2.3157 -1.5116
 4012TIP3    H233528   5.542   5.993  17.100  0.4920  0.6243 -1.0138
 4013TIP3   OH233529   6.549   2.001  16.863  0.0449  0.0824  0.0545
 4013TIP3    H133530   6.594   2.077  16.900  0.0986 -0.0832  0.3274
 4013TIP3    H233531   6.489   2.038  16.798  1.6014  0.2212 -1.3842
 4014TIP3   OH233532   1.055   1.203   6.550 -0.4597 -0.0825 -0.5508
 4014TIP3    H133533   1.081   1.281   6.599  1.2036 -0.7864 -0.2595
 4014TIP3    H233534   1.137   1.162   6.525 -1.3103 -1.3073 -1.4244
 4015TIP3   OH233535   5.573   2.593  10.575  0.0848  0.2105 -0.3979
 4015TIP3    H133536   5.665   2.608  10.593 -0.2899  0.6817  1.3002
 4015TIP3    H233537   5.561   2.499  10.591 -0.1118  0.5088  1.4095
 4016TIP3   OH233538   4.633   5.977  16.030  0.0091 -0.5949  0.0167
 4016TIP3    H133539   4.659   5.999  15.940  1.9192  1.3019  0.9333
 4016TIP3    H233540   4.679   5.896  16.049 -1.0536 -1.4550 -0.9552
 4017TIP3   OH233541   6.677   0.538   4.446  0.2580 -0.3340 -0.1461
 4017TIP3    H133542   6.623   0.604   4.490  0.2068 -0.8941  0.6478
 4017TIP3    H233543   6.689   0.573   4.357 -0.4303  0.3574  0.0179
 4018TIP3   OH233544   0.398   6.480  15.260  0.4480  0.0630 -0.3859
 4018TIP3    H133545   0.309   6.515  15.263 -0.4681 -1.9266 -2.3920
 4018TIP3    H233546   0.387   6.386  15.251  2.7111 -0.1089 -2.2988
 4019TIP3   OH233547   6.320   4.276  13.832  0.0569 -0.4439  0.1050
 4019TIP3    H133548   6.272   4.259  13.913  0.7682  0.4068  0.7217
 4019TIP3    H233549   6.267   4.341  13.786 -1.0701 -1.9330 -0.8057
 4020TIP3   OH233550   4.255   3.088   5.593 -0.3984 -0.5566  0.0423
 4020TIP3    H133551   4.217   3.096   5.506 -0.9652  0.4757  0.3670
 4020TIP3    H233552   4.340   3.047   5.579 -0.5648 -0.5691 -0.9718
 4021TIP3   OH233553   3.229   2.801  10.048 -0.7039  0.8712 -0.0712
 4021TIP3    H133554   3.288   2.849  10.106  0.1492  1.2247 -1.1766
 4021TIP3    H233555   3.180   2.870  10.002 -1.0158  0.6195 -0.1177
 4022TIP3   OH233556   3.691   4.284   0.180  0.3361 -0.0706 -0.1313
 4022TIP3    H133557   3.691   4.199   0.223  1.1287  0.3780  0.7963
 4022TIP3    H233558   3.728   4.268   0.093  1.0455 -0.5645  0.2632
 4023TIP3   OH233559   1.342   0.048   4.377 -0.1475  0.2373  0.2436
 4023TIP3    H133560   1.282   0.099   4.323  0.8758  1.0271 -0.2034
 4023TIP3    H233561   1.332   0.085   4.465  0.5199  1.1732 -0.0604
 4024TIP3   OH233562   5.713   2.013  14.553  0.6593 -0.0390  0.1045
 4024TIP3    H133563   5.794   2.059  14.530  0.4277  0.7705  0.8431
 4024TIP3    H233564   5.649   2.042  14.487  1.1014 -1.1481 -0.8461
 4025TIP3   OH233565   5.760   3.836  14.053  0.2758 -0.1012  0.0335
 4025TIP3    H133566   5.774   3.924  14.019  2.6103 -0.6637 -0.6062
 4025TIP3    H233567   5.842   3.814  14.096 -0.2514 -1.9956  0.1335
 4026TIP3   OH233568   5.690   3.080  13.778  0.0414 -0.3227  0.0037
 4026TIP3    H133569   5.603   3.103  13.813 -0.1416 -2.8959  1.4463
 4026TIP3    H233570   5.744   3.156  13.800 -1.7141  1.2300 -0.6613
 4027TIP3   OH233571   4.243   1.240  11.571 -0.5159  0.0717  0.7433
 4027TIP3    H133572   4.324   1.288  11.591 -0.2800  0.8409 -1.7269
 4027TIP3    H233573   4.174   1.293  11.611 -0.1364  1.8330 -0.7852
 4028TIP3   OH233574   4.436   2.047  12.634  0.1819  0.4263  0.6392
 4028TIP3    H133575   4.487   1.999  12.699  1.1809 -0.2848 -0.6245
 4028TIP3    H233576   4.501   2.090  12.578 -0.6287  0.6792 -0.1471
 4029TIP3   OH233577   4.583   2.532  15.632 -0.2737 -0.4581  0.4936
 4029TIP3    H133578   4.642   2.457  15.630  1.6251  0.9540 -0.6143
 4029TIP3    H233579   4.517   2.512  15.566 -0.5293 -1.6771  1.0985
 4030TIP3   OH233580   0.153   1.692  14.545  0.0321  0.2894  0.6428
 4030TIP3    H133581   0.214   1.663  14.478 -0.4072  1.7344 -0.4445
 4030TIP3    H233582   0.208   1.737  14.609  0.3514 -0.3517  0.8305
 4031TIP3   OH233583   2.745   6.061   5.014 -0.4189 -0.5192  0.2533
 4031TIP3    H133584   2.767   5.997   4.947 -1.1530 -0.7109  0.1956
 4031TIP3    H233585   2.830   6.089   5.048 -0.0470 -0.5289 -0.6468
 4032TIP3   OH233586   2.984   3.362   4.434 -0.1216  0.1806 -0.0252
 4032TIP3    H133587   3.025   3.285   4.475  1.7363  1.1025 -0.0315
 4032TIP3    H233588   2.891   3.352   4.453  0.2854 -1.1308  1.5502
 4033TIP3   OH233589   3.647   1.011  14.754 -0.0481 -0.2512 -0.6852
 4033TIP3    H133590   3.706   0.975  14.820  0.4824  0.8858 -0.5297
 4033TIP3    H233591   3.688   0.989  14.670 -0.8250 -1.8768 -0.6904
 4034TIP3   OH233592   4.538   6.378  14.868  0.4475 -0.1889 -0.3065
 4034TIP3    H133593   4.571   6.289  14.881 -0.6228 -0.4309  1.1112
 4034TIP3    H233594   4.453   6.366  14.827  0.0605  0.1351  0.3822
 4035TIP3   OH233595   1.871   0.621  14.511 -0.2175 -0.1746  0.3917
 4035TIP3    H133596   1.784   0.585  14.529 -0.4142  1.0289  2.0809
 4035TIP3    H233597   1.858   0.716  14.510  1.7458  0.4766  5.7270
 4036TIP3   OH233598   5.319   2.659  16.663 -0.2855  0.6151  0.0735
 4036TIP3    H133599   5.240   2.708  16.685 -1.1001 -1.5463  2.5071
 4036TIP3    H233600   5.376   2.670  16.738  0.6783  0.1352 -0.5736
 4037TIP3   OH233601   4.220   1.392   3.569  1.1017 -0.1128 -0.6635
 4037TIP3    H133602   4.202   1.304   3.537 -0.7386 -0.5610  1.3946
 4037TIP3    H233603   4.143   1.443   3.541  0.4469 -0.0435  1.1185
 4038TIP3   OH233604   0.007   4.617  14.066 -0.5899 -0.7946  0.0473
 4038TIP3    H133605   0.052   4.679  14.123 -1.0792  0.0559 -0.4772
 4038TIP3    H233606  -0.001   4.537  14.119  1.2356 -0.8634  0.2599
 4039TIP3   OH233607   6.027   3.664   6.181  0.3437  0.4016 -0.4160
 4039TIP3    H133608   5.984   3.584   6.209  0.3897  1.0752  1.7214
 4039TIP3    H233609   5.955   3.726   6.164  0.3742  0.6929  0.4893
 4040TIP3   OH233610   0.968   1.789   1.193  0.2991  0.0824  0.2270
 4040TIP3    H133611   1.050   1.821   1.156  0.5652 -1.5232 -0.6263
 4040TIP3    H233612   0.976   1.806   1.287  1.5341  0.0776  0.1340
 4041TIP3   OH233613   2.762   5.998  15.550 -0.6626  1.1616 -0.5053
 4041TIP3    H133614   2.757   6.082  15.595 -1.0500  2.0500 -2.1223
 4041TIP3    H233615   2.679   5.955  15.570 -1.2788  1.9945 -1.1736
 4042TIP3   OH233616   5.068   2.040  12.683 -0.3226  0.0431 -0.2510
 4042TIP3    H133617   5.028   1.985  12.615 -0.1687 -0.5821  0.1657
 4042TIP3    H233618   5.027   2.011  12.764  0.4696 -0.1189  0.0934
 4043TIP3   OH233619   6.358   4.744  13.204 -0.4863  0.1463  0.1088
 4043TIP3    H133620   6.351   4.715  13.295 -1.0966 -0.8528 -0.2448
 4043TIP3    H233621   6.334   4.668  13.152 -1.5809  1.1228 -0.8695
 4044TIP3   OH233622   3.210   4.820  14.210  0.0050  0.5642 -0.1219
 4044TIP3    H133623   3.175   4.850  14.126  1.3461  0.5120 -0.7218
 4044TIP3    H233624   3.192   4.726  14.211  0.7766  0.3958 -0.7734
 4045TIP3   OH233625   2.943   3.849   0.987 -0.1479  0.1760 -0.3729
 4045TIP3    H133626   2.970   3.850   1.079  2.1496 -1.9678 -0.9177
 4045TIP3    H233627   2.863   3.900   0.985 -0.3361  0.1952  2.8485
 4046TIP3   OH233628   0.174   6.554   5.061  0.2134 -0.1229 -0.0032
 4046TIP3    H133629   0.152   6.511   4.978  0.4765 -2.1461  0.9110
 4046TIP3    H233630   0.267   6.536   5.072  0.5373  1.4604  0.0238
 4047TIP3   OH233631   1.671   2.629  12.669 -0.2300  0.1349  0.1770
 4047TIP3    H133632   1.616   2.625  12.590 -0.3057 -1.3072  0.2770
 4047TIP3    H233633   1.689   2.722  12.680 -2.0659  0.5916 -0.2730
 4048TIP3   OH233634   2.192   3.953  12.753 -0.2961  0.4535  0.3068
 4048TIP3    H133635   2.183   4.015  12.825  2.2174 -0.6672  1.7029
 4048TIP3    H233636   2.275   3.977  12.711  0.3763 -1.4797  0.4364
 4049TIP3   OH233637   4.760   2.388  14.717  0.0892 -0.0995  0.0058
 4049TIP3    H133638   4.747   2.411  14.809  1.4881 -0.8780  0.4175
 4049TIP3    H233639   4.771   2.293  14.717  1.3333  0.0297 -0.8089
 4050TIP3   OH233640   6.566   6.623  12.472 -0.0386  0.3649  0.2359
 4050TIP3    H133641   6.531   6.555  12.530  2.2642 -1.1594 -0.0271
 4050TIP3    H233642   6.530   6.601  12.386 -0.1192  0.1056  0.3313
 4051TIP3   OH233643   2.284   4.963  14.302 -0.0205  0.4113  0.2779
 4051TIP3    H133644   2.296   4.970  14.208 -1.4655 -1.3660 -0.0765
 4051TIP3    H233645   2.271   5.054  14.331 -0.1220  0.9304 -1.3002
 4052TIP3   OH233646   0.466   0.255  10.532  0.5104 -0.0013 -0.2678
 4052TIP3    H133647   0.403   0.186  10.508 -0.1669  0.7438 -0.6744
 4052TIP3    H233648   0.552   0.217  10.513  0.2939 -1.5092  1.4718
 4053TIP3   OH233649   3.079   6.376   6.332  0.4440  0.0721 -0.2256
 4053TIP3    H133650   3.016   6.440   6.299 -2.2926 -3.2194 -2.0285
 4053TIP3    H233651   3.160   6.426   6.343 -1.9240  4.1844  0.4768
 4054TIP3   OH233652   0.275   2.361  13.265  0.0599 -0.0763 -0.1913
 4054TIP3    H133653   0.213   2.370  13.193  1.5745 -1.8495 -1.8509
 4054TIP3    H233654   0.229   2.307  13.330 -0.2686 -1.1650 -1.2876
 4055TIP3   OH233655   0.401   3.808   5.338 -0.2481 -0.2401  0.2598
 4055TIP3    H133656   0.467   3.778   5.401  0.1382 -1.0678 -0.5097
 4055TIP3    H233657   0.451   3.855   5.272 -0.3063 -1.4238 -0.6700
 4056TIP3   OH233658   6.822   2.369   5.992 -0.7418  0.3143 -0.2132
 4056TIP3    H133659   6.901   2.363   5.937  0.9779 -3.8251  2.2536
 4056TIP3    H233660   6.813   2.463   6.009  3.1031  1.1067 -1.3832
 4057TIP3   OH233661   4.891   5.579   3.644  0.1398 -0.4425  0.6545
 4057TIP3    H133662   4.828   5.642   3.679 -0.6551 -1.3276  0.8848
 4057TIP3    H233663   4.868   5.569   3.552  1.5526  1.0835  0.0877
 4058TIP3   OH233664   5.500   1.706  15.458  0.4624 -0.4766  0.2247
 4058TIP3    H133665   5.576   1.660  15.493  0.2926 -1.3668 -0.5241
 4058TIP3    H233666   5.494   1.677  15.367 -1.9864 -2.1142  0.8036
 4059TIP3   OH233667   3.277   5.496   0.795  0.1516 -0.0202  0.4409
 4059TIP3    H133668   3.354   5.486   0.740 -0.8264 -2.5584 -0.6538
 4059TIP3    H233669   3.220   5.556   0.746 -0.2337 -1.3762 -0.8738
 4060TIP3   OH233670   5.817   2.541  13.829  0.5283 -0.1437 -0.4174
 4060TIP3    H133671   5.777   2.476  13.887 -1.9449  1.9447  0.4235
 4060TIP3    H233672   5.794   2.625  13.868  2.5504  1.3028 -2.1060
 4061TIP3   OH233673   6.156   2.939   1.135  0.1597 -0.1374  0.3769
 4061TIP3    H133674   6.137   2.895   1.218 -1.5396 -3.1137 -1.4324
 4061TIP3    H233675   6.077   2.990   1.116 -1.1873 -2.6490 -1.2107
 4062TIP3   OH233676   4.049   3.230  11.479  0.9892 -0.4562  0.1699
 4062TIP3    H133677   4.086   3.159  11.531 -1.1205 -2.7103 -1.1722
 4062TIP3    H233678   3.957   3.235  11.507  0.8905  1.2202 -0.3449
 4063TIP3   OH233679   4.091   4.117   5.270  0.7179  0.4661 -0.1329
 4063TIP3    H133680   4.176   4.075   5.264  1.4155  1.8080 -0.1092
 4063TIP3    H233681   4.071   4.118   5.364  0.7816  0.3356 -0.1186
 4064TIP3   OH233682   3.031   2.574  15.423  0.4238 -0.1963  0.2395
 4064TIP3    H133683   2.938   2.555  15.411  0.3455  0.6872 -0.6392
 4064TIP3    H233684   3.056   2.625  15.346  1.3307  0.6899  1.0826
 4065TIP3   OH233685   2.361   4.661  14.835  0.5793 -0.3475  0.1521
 4065TIP3    H133686   2.345   4.702  14.920 -0.4252 -1.3585  0.4650
 4065TIP3    H233687   2.285   4.685  14.782  1.4748  0.7617 -0.6705
 4066TIP3   OH233688   6.640   6.051  14.232 -0.1994 -0.0734 -0.6040
 4066TIP3    H133689   6.652   6.069  14.139 -1.9514  1.1323 -0.6426
 4066TIP3    H233690   6.589   5.970  14.235 -0.1499 -0.1077 -0.6764
 4067TIP3   OH233691   2.373   4.020   4.701 -0.5852 -0.4764  0.0401
 4067TIP3    H133692   2.459   4.015   4.658  0.1445  3.4748  0.6687
 4067TIP3    H233693   2.310   4.019   4.629  0.0931 -1.4770 -0.5667
 4068TIP3   OH233694   3.816   1.842  11.923 -0.1385 -0.2605 -0.7663
 4068TIP3    H133695   3.814   1.881  12.010  1.2091 -2.4967  0.3420
 4068TIP3    H233696   3.745   1.778  11.923 -0.1296 -0.2820 -1.3233
 4069TIP3   OH233697   1.693   2.299   2.948  0.2645 -0.1517 -0.1956
 4069TIP3    H133698   1.717   2.260   2.864  0.2009 -0.2944 -0.1465
 4069TIP3    H233699   1.610   2.258   2.971  1.0921 -1.3384  0.7444
 4070TIP3   OH233700   6.045   2.721   3.861 -0.3740  0.0160 -0.1648
 4070TIP3    H133701   5.995   2.800   3.842  0.3761  0.5229 -0.0698
 4070TIP3    H233702   6.136   2.750   3.861 -0.1449 -0.6579  0.7666
 4071TIP3   OH233703   1.827   5.513   5.858 -0.8305  0.4093  0.1981
 4071TIP3    H133704   1.783   5.429   5.849 -0.4896  0.2084  0.3707
 4071TIP3    H233705   1.829   5.549   5.770 -1.1650  0.3327  0.1591
 4072TIP3   OH233706   2.733   2.679   3.523 -0.4258 -0.5964 -0.2769
 4072TIP3    H133707   2.726   2.767   3.486 -0.4647 -0.6055 -0.2915
 4072TIP3    H233708   2.764   2.625   3.450 -0.3145 -0.5776 -0.2433
 4073TIP3   OH233709   4.148   5.963  16.111  0.1703 -0.1131  0.0630
 4073TIP3    H133710   4.176   5.960  16.203  0.8663  0.7717 -0.1146
 4073TIP3    H233711   4.205   5.900  16.067  0.3053 -0.0354  0.1230
 4074TIP3   OH233712   1.557   4.951  13.341 -0.4723 -0.3916  0.3514
 4074TIP3    H133713   1.489   4.955  13.273  0.9431  1.2086 -1.0836
 4074TIP3    H233714   1.632   4.913  13.296 -0.0478 -1.0673  1.5897
 4075TIP3   OH233715   1.158   4.748   6.182  0.1442 -0.0025  0.0125
 4075TIP3    H133716   1.117   4.666   6.206 -1.4059  0.7742  0.1164
 4075TIP3    H233717   1.133   4.762   6.090 -0.5358  0.8657  0.3113
 4076TIP3   OH233718   1.790   5.236   1.600  0.1052  0.3168  0.0220
 4076TIP3    H133719   1.814   5.301   1.534 -0.7968  0.0056 -0.6413
 4076TIP3    H233720   1.873   5.208   1.637  0.6046  0.8071 -0.6886
 4077TIP3   OH233721   2.176   5.632   5.214  0.1104 -0.4071  0.3121
 4077TIP3    H133722   2.089   5.603   5.243 -0.0979 -1.7070 -1.4217
 4077TIP3    H233723   2.236   5.565   5.248 -0.0909 -1.7237 -1.7176
 4078TIP3   OH233724   4.592   2.421   4.394 -0.1684 -0.2318 -0.2178
 4078TIP3    H133725   4.606   2.478   4.319  3.0299  0.6798  0.9183
 4078TIP3    H233726   4.564   2.338   4.357  0.8089  0.3544 -2.3849
 4079TIP3   OH233727   2.397   1.671   1.396  0.0082  0.2024 -0.0640
 4079TIP3    H133728   2.491   1.660   1.410  0.1927 -1.8481 -2.2070
 4079TIP3    H233729   2.375   1.605   1.330 -2.4819  2.2360 -1.4444
 4080TIP3   OH233730   1.847   5.820  11.137 -0.4149 -0.1583  0.2787
 4080TIP3    H133731   1.857   5.862  11.052  0.4690  1.0848  0.9584
 4080TIP3    H233732   1.760   5.780  11.135 -0.5241  0.1233 -1.0785
 4081TIP3   OH233733   6.775   4.012   3.928 -0.3588 -0.4540  0.1395
 4081TIP3    H133734   6.705   3.972   3.876 -0.7536 -1.1998  1.2094
 4081TIP3    H233735   6.766   3.973   4.015 -0.9010  2.1140  1.3391
 4082TIP3   OH233736   5.278   3.730   4.341 -0.0575 -0.1731  0.1954
 4082TIP3    H133737   5.238   3.815   4.322 -1.2278 -0.5799  0.7456
 4082TIP3    H233738   5.333   3.746   4.417  0.0040  0.1604  0.0830
 4083TIP3   OH233739   4.488   5.062  11.062  0.6455  0.1987  0.4711
 4083TIP3    H133740   4.423   5.081  10.995  0.2700 -1.8448  0.1782
 4083TIP3    H233741   4.513   5.147  11.097  0.6243  1.2963 -2.0224
 4084TIP3   OH233742   3.199   1.273  12.675 -0.4085 -0.5799 -0.0327
 4084TIP3    H133743   3.151   1.270  12.758 -1.5347 -0.6963 -0.6648
 4084TIP3    H233744   3.171   1.355  12.635  1.0746  0.0797  0.2332
 4085TIP3   OH233745   4.630   1.197   0.083 -0.4739 -0.1831  0.1900
 4085TIP3    H133746   4.684   1.214   0.160 -1.1364 -0.4831  0.7280
 4085TIP3    H233747   4.691   1.159   0.019  0.1624  0.4360  0.4132
 4086TIP3   OH233748   1.187   4.767   5.145 -0.2685 -0.4224 -0.0780
 4086TIP3    H133749   1.096   4.777   5.119 -0.0155  0.3146 -0.7262
 4086TIP3    H233750   1.206   4.847   5.195  0.0255 -0.5549  0.0231
 4087TIP3   OH233751   3.164   0.907   4.760  0.1608  0.6844  0.3116
 4087TIP3    H133752   3.247   0.863   4.775 -0.1424  0.2889  0.8965
 4087TIP3    H233753   3.101   0.857   4.812 -0.4976  0.7885 -0.3699
 4088TIP3   OH233754   3.269   3.890   4.136 -0.0695  1.0852  0.4371
 4088TIP3    H133755   3.190   3.934   4.105  0.3055 -0.4069 -3.1317
 4088TIP3    H233756   3.336   3.915   4.072  0.9550 -1.8364  0.2407
 4089TIP3   OH233757   0.686   0.130   5.020 -0.3470  0.1166 -0.6272
 4089TIP3    H133758   0.671   0.112   5.113  0.7881  1.9988 -0.0328
 4089TIP3    H233759   0.695   0.225   5.015  0.0109  0.0182 -2.6155
 4090TIP3   OH233760   1.756   0.372  17.082 -0.0962  0.2179  0.1881
 4090TIP3    H133761   1.794   0.459  17.094 -0.1411  0.2175  0.3334
 4090TIP3    H233762   1.671   0.376  17.125 -0.0194  0.0457  0.3589
 4091TIP3   OH233763   3.742   5.010   4.189 -0.2496  0.2073  0.5364
 4091TIP3    H133764   3.741   5.105   4.189 -1.1633  0.2071  0.8271
 4091TIP3    H233765   3.834   4.987   4.173  0.4150  1.1548  2.6268
 4092TIP3   OH233766   4.752   5.497   4.056 -0.5958 -0.8013 -0.1741
 4092TIP3    H133767   4.746   5.409   4.093 -0.0785 -0.2827  1.2257
 4092TIP3    H233768   4.681   5.545   4.096 -0.2898 -0.3318 -0.1863
 4093TIP3   OH233769   3.506   3.066   0.597 -0.7150 -0.4890 -0.3780
 4093TIP3    H133770   3.434   3.021   0.553 -1.3025 -2.6631  2.5553
 4093TIP3    H233771   3.465   3.146   0.632 -0.9073 -0.1490 -1.3452
 4094TIP3   OH233772   4.630   0.686  13.337 -0.2394  0.0731  0.2310
 4094TIP3    H133773   4.637   0.708  13.430  1.1479  1.4307 -0.1449
 4094TIP3    H233774   4.660   0.765  13.291  3.0546 -1.8087 -1.2743
 4095TIP3   OH233775   6.382   6.167  11.268  0.6221 -0.4343 -0.4651
 4095TIP3    H133776   6.466   6.122  11.272  1.2131  0.6358 -0.3945
 4095TIP3    H233777   6.352   6.154  11.178  0.7859 -0.9467 -0.4497
 4096TIP3   OH233778   4.257   3.137   5.093 -0.4177  0.6294  0.7026
 4096TIP3    H133779   4.175   3.126   5.045  0.2109  0.8307 -0.4613
 4096TIP3    H233780   4.306   3.056   5.075  0.7797  1.6605 -0.9854
 4097TIP3   OH233781   3.341   6.036   4.167  0.0088 -0.4328 -0.0222
 4097TIP3    H133782   3.402   6.085   4.223 -0.2649  0.4168 -0.4494
 4097TIP3    H233783   3.367   5.945   4.178  0.1040 -0.2659  1.3137
 4098TIP3   OH233784   6.244   2.506  11.413 -0.0319 -0.6302 -0.3962
 4098TIP3    H133785   6.217   2.597  11.431  0.4295 -0.1599 -1.9502
 4098TIP3    H233786   6.172   2.453  11.447  0.1751  0.2187  1.5471
 4099TIP3   OH233787   3.586   2.496  12.935  0.6332  0.1001 -0.1604
 4099TIP3    H133788   3.603   2.549  13.013  1.4670 -2.6378  1.6849
 4099TIP3    H233789   3.503   2.452  12.955  0.3872  0.0413 -1.2578
 4100TIP3   OH233790   5.173   1.584  11.616 -0.3393  1.1267  0.4243
 4100TIP3    H133791   5.088   1.573  11.574 -0.6201 -3.5422  1.6764
 4100TIP3    H233792   5.236   1.542  11.557  0.2099  0.0131  1.7215
 4101TIP3   OH233793   5.538   1.233  16.969 -0.5680 -0.5286 -0.1329
 4101TIP3    H133794   5.472   1.289  16.928 -2.4611 -2.3854  0.1813
 4101TIP3    H233795   5.510   1.227  17.061  1.0375 -0.0324  0.4207
 4102TIP3   OH233796   4.259   4.157  14.459  0.7455 -0.3892 -0.0380
 4102TIP3    H133797   4.175   4.129  14.421  0.7909 -0.0531 -0.3942
 4102TIP3    H233798   4.243   4.159  14.553 -0.2618  1.5499 -0.1908
 4103TIP3   OH233799   4.218   5.651  13.302  0.4238  0.0346  0.5916
 4103TIP3    H133800   4.181   5.665  13.214  1.1683 -1.3869  0.0167
 4103TIP3    H233801   4.311   5.670  13.292  0.4697  0.1096  1.1402
 4104TIP3   OH233802   6.819   0.061  13.113 -0.4650  0.1801  0.5351
 4104TIP3    H133803   6.757   0.114  13.163 -1.1134 -0.2044  0.1580
 4104TIP3    H233804   6.853   0.120  13.046 -1.9445 -0.1158 -0.5232
 4105TIP3   OH233805   4.410   0.963  16.244  0.1338  0.4067  0.1178
 4105TIP3    H133806   4.472   1.028  16.212 -0.3271 -0.0403 -1.8313
 4105TIP3    H233807   4.442   0.880  16.209  0.2070 -0.3116  1.8001
 4106TIP3   OH233808   0.355   0.809  12.756  0.1482 -0.0628 -0.0494
 4106TIP3    H133809   0.264   0.816  12.729 -0.1808 -0.2865  0.9795
 4106TIP3    H233810   0.391   0.739  12.700  0.3980  1.6593 -2.2111
 4107TIP3   OH233811   3.783   6.096   5.150 -0.1743 -0.0996 -0.0616
 4107TIP3    H133812   3.793   6.073   5.058 -1.3554  2.0109 -0.7845
 4107TIP3    H233813   3.873   6.110   5.181  0.1472  1.5446 -1.5830
 4108TIP3   OH233814   3.134   4.544   1.754  0.3105 -0.5228 -0.2880
 4108TIP3    H133815   3.183   4.487   1.694 -0.1979 -0.5805 -0.6507
 4108TIP3    H233816   3.069   4.487   1.794  1.1597 -0.6672  0.9269
 4109TIP3   OH233817   4.646   1.134  16.089 -0.2249 -0.3309 -0.4447
 4109TIP3    H133818   4.561   1.147  16.048 -0.1182 -0.4565 -0.7086
 4109TIP3    H233819   4.705   1.191  16.040 -0.7989  2.6360  2.0528
 4110TIP3   OH233820   6.459   5.241  13.291  0.0279  0.5238  0.2676
 4110TIP3    H133821   6.518   5.167  13.273  0.8267  1.1591  0.2481
 4110TIP3    H233822   6.493   5.313  13.238 -0.5681  0.9957  0.5187
 4111TIP3   OH233823   6.362   5.802  12.631  0.1158 -0.1384  0.9163
 4111TIP3    H133824   6.455   5.797  12.609  0.5064 -0.6911  2.5766
 4111TIP3    H233825   6.351   5.890  12.668 -0.2075  0.2043  0.0465
 4112TIP3   OH233826   6.552   1.656   3.831  0.1073  0.2028  0.2616
 4112TIP3    H133827   6.522   1.744   3.807 -1.0436 -0.3186 -0.3088
 4112TIP3    H233828   6.646   1.665   3.843  0.3917  1.0326 -2.0755
 4113TIP3   OH233829   1.335   3.880  14.743  0.3036 -0.2384  0.1045
 4113TIP3    H133830   1.429   3.876  14.758  0.0530 -0.9628  1.7355
 4113TIP3    H233831   1.298   3.895  14.830 -1.1918 -1.8459 -0.1979
 4114TIP3   OH233832   6.834   2.706   5.242 -0.9059 -0.3315  0.0598
 4114TIP3    H133833   6.866   2.732   5.328 -2.2501 -1.2118  0.8577
 4114TIP3    H233834   6.890   2.754   5.180 -1.0475  1.6827  1.4141
 4115TIP3   OH233835   3.351   0.845   5.292  0.1463  0.6996  0.1993
 4115TIP3    H133836   3.370   0.937   5.271  0.9556  0.2401 -1.2187
 4115TIP3    H233837   3.295   0.816   5.220 -0.9263  0.3151  1.1496
 4116TIP3   OH233838   4.679   3.014   0.192 -0.4469 -0.2015 -0.1505
 4116TIP3    H133839   4.687   3.019   0.096 -0.3275  0.7760 -0.1053
 4116TIP3    H233840   4.756   2.965   0.220 -1.6080 -2.4451 -0.7017
 4117TIP3   OH233841   2.653   4.173  12.766 -0.2356  0.3437 -0.2174
 4117TIP3    H133842   2.608   4.170  12.850 -0.5797 -0.2303 -0.4184
 4117TIP3    H233843   2.704   4.254  12.769 -1.5853  1.2281 -0.1375
 4118TIP3   OH233844   1.936   3.033  13.160 -0.6723  0.2864  0.2023
 4118TIP3    H133845   1.917   2.976  13.086  0.5341 -0.4596  0.4379
 4118TIP3    H233846   2.013   3.083  13.133 -2.2915  2.6036 -0.3997
 4119TIP3   OH233847   3.452   3.315  14.507  0.2634  0.3167  0.4950
 4119TIP3    H133848   3.476   3.262  14.583 -0.7632 -2.5326 -1.0221
 4119TIP3    H233849   3.465   3.256  14.432  0.0115  2.5902 -1.4341
 4120TIP3   OH233850   4.529   3.762   3.109  0.4253  0.2963 -0.3328
 4120TIP3    H133851   4.513   3.811   3.190  0.7713 -1.3710  0.8064
 4120TIP3    H233852   4.442   3.732   3.082  0.1972  1.5407 -1.0924
 4121TIP3   OH233853   6.829   4.891  15.840 -0.0184  0.0620 -0.0071
 4121TIP3    H133854   6.890   4.921  15.908 -2.3321  2.1539  1.3016
 4121TIP3    H233855   6.754   4.949  15.848 -2.7482 -3.0783 -0.7270
 4122TIP3   OH233856   2.882   6.034  13.660 -0.0439  0.0393  0.6210
 4122TIP3    H133857   2.847   5.953  13.624 -0.2916  0.1210  0.6741
 4122TIP3    H233858   2.966   6.010  13.699 -0.0853 -0.1764  0.5748
 4123TIP3   OH233859   3.318   2.477   3.671  0.2604  0.5117 -0.4353
 4123TIP3    H133860   3.276   2.419   3.735  0.1693 -0.0496 -1.0011
 4123TIP3    H233861   3.267   2.465   3.591 -1.0492  2.8805 -0.0521
 4124TIP3   OH233862   5.246   2.851  11.149  0.5353 -0.0096  0.1943
 4124TIP3    H133863   5.239   2.919  11.082  0.0327  2.5989  2.7030
 4124TIP3    H233864   5.332   2.865  11.189  0.2653 -0.5912  1.0002
 4125TIP3   OH233865   0.486   2.009   1.931 -0.2263  0.0891  0.1161
 4125TIP3    H133866   0.390   2.008   1.920 -0.4282  3.3003  0.6517
 4125TIP3    H233867   0.513   2.093   1.893  2.0557  0.4069  2.2282
 4126TIP3   OH233868   5.470   1.954  16.628  0.2844  0.6854  0.0260
 4126TIP3    H133869   5.465   1.863  16.656 -2.8212  0.8333  0.3100
 4126TIP3    H233870   5.389   1.993  16.660  0.4581  2.9826 -2.0691
 4127TIP3   OH233871   4.030   0.591  16.885  0.1033  0.3696 -0.3713
 4127TIP3    H133872   3.996   0.678  16.905 -1.2383 -0.5693  1.6956
 4127TIP3    H233873   3.961   0.548  16.836  0.0821 -0.0836  0.0501
 4128TIP3   OH233874   6.281   4.353  15.816  0.3184  0.3362  0.4031
 4128TIP3    H133875   6.339   4.329  15.888 -0.6518 -0.8520  0.8308
 4128TIP3    H233876   6.194   4.329  15.847 -0.1515 -0.0012 -1.0799
 4129TIP3   OH233877   6.717   5.354  16.996  0.0417 -0.2227 -0.0731
 4129TIP3    H133878   6.756   5.349  17.084  0.8471  2.5225 -0.1817
 4129TIP3    H233879   6.788   5.331  16.937  0.0935 -0.0487 -0.0795
 4130TIP3   OH233880   4.706   1.640   5.206  0.5770 -0.3413 -0.0147
 4130TIP3    H133881   4.772   1.584   5.247  0.5255 -1.4611 -1.3855
 4130TIP3    H233882   4.749   1.676   5.129 -0.1065 -0.3283 -0.4027
 4131TIP3   OH233883   1.978   3.992  14.394  0.1866  0.1360 -0.2648
 4131TIP3    H133884   1.919   4.023  14.325 -0.4638 -0.3583  0.0611
 4131TIP3    H233885   2.061   3.974  14.348  0.0070  0.5700 -0.7720
 4132TIP3   OH233886   5.521   0.926  11.864  0.1096  0.3414 -0.3433
 4132TIP3    H133887   5.484   0.977  11.936 -1.4465 -1.9636  0.6227
 4132TIP3    H233888   5.597   0.882  11.902  1.3509  1.7173 -1.1252
 4133TIP3   OH233889   4.071   5.122  12.377 -0.2529  0.8722  0.5743
 4133TIP3    H133890   4.046   5.207  12.342 -1.3904  0.4774  0.3949
 4133TIP3    H233891   3.991   5.086  12.414 -0.0325 -0.5567 -0.2509
 4134TIP3   OH233892   2.213   2.790  13.457  0.0312  0.1412 -0.4012
 4134TIP3    H133893   2.295   2.746  13.435  0.9551  1.8646 -0.5471
 4134TIP3    H233894   2.152   2.761  13.390  1.1150  0.4519 -1.5654
 4135TIP3   OH233895   3.369   5.991   1.325 -0.3295  0.1102  0.5246
 4135TIP3    H133896   3.274   5.992   1.331 -0.3902 -1.9536  0.6023
 4135TIP3    H233897   3.387   6.007   1.232 -0.7870 -0.3303  0.3551
 4136TIP3   OH233898   2.404   1.272  13.540  0.0475 -0.6806 -0.1517
 4136TIP3    H133899   2.484   1.296  13.587 -0.1565 -0.7084  0.2108
 4136TIP3    H233900   2.345   1.346  13.553  0.5182  0.0006 -1.6381
 4137TIP3   OH233901   1.110   6.213  12.276  0.5162 -0.3305  0.2435
 4137TIP3    H133902   1.160   6.254  12.205 -0.2482 -1.5197 -1.0368
 4137TIP3    H233903   1.049   6.281  12.304 -0.7346 -0.5066 -1.8469
 4138TIP3   OH233904   1.128   1.805   0.257 -0.7068 -0.5043 -0.1847
 4138TIP3    H133905   1.051   1.834   0.209 -1.0665 -2.1558 -0.6554
 4138TIP3    H233906   1.098   1.796   0.348 -0.5383  0.7301  0.0066
 4139TIP3   OH233907   5.301   3.885   4.749  0.0175 -0.3540 -0.4933
 4139TIP3    H133908   5.269   3.973   4.765 -0.2383 -0.3778 -0.8621
 4139TIP3    H233909   5.224   3.829   4.754  0.1503 -0.5326 -0.4298
 4140TIP3   OH233910   6.793   5.029   1.756  0.1684 -0.1352  0.0807
 4140TIP3    H133911   6.769   5.110   1.712 -1.3152  1.2844  3.1930
 4140TIP3    H233912   6.871   5.051   1.807 -1.2682  0.0023  2.3621
 4141TIP3   OH233913   0.166   0.439   5.601  0.2051 -0.0207 -0.5030
 4141TIP3    H133914   0.244   0.386   5.616  0.4626 -0.4407 -2.9978
 4141TIP3    H233915   0.143   0.472   5.688  2.0813 -1.3545  0.5725
 4142TIP3   OH233916   3.243   2.273  16.756  0.4119  0.5293 -0.4156
 4142TIP3    H133917   3.323   2.240  16.714 -1.0198 -2.0077 -1.3338
 4142TIP3    H233918   3.274   2.318  16.835  2.8449  1.2867 -1.7045
 4143TIP3   OH233919   4.537   0.786   0.346 -0.4562 -0.3182 -0.4516
 4143TIP3    H133920   4.498   0.835   0.274 -0.0379  2.1903  0.9015
 4143TIP3    H233921   4.595   0.849   0.389  1.6460 -2.5896  0.3003
 4144TIP3   OH233922   4.925   1.817   2.766  0.6853  0.2741 -0.3528
 4144TIP3    H133923   4.891   1.735   2.730 -1.2893  0.7831  0.1846
 4144TIP3    H233924   4.950   1.794   2.856  0.8259  0.1001 -0.4351
 4145TIP3   OH233925   2.993   2.820  16.944 -0.6367  0.2997  0.4343
 4145TIP3    H133926   2.957   2.794  16.860 -1.6022 -0.1124  0.9670
 4145TIP3    H233927   3.051   2.748  16.969 -0.7533  0.1801  0.3618
 4146TIP3   OH233928   0.657   5.835   2.415 -0.3961  0.3378 -0.1497
 4146TIP3    H133929   0.566   5.807   2.406 -0.3543  0.5463 -1.3104
 4146TIP3    H233930   0.655   5.902   2.483 -0.8361 -0.8546  1.0666
 4147TIP3   OH233931   0.023   0.246  15.967  0.6167 -0.3276  0.4738
 4147TIP3    H133932   0.079   0.318  15.993  1.5085 -0.6058 -0.5736
 4147TIP3    H233933   0.081   0.187  15.918 -0.3679 -1.1195  0.2212
 4148TIP3   OH233934   6.619   3.931  16.539  0.1843 -0.0786 -0.4475
 4148TIP3    H133935   6.608   3.920  16.444  0.0931  0.0557 -0.4523
 4148TIP3    H233936   6.560   3.866  16.578  1.5989 -1.4518 -0.4830
 4149TIP3   OH233937   2.580   5.740   1.632 -0.5806  0.3681 -0.3527
 4149TIP3    H133938   2.529   5.786   1.565  1.1973  0.0899 -2.0118
 4149TIP3    H233939   2.667   5.780   1.627  0.4649 -1.7454 -0.4311
 4150TIP3   OH233940   5.381   5.818  13.750  0.3337  0.7035 -0.6468
 4150TIP3    H133941   5.323   5.803  13.824  0.2862  1.1415 -0.5927
 4150TIP3    H233942   5.405   5.910  13.756  1.4939  0.3968 -0.3383
 4151TIP3   OH233943   0.624   2.802   0.343 -0.1350 -0.0101 -0.1046
 4151TIP3    H133944   0.585   2.731   0.293  0.0959  0.1535 -0.5211
 4151TIP3    H233945   0.636   2.873   0.280  2.6593 -0.7159 -0.5343
 4152TIP3   OH233946   2.693   6.339  14.621 -0.3095  0.4945 -0.5667
 4152TIP3    H133947   2.699   6.251  14.659  0.7453  0.6939 -0.2316
 4152TIP3    H233948   2.673   6.396  14.694  1.6105  0.8621 -0.2644
 4153TIP3   OH233949   6.038   0.814   0.457 -0.7007 -0.4917 -0.5056
 4153TIP3    H133950   5.971   0.881   0.450 -1.1366 -0.8267  0.3230
 4153TIP3    H233951   5.996   0.742   0.505  0.6358 -0.1651  1.2941
 4154TIP3   OH233952   1.986   5.167  12.461 -0.1032  0.4725 -0.6702
 4154TIP3    H133953   2.020   5.082  12.490 -3.2549 -0.9978 -0.8818
 4154TIP3    H233954   2.016   5.228  12.528 -1.1886 -1.5700  1.8765
 4155TIP3   OH233955   3.229   0.677  15.070 -0.1285 -0.5221  0.2878
 4155TIP3    H133956   3.266   0.678  15.158 -0.6695 -0.5375  0.5202
 4155TIP3    H233957   3.225   0.584  15.047 -0.5169 -0.5552  0.4780
 4156TIP3   OH233958   3.705   1.747  15.870 -0.0141  0.3481 -0.2820
 4156TIP3    H133959   3.635   1.798  15.829 -1.9210 -2.2267 -0.4839
 4156TIP3    H233960   3.662   1.699  15.940  0.8770 -3.3257 -2.0475
 4157TIP3   OH233961   2.346   1.279  14.978 -0.0653  0.1929  0.0871
 4157TIP3    H133962   2.421   1.330  15.009 -0.7353  0.2382  1.7019
 4157TIP3    H233963   2.274   1.342  14.971 -0.1350  0.0288 -0.8672
 4158TIP3   OH233964   6.541   3.429   5.107  0.5286  0.2749 -0.6352
 4158TIP3    H133965   6.554   3.344   5.066 -0.4125 -0.2021  0.0122
 4158TIP3    H233966   6.446   3.435   5.120  0.5965  1.3673 -0.5636
 4159TIP3   OH233967   5.065   0.959  12.578  0.3194 -0.0544  0.1321
 4159TIP3    H133968   5.072   0.892  12.510  2.5959 -0.9266  1.1273
 4159TIP3    H233969   5.126   1.027  12.552  0.9296 -0.2188  1.0588
 4160TIP3   OH233970   2.258   5.071   4.735  0.2006  0.2129  0.2575
 4160TIP3    H133971   2.295   5.151   4.773  0.1440 -0.0873  0.9568
 4160TIP3    H233972   2.227   5.021   4.810  0.7643 -0.7336 -0.1208
 4161TIP3   OH233973   5.110   0.548  13.055  0.2722 -0.2872 -0.0926
 4161TIP3    H133974   5.174   0.599  13.104 -0.4511  1.7428 -1.1639
 4161TIP3    H233975   5.159   0.473  13.022  1.8601  0.6879 -0.0375
 4162TIP3   OH233976   0.269   1.877  12.305 -0.0747  0.3963  0.3098
 4162TIP3    H133977   0.333   1.929  12.256  0.8470 -0.4839  0.5427
 4162TIP3    H233978   0.249   1.803  12.248 -2.2247  1.5160 -0.4921
 4163TIP3   OH233979   3.569   6.059  14.682 -0.5930 -0.3291 -0.3301
 4163TIP3    H133980   3.659   6.090  14.688 -1.0677  1.0973 -0.1600
 4163TIP3    H233981   3.542   6.047  14.772 -0.4345 -1.2239 -0.3941
 4164TIP3   OH233982   4.244   3.393   3.174 -0.0914 -0.1326  0.7555
 4164TIP3    H133983   4.251   3.305   3.137 -1.4722  0.3924 -0.8536
 4164TIP3    H233984   4.272   3.382   3.265 -0.2006 -2.2299  0.5939
 4165TIP3   OH233985   6.007   5.829  16.789  0.4251 -0.0570 -0.1793
 4165TIP3    H133986   6.023   5.879  16.709  2.0236  0.5540  0.4756
 4165TIP3    H233987   6.016   5.737  16.763  1.7733  0.1662 -0.5650
 4166TIP3   OH233988   4.652   3.807   3.540  0.2357 -0.5756  0.1446
 4166TIP3    H133989   4.626   3.878   3.599  0.3334  1.3496 -2.0077
 4166TIP3    H233990   4.744   3.823   3.521 -0.4906  0.7477 -2.8579
 4167TIP3   OH233991   0.451   5.377   5.625 -0.2576  0.3844  0.0884
 4167TIP3    H133992   0.389   5.432   5.673 -0.1774  0.0073  0.6259
 4167TIP3    H233993   0.479   5.432   5.552  0.3187  1.3221  0.9811
 4168TIP3   OH233994   3.475   0.491  13.220  0.2280 -0.7226  0.4515
 4168TIP3    H133995   3.472   0.562  13.156  1.0432 -1.5813 -0.5897
 4168TIP3    H233996   3.524   0.527  13.293  0.0565 -0.0058  0.2276
 4169TIP3   OH233997   6.414   5.674   0.356 -0.0315 -0.5357  0.4027
 4169TIP3    H133998   6.330   5.669   0.311 -0.2926 -0.7224  0.9111
 4169TIP3    H233999   6.478   5.647   0.290 -0.5385 -2.0361  0.5041
 4170TIP3   OH234000   3.177   0.669  11.025  0.0407 -0.4058  0.2060
 4170TIP3    H134001   3.208   0.670  11.115 -0.8400  0.6601  0.5183
 4170TIP3    H234002   3.093   0.715  11.028  0.5252  0.6542 -1.3462
 4171TIP3   OH234003   1.884   3.273   1.305 -0.4304 -0.4803  0.0509
 4171TIP3    H134004   1.917   3.184   1.297 -0.6018 -0.5558  0.1593
 4171TIP3    H234005   1.795   3.262   1.341 -1.0899 -0.3652 -1.4616
 4172TIP3   OH234006   2.419   3.653  11.451 -0.3514 -0.3049  0.1652
 4172TIP3    H134007   2.434   3.597  11.375 -0.9989 -2.1981  1.3557
 4172TIP3    H234008   2.374   3.730  11.416 -0.9114 -1.2573 -1.3166
 4173TIP3   OH234009   1.405   5.466   3.514  0.2776  0.0383  0.2328
 4173TIP3    H134010   1.314   5.496   3.506  0.4861  0.3982 -1.1746
 4173TIP3    H234011   1.452   5.541   3.550  0.3844  0.6745 -1.1416
 4174TIP3   OH234012   4.030   0.615  13.240  0.1078  0.2153 -0.8682
 4174TIP3    H134013   4.071   0.647  13.321 -1.3822  1.6065 -0.6183
 4174TIP3    H234014   3.964   0.553  13.270 -0.3150  0.5877 -1.0261
 4175TIP3   OH234015   3.736   3.422  14.484 -0.2619 -0.8886  0.1236
 4175TIP3    H134016   3.757   3.332  14.510  0.9046 -1.9028 -3.7704
 4175TIP3    H234017   3.660   3.413  14.427 -2.0416  1.0779  2.0067
 4176TIP3   OH234018   5.885   3.220   0.328 -0.0249 -0.3021  0.2256
 4176TIP3    H134019   5.933   3.153   0.376  0.9903 -0.2108 -0.6417
 4176TIP3    H234020   5.919   3.303   0.363 -0.9519 -0.2171  0.9738
 4177TIP3   OH234021   2.910   0.622  13.173  0.2920 -0.0614  0.6484
 4177TIP3    H134022   2.993   0.637  13.129  0.9139 -0.6956  1.5847
 4177TIP3    H234023   2.873   0.545  13.130 -1.0286  1.6033 -1.4509
 4178TIP3   OH234024   2.968   1.114   2.871  0.0353 -0.3802 -0.7335
 4178TIP3    H134025   2.958   1.103   2.966  1.3562  0.5901 -0.4486
 4178TIP3    H234026   2.899   1.175   2.846 -0.8484 -1.2775 -0.5661
 4179TIP3   OH234027   1.694   0.220   4.628 -0.4320 -0.2884  0.0143
 4179TIP3    H134028   1.668   0.129   4.641 -1.1594  0.0406  0.9275
 4179TIP3    H234029   1.614   0.270   4.643 -0.1930  0.4663 -1.1124
 4180TIP3   OH234030   2.943   0.673  12.236 -0.6292  0.6090 -0.9323
 4180TIP3    H134031   2.909   0.590  12.201  1.8667 -0.8440 -0.0747
 4180TIP3    H234032   2.891   0.688  12.315  1.0718 -1.9966  0.8221
 4181TIP3   OH234033   5.390   3.904  16.562  0.1783 -0.1369  0.6194
 4181TIP3    H134034   5.406   3.940  16.475  0.4275 -1.8973 -0.0965
 4181TIP3    H234035   5.306   3.858  16.554  1.8808 -3.4243  0.2114
 4182TIP3   OH234036   3.817   3.095   5.339 -0.7125 -0.0266  0.1685
 4182TIP3    H134037   3.808   3.184   5.303  0.7353 -0.1282 -0.5034
 4182TIP3    H234038   3.908   3.089   5.365 -0.4761 -1.7415 -0.9389
 4183TIP3   OH234039   0.790   2.948   2.575  0.0912 -0.0996 -0.4885
 4183TIP3    H134040   0.706   2.914   2.544 -0.3976  0.7335 -0.1112
 4183TIP3    H234041   0.855   2.899   2.525 -0.5842 -1.3920 -0.1533
 4184TIP3   OH234042   5.898   3.011  16.585  0.3858  0.1661  0.6579
 4184TIP3    H134043   5.941   3.092  16.559  0.2303 -0.3096 -1.2089
 4184TIP3    H234044   5.938   2.989  16.670  2.0432  1.0126  0.1451
 4185TIP3   OH234045   2.647   6.668  11.603  0.0563  0.4279  0.3723
 4185TIP3    H134046   2.615   6.717  11.679 -0.5470  0.9661 -0.2172
 4185TIP3    H234047   2.639   6.729  11.530  1.9798  0.4191  0.0981
 4186TIP3   OH234048   2.866   0.119  12.636  0.1557 -0.1118  0.0309
 4186TIP3    H134049   2.907   0.201  12.606 -0.7368  0.6457  0.8481
 4186TIP3    H234050   2.922   0.089  12.707  0.1055  0.1426  0.1777
 4187TIP3   OH234051   3.741   0.782   2.566  0.2072 -0.4420 -0.2764
 4187TIP3    H134052   3.795   0.828   2.630 -2.1238  0.6800  1.0498
 4187TIP3    H234053   3.725   0.696   2.604  1.2260 -0.8839 -0.8078
 4188TIP3   OH234054   5.181   1.773   4.680 -0.0643 -0.4644  0.3321
 4188TIP3    H134055   5.194   1.855   4.632 -3.1994  0.6418  1.1357
 4188TIP3    H234056   5.247   1.775   4.749  0.4048  1.0013 -0.1196
 4189TIP3   OH234057   2.716   6.583   3.897  0.0042 -0.0118  0.3616
 4189TIP3    H134058   2.736   6.564   3.988 -0.5696 -1.5846  0.1809
 4189TIP3    H234059   2.800   6.577   3.852  0.1949  0.1883  0.6878
 4190TIP3   OH234060   4.835   5.442  15.300  0.3598  0.1833  0.1934
 4190TIP3    H134061   4.929   5.455  15.305  0.6856 -0.8849 -2.0524
 4190TIP3    H234062   4.823   5.373  15.234 -2.0016  0.3834  0.3064
 4191TIP3   OH234063   1.879   0.330   2.198 -0.3225  0.3347 -0.2680
 4191TIP3    H134064   1.902   0.381   2.276  0.7339 -2.1680  1.1746
 4191TIP3    H234065   1.830   0.255   2.232 -1.2568  0.0054 -2.2263
 4192TIP3   OH234066   3.374   5.173  14.584 -0.4170 -0.4334 -0.0535
 4192TIP3    H134067   3.468   5.192  14.586 -0.0370 -2.1405  0.3303
 4192TIP3    H234068   3.360   5.130  14.500 -0.8520 -0.1701 -0.1161
 4193TIP3   OH234069   4.879   5.941   6.663 -0.0157  0.3241  0.1077
 4193TIP3    H134070   4.903   5.866   6.717  1.9584  0.6867 -0.1843
 4193TIP3    H234071   4.864   5.905   6.576  0.7298  0.2193  0.0151
 4194TIP3   OH234072   0.553   2.749   2.350  0.6243 -0.3126  0.2823
 4194TIP3    H134073   0.468   2.786   2.375  0.8853  0.2566  0.3529
 4194TIP3    H234074   0.574   2.687   2.420  0.0847 -0.7543  0.0592
 4195TIP3   OH234075   6.631   2.013  11.958 -0.2310 -0.5652 -0.4340
 4195TIP3    H134076   6.725   2.018  11.977 -0.4562 -2.1177  1.3409
 4195TIP3    H234077   6.626   2.000  11.864  1.4435 -2.2865 -0.3335
 4196TIP3   OH234078   5.763   6.616  12.543 -0.1003 -0.3672  0.3963
 4196TIP3    H134079   5.818   6.542  12.518  1.7659  0.6803  1.2435
 4196TIP3    H234080   5.771   6.677  12.470  1.1532  0.4524  1.1924
 4197TIP3   OH234081   2.366   6.467   1.365 -0.7458  0.5319  0.1415
 4197TIP3    H134082   2.412   6.401   1.313 -1.6226  1.3373 -1.7574
 4197TIP3    H234083   2.342   6.535   1.301 -0.6771  2.2529  1.8577
 4198TIP3   OH234084   2.212   6.591  15.897  0.1450  0.2342  0.4747
 4198TIP3    H134085   2.262   6.672  15.903  1.4085 -0.4907  0.0950
 4198TIP3    H234086   2.236   6.542  15.976 -1.8373  0.8574  1.5377
 4199TIP3   OH234087   6.181   3.841  16.558  0.0160  0.0190  0.0559
 4199TIP3    H134088   6.150   3.931  16.567 -0.3695  0.0967 -1.6963
 4199TIP3    H234089   6.238   3.842  16.482 -0.5437 -1.3367 -0.4244
 4200TIP3   OH234090   3.030   0.867  13.382  0.2069  0.2419 -0.5019
 4200TIP3    H134091   3.003   0.775  13.376 -0.3384  0.3338  0.3212
 4200TIP3    H234092   2.991   0.898  13.463  1.2436  0.9280 -0.2421
 4201TIP3   OH234093   0.701   2.094   4.543 -0.2693 -0.3074 -0.2387
 4201TIP3    H134094   0.782   2.121   4.499 -0.7191 -0.1191 -0.9631
 4201TIP3    H234095   0.697   2.149   4.621  0.9180 -1.1601  0.4434
 4202TIP3   OH234096   2.532   2.075   1.817 -0.6592 -0.1853 -0.0030
 4202TIP3    H134097   2.485   2.037   1.892  2.0990  0.5029  2.2485
 4202TIP3    H234098   2.505   2.167   1.817 -0.6688 -0.1871  0.1351
 4203TIP3   OH234099   4.881   3.718   4.801 -0.1702 -0.6105  0.2871
 4203TIP3    H134100   4.797   3.764   4.802  0.1014 -0.1105  0.3724
 4203TIP3    H234101   4.937   3.772   4.746  0.0794 -0.9833  0.1715
 4204TIP3   OH234102   6.638   6.442   2.862 -0.0792 -0.4361  0.1805
 4204TIP3    H134103   6.664   6.464   2.952  3.2297  0.2503 -0.8248
 4204TIP3    H234104   6.667   6.352   2.850  0.5483 -0.1438 -0.5438
 4205TIP3   OH234105   2.025   4.391  13.231 -0.8379  0.4994 -0.5714
 4205TIP3    H134106   2.109   4.368  13.271  0.0620  0.9267 -2.1213
 4205TIP3    H234107   2.043   4.391  13.137 -2.7747 -0.1485 -0.9921
 4206TIP3   OH234108   2.545   3.748   4.469 -0.3782  0.5584  0.0071
 4206TIP3    H134109   2.504   3.781   4.549 -0.7916  0.6014 -0.2229
 4206TIP3    H234110   2.480   3.763   4.400  0.8192  2.6399 -0.7807
 4207TIP3   OH234111   5.304   5.164   4.729 -0.1079 -0.4180  0.3862
 4207TIP3    H134112   5.261   5.162   4.643 -1.8846 -2.9475  1.1972
 4207TIP3    H234113   5.396   5.181   4.710 -0.4045 -1.1422 -2.0432
 4208TIP3   OH234114   1.674   0.632  11.034  0.6917 -0.3914 -0.1616
 4208TIP3    H134115   1.766   0.654  11.048  0.1359  1.0729  1.5404
 4208TIP3    H234116   1.647   0.691  10.963  1.0549 -0.8660 -0.7058
 4209TIP3   OH234117   1.658   6.802  14.438  0.4863  0.0870  0.2593
 4209TIP3    H134118   1.591   6.797  14.369 -2.6600  0.4750  3.0161
 4209TIP3    H234119   1.671   6.896  14.451  2.9114  0.0529 -1.2797
 4210TIP3   OH234120   0.255   5.025   2.569 -0.1548 -0.1615 -0.0843
 4210TIP3    H134121   0.276   4.989   2.483 -0.4386 -1.2993  0.3101
 4210TIP3    H234122   0.340   5.032   2.613  0.0064  0.5488 -0.4942
 4211TIP3   OH234123   0.750   5.079   4.189  0.2139  0.5474 -0.0678
 4211TIP3    H134124   0.739   5.007   4.251  0.0535 -1.0518 -1.8680
 4211TIP3    H234125   0.845   5.091   4.184  0.3176 -0.4622 -0.7416
 4212TIP3   OH234126   4.415   4.084   1.936  0.9929 -0.1261 -0.9376
 4212TIP3    H134127   4.492   4.108   1.987  0.9980 -1.2448 -0.3699
 4212TIP3    H234128   4.403   3.990   1.955 -1.6805  0.4199  0.5939
 4213TIP3   OH234129   1.962   1.157   3.349  0.6396 -0.4253  0.0311
 4213TIP3    H134130   1.880   1.156   3.299  2.6367  0.4852 -3.5949
 4213TIP3    H234131   1.998   1.245   3.335  1.8384 -0.4289  2.4165
 4214TIP3   OH234132   4.518   3.387  16.001 -0.0597 -0.0794 -0.2585
 4214TIP3    H134133   4.523   3.378  16.096 -0.7036 -0.7942 -0.2835
 4214TIP3    H234134   4.609   3.386  15.971  0.1502  0.2254  0.3466
 4215TIP3   OH234135   0.607   2.828  14.978  0.2237 -0.1712 -0.0532
 4215TIP3    H134136   0.639   2.917  14.985  1.3162 -0.6453  1.7581
 4215TIP3    H234137   0.513   2.837  14.964  0.0159  1.3112  1.8850
 4216TIP3   OH234138   6.325   4.381   0.349  0.2225 -0.2240 -0.1374
 4216TIP3    H134139   6.297   4.423   0.431  1.5319 -1.5474  1.0609
 4216TIP3    H234140   6.406   4.426   0.326 -0.3728  0.4504 -1.0097
 4217TIP3   OH234141   0.586   3.826   2.454 -0.1690  0.4221  0.0739
 4217TIP3    H134142   0.630   3.879   2.387 -1.2287  0.2438 -0.7947
 4217TIP3    H234143   0.630   3.850   2.535  1.3904  0.3830 -0.7140
 4218TIP3   OH234144   3.545   1.233  14.627  0.1286  0.0400 -0.7186
 4218TIP3    H134145   3.558   1.151  14.676  1.1126  0.2120 -0.6779
 4218TIP3    H234146   3.633   1.265  14.610 -0.2477  1.5187 -0.0347
 4219TIP3   OH234147   3.913   6.315  10.963  0.6415  0.0505 -0.3217
 4219TIP3    H134148   3.997   6.285  10.996  0.6191  0.9502  0.5919
 4219TIP3    H234149   3.893   6.256  10.890  2.8799  0.8712 -1.6757
 4220TIP3   OH234150   4.388   2.085   5.124  0.8829 -0.5226 -0.1200
 4220TIP3    H134151   4.482   2.064   5.126  0.8650 -0.6159  1.4757
 4220TIP3    H234152   4.346   2.005   5.093  1.3366 -0.3707 -1.1734
 4221TIP3   OH234153   3.213   3.061  12.354 -0.0222  0.2820 -0.0527
 4221TIP3    H134154   3.134   3.116  12.356 -0.3719 -0.1720 -0.9762
 4221TIP3    H234155   3.284   3.121  12.376 -0.6208  0.6875  0.8555
 4222TIP3   OH234156   3.180   6.372   5.117  0.1836  0.0395  0.0030
 4222TIP3    H134157   3.093   6.411   5.123  0.7839  1.3832  0.2916
 4222TIP3    H234158   3.238   6.445   5.094  1.2405 -0.8203 -0.1520
 4223TIP3   OH234159   4.120   0.985   0.351  0.2223  0.0988  0.5461
 4223TIP3    H134160   4.210   0.958   0.368 -0.3356 -0.8922  2.1485
 4223TIP3    H234161   4.080   0.910   0.305  0.3014  0.6997 -0.5416
 4224TIP3   OH234162   4.896   4.109   4.076 -0.4509  0.3292 -0.2853
 4224TIP3    H134163   4.862   4.033   4.123 -1.2463  1.6942  1.4718
 4224TIP3    H234164   4.875   4.092   3.984  2.3580 -3.0668 -0.4951
 4225TIP3   OH234165   4.286   2.480  15.868  0.1931 -0.2888  0.8982
 4225TIP3    H134166   4.215   2.515  15.923  0.2222  0.0780  0.7025
 4225TIP3    H234167   4.249   2.402  15.828 -0.5904  0.6704 -0.3144
 4226TIP3   OH234168   5.249   4.693  12.330 -0.2482 -0.1323  0.3322
 4226TIP3    H134169   5.328   4.640  12.326  1.0088  1.6962 -0.7251
 4226TIP3    H234170   5.196   4.662  12.256  1.0169  0.7884 -1.0457
 4227TIP3   OH234171   0.536   0.475   2.290  0.4547  0.5523 -0.3616
 4227TIP3    H134172   0.445   0.500   2.279  0.2105 -0.9049 -2.2970
 4227TIP3    H234173   0.586   0.554   2.266 -0.2674  1.2957  0.5317
 4228TIP3   OH234174   0.019   2.784  14.038  0.5597 -0.1801 -0.6991
 4228TIP3    H134175   0.112   2.760  14.033  0.8289  1.0012 -1.8975
 4228TIP3    H234176   0.018   2.878  14.021 -0.8354 -0.1126 -0.3105
 4229TIP3   OH234177   0.430   0.994   5.794 -0.4862  0.0142  0.0331
 4229TIP3    H134178   0.423   0.966   5.703  1.0106  0.8510 -0.3727
 4229TIP3    H234179   0.424   0.913   5.845 -0.0816 -0.6017 -0.8820
 4230TIP3   OH234180   0.426   3.162   6.421 -0.4333  0.3274  1.0091
 4230TIP3    H134181   0.481   3.088   6.445 -0.0483  0.9750  2.1911
 4230TIP3    H234182   0.487   3.235   6.411 -0.8266  0.5360 -0.0111
 4231TIP3   OH234183   5.022   4.145  16.457 -0.2297  0.2742  0.3518
 4231TIP3    H134184   4.990   4.063  16.495 -0.5517  0.7219  1.0816
 4231TIP3    H234185   5.114   4.128  16.438 -0.5943 -0.6432 -0.6622
 4232TIP3   OH234186   0.461   3.255   5.985 -0.4947  0.0293  0.3948
 4232TIP3    H134187   0.407   3.246   5.907  1.0418 -1.0606 -0.6057
 4232TIP3    H234188   0.401   3.283   6.054 -1.9093  0.9451 -1.1498
 4233TIP3   OH234189   3.561   3.589  12.309  0.3138 -0.0484  0.1823
 4233TIP3    H134190   3.631   3.562  12.368 -1.6466  0.4462  2.9381
 4233TIP3    H234191   3.482   3.547  12.344 -1.0725  0.7681 -1.7559
 4234TIP3   OH234192   5.700   4.358  16.466  0.4709 -0.2709  0.3332
 4234TIP3    H134193   5.703   4.271  16.507  1.2626  0.1535  1.2081
 4234TIP3    H234194   5.792   4.382  16.454  0.2721 -0.4049 -1.8011
 4235TIP3   OH234195   2.358   3.050  14.302  0.5550 -0.0248  0.3360
 4235TIP3    H134196   2.327   2.986  14.238  0.0766 -0.0754  0.6087
 4235TIP3    H234197   2.299   3.125  14.293  1.2325  0.4640 -0.1158
 4236TIP3   OH234198   3.663   5.207  14.351  0.1376 -0.2600  0.1409
 4236TIP3    H134199   3.676   5.190  14.445  2.1491 -0.9599 -0.2121
 4236TIP3    H234200   3.701   5.131  14.308 -0.8115  0.0364 -1.2565
 4237TIP3   OH234201   1.240   3.339   1.517 -0.0555 -0.6130 -0.2989
 4237TIP3    H134202   1.286   3.353   1.599  1.1414  2.4276 -1.3354
 4237TIP3    H234203   1.175   3.409   1.513  0.7381  0.1048 -2.3956
 4238TIP3   OH234204   0.778   3.517   0.390  0.0109  0.1230 -0.5581
 4238TIP3    H134205   0.850   3.489   0.334  0.7846  1.0945 -0.0753
 4238TIP3    H234206   0.719   3.565   0.333  1.0482  1.5509 -0.4785
 4239TIP3   OH234207   2.140   2.536   0.863  0.2805 -0.1747 -0.2045
 4239TIP3    H134208   2.190   2.604   0.818  0.7874 -0.0155  0.5805
 4239TIP3    H234209   2.156   2.552   0.956 -2.0476  0.5021  0.1435
 4240TIP3   OH234210   3.442   4.914   1.289  0.1699  0.1228 -0.5408
 4240TIP3    H134211   3.512   4.874   1.342 -2.5926 -0.1213  3.3755
 4240TIP3    H234212   3.488   4.950   1.213  4.2882 -1.3536  0.9315
 4241TIP3   OH234213   3.490   2.497   2.120  0.7313 -0.9294 -0.9449
 4241TIP3    H134214   3.560   2.551   2.082 -0.0453  0.0587 -1.0190
 4241TIP3    H234215   3.433   2.560   2.165 -0.5079 -1.6062 -1.5068
 4242TIP3   OH234216   2.180   5.575   3.226 -0.7505 -0.1746  0.2759
 4242TIP3    H134217   2.168   5.661   3.187  1.2296 -1.0851 -2.6455
 4242TIP3    H234218   2.094   5.533   3.219 -1.1093  0.6772 -0.6222
 4243TIP3   OH234219   2.651   3.686  14.127  0.1865 -0.0271 -0.3053
 4243TIP3    H134220   2.729   3.704  14.180 -0.9627 -0.1536  1.5487
 4243TIP3    H234221   2.582   3.738  14.169 -1.1033 -1.3026 -0.7571
 4244TIP3   OH234222   0.333   3.499   5.509 -0.4730 -0.2292 -0.2601
 4244TIP3    H134223   0.279   3.420   5.508 -0.1447 -0.4787  0.6947
 4244TIP3    H234224   0.390   3.490   5.433 -0.3420 -0.9826 -0.0759
 4245TIP3   OH234225   3.114   4.387  14.825 -0.0752  0.3438  0.5349
 4245TIP3    H134226   3.072   4.336  14.895  2.6665 -0.5245  1.7044
 4245TIP3    H234227   3.093   4.478  14.845 -0.8888 -0.0165  1.3887
 4246TIP3   OH234228   2.634   6.494   2.273 -0.3127  0.2029  0.0946
 4246TIP3    H134229   2.715   6.505   2.224 -0.3021  0.1438  0.0986
 4246TIP3    H234230   2.639   6.405   2.308 -0.6525 -0.0134 -0.4067
 4247TIP3   OH234231   1.783   4.928   2.747  0.0010 -0.4064 -0.3166
 4247TIP3    H134232   1.829   4.884   2.676 -0.8811  0.4269 -1.4527
 4247TIP3    H234233   1.835   5.006   2.765 -0.8793  0.5456 -1.6142
 4248TIP3   OH234234   6.729   1.805  12.229  0.6008 -0.7965 -0.5495
 4248TIP3    H134235   6.810   1.780  12.184  1.9888 -0.2111  1.5073
 4248TIP3    H234236   6.663   1.745  12.195  1.4635 -0.2480 -3.5247
 4249TIP3   OH234237   1.009   0.866  10.486 -0.5590  0.1303  0.3709
 4249TIP3    H134238   0.991   0.939  10.426  0.1669 -0.1986 -0.2567
 4249TIP3    H234239   0.923   0.842  10.521 -1.2974 -0.8987 -1.9756
 4250TIP3   OH234240   5.851   5.616  11.387 -0.0651  0.2692 -0.0847
 4250TIP3    H134241   5.863   5.630  11.481 -0.4920 -0.0010  0.0160
 4250TIP3    H234242   5.894   5.532  11.370 -1.1588 -0.3680  0.1474
 4251TIP3   OH234243   2.198   1.302  11.459 -0.2335 -0.1268 -0.8629
 4251TIP3    H134244   2.136   1.236  11.428  1.0483 -2.1414  0.6320
 4251TIP3    H234245   2.184   1.307  11.553  1.5893 -0.3862 -0.5329
 4252TIP3   OH234246   6.536   3.217   3.257 -0.5265 -0.5058 -0.1649
 4252TIP3    H134247   6.622   3.232   3.217 -0.3059 -0.1163  0.4504
 4252TIP3    H234248   6.548   3.140   3.313  0.1040  0.9981  1.8694
 4253TIP3   OH234249   1.607   0.242   0.139  0.3514  0.3632 -0.8902
 4253TIP3    H134250   1.570   0.321   0.099  0.8904  0.1599 -1.8153
 4253TIP3    H234251   1.574   0.243   0.229 -0.1558  1.3099 -1.0749
 4254TIP3   OH234252   1.427   1.531   6.242  0.2480  0.7295 -0.2151
 4254TIP3    H134253   1.405   1.463   6.306  1.1393  0.2078 -0.4390
 4254TIP3    H234254   1.495   1.583   6.285  0.2088  0.9273 -0.3907
 4255TIP3   OH234255   6.601   6.815  16.963  0.3699  0.5792  0.0558
 4255TIP3    H134256   6.535   6.882  16.942 -1.3027 -1.0755 -0.2848
 4255TIP3    H234257   6.623   6.776  16.878  0.2970 -0.1767  0.3761
 4256TIP3   OH234258   4.753   6.504  15.580 -0.2603  0.7158  0.5663
 4256TIP3    H134259   4.837   6.494  15.535 -0.5506  0.6165  0.0335
 4256TIP3    H234260   4.776   6.543  15.665  0.1572  2.6131 -0.3440
 4257TIP3   OH234261   5.690   3.652   4.388  0.4786  0.4488  0.1177
 4257TIP3    H134262   5.640   3.611   4.317 -1.4297  2.8755 -0.0608
 4257TIP3    H234263   5.781   3.627   4.371 -0.2280 -1.1244 -1.6906
 4258TIP3   OH234264   0.495   5.116   5.322  0.3471  0.3229 -0.5754
 4258TIP3    H134265   0.426   5.126   5.256 -1.3811  0.6069  1.1704
 4258TIP3    H234266   0.456   5.150   5.403  2.3277 -0.1205  0.6422
 4259TIP3   OH234267   5.853   3.724  14.412  0.3341  0.3733  0.3669
 4259TIP3    H134268   5.892   3.726  14.325 -1.0963  1.8585 -0.3049
 4259TIP3    H234269   5.847   3.631  14.434  2.0820  0.0326 -0.4577
 4260TIP3   OH234270   5.064   2.633  12.260 -0.2761  0.3626 -1.1190
 4260TIP3    H134271   5.107   2.548  12.250  1.8502  1.2040  0.1197
 4260TIP3    H234272   4.991   2.616  12.320  1.0269 -0.3904  0.3449
 4261TIP3   OH234273   0.211   1.890  13.617 -0.3141 -0.6750  0.3233
 4261TIP3    H134274   0.178   1.820  13.561  0.6234 -1.4947  0.7741
 4261TIP3    H234275   0.202   1.969  13.563 -0.5465 -1.2648 -0.5318
 4262TIP3   OH234276   2.378   0.366  12.902 -0.2286  0.3016 -0.0728
 4262TIP3    H134277   2.462   0.319  12.909 -0.6557 -0.4092  0.4815
 4262TIP3    H234278   2.396   0.440  12.844 -0.0039 -1.7187 -2.8084
 4263TIP3   OH234279   1.948   2.717   5.082  0.1661 -0.4458 -0.2856
 4263TIP3    H134280   1.887   2.762   5.140 -0.0139  0.2584 -0.9911
 4263TIP3    H234281   1.974   2.639   5.130 -0.7126 -0.3750  0.3368
 4264TIP3   OH234282   0.242   3.246   4.389  0.0277  0.7541  0.0393
 4264TIP3    H134283   0.205   3.193   4.318  1.0808  0.5313 -0.3559
 4264TIP3    H234284   0.237   3.336   4.356  1.5837  0.5580 -0.8528
 4265TIP3   OH234285   0.378   3.152   3.999  0.2589  0.4909  0.5751
 4265TIP3    H134286   0.431   3.079   4.030  1.0909  0.4862 -0.7859
 4265TIP3    H234287   0.404   3.226   4.053  0.1892  0.0422  1.2388
 4266TIP3   OH234288   6.061   3.436  10.570 -0.1491 -0.1431  0.0472
 4266TIP3    H134289   6.136   3.407  10.621 -0.9869 -0.5089  1.1049
 4266TIP3    H234290   6.016   3.356  10.544  0.0600  0.0534 -0.9672
 4267TIP3   OH234291   3.255   4.182   5.031  0.5155 -0.5558 -0.3939
 4267TIP3    H134292   3.197   4.110   5.055 -0.8999  1.2465  2.0023
 4267TIP3    H234293   3.222   4.212   4.946 -1.0808 -0.5823  0.1898
 4268TIP3   OH234294   3.918   2.038  16.182 -0.4000 -0.3336 -0.1105
 4268TIP3    H134295   3.946   2.031  16.273 -3.5104  1.0698  1.1130
 4268TIP3    H234296   3.852   1.969  16.172 -0.8530  0.2056 -0.9699
 4269TIP3   OH234297   4.899   4.915  12.334  0.5611  0.7443 -0.1302
 4269TIP3    H134298   4.985   4.909  12.292  0.5344  0.3017 -0.1308
 4269TIP3    H234299   4.888   5.008  12.354  1.2317  0.7408  0.2833
 4270TIP3   OH234300   2.199   6.250  14.599 -0.1881 -0.4286 -0.6941
 4270TIP3    H134301   2.115   6.282  14.567  0.1909  0.5465 -0.7466
 4270TIP3    H234302   2.179   6.167  14.642 -0.8286 -1.4296 -2.7723
 4271TIP3   OH234303   4.538   6.693  15.648  0.4572  0.0790  0.4563
 4271TIP3    H134304   4.572   6.610  15.612 -1.1245 -0.2672 -0.3404
 4271TIP3    H234305   4.451   6.671  15.680  1.2202  0.7543  3.2013
 4272TIP3   OH234306   3.390   6.300  15.279  0.4948 -0.0683 -0.2722
 4272TIP3    H134307   3.471   6.249  15.283 -0.0283 -1.0324 -1.4237
 4272TIP3    H234308   3.420   6.391  15.271  1.4542 -0.3678 -0.2160
 4273TIP3   OH234309   3.536   1.796  15.126 -0.0135 -0.0986 -0.0678
 4273TIP3    H134310   3.601   1.824  15.062 -0.3131 -0.3099 -0.4675
 4273TIP3    H234311   3.468   1.864  15.122 -0.9542 -1.0723 -1.3564
 4274TIP3   OH234312   1.683   1.263   2.533  0.1768 -0.1853 -0.1194
 4274TIP3    H134313   1.600   1.285   2.491 -0.2350 -2.2830 -0.5574
 4274TIP3    H234314   1.663   1.261   2.627 -0.5279 -1.4839 -0.2681
 4275TIP3   OH234315   6.700   2.196   0.356  0.1291 -0.3219 -0.1889
 4275TIP3    H134316   6.775   2.247   0.325 -1.6224  1.2099 -2.0854
 4275TIP3    H234317   6.641   2.191   0.281 -1.0894 -2.7169  0.8124
 4276TIP3   OH234318   4.086   1.635  11.280  0.4520  0.1892 -0.3461
 4276TIP3    H134319   4.134   1.718  11.284  1.0791 -0.1089 -1.3225
 4276TIP3    H234320   4.040   1.637  11.196  1.6535 -1.0540 -1.0801
 4277TIP3   OH234321   1.235   5.399  13.218 -0.1756  0.0812  0.6624
 4277TIP3    H134322   1.235   5.355  13.303 -0.7995 -0.9292  0.1497
 4277TIP3    H234323   1.196   5.336  13.158  0.9012  0.5033 -0.5275
 4278TIP3   OH234324   1.559   4.509  12.764  0.3591 -0.3845 -0.0964
 4278TIP3    H134325   1.632   4.570  12.750 -0.1810  0.2739 -0.0932
 4278TIP3    H234326   1.585   4.430  12.715  0.6958  0.1417 -0.7963
 4279TIP3   OH234327   2.891   2.663  14.286 -0.3726  0.2065  0.1848
 4279TIP3    H134328   2.958   2.665  14.354  1.0638  0.2850 -1.1673
 4279TIP3    H234329   2.815   2.622  14.328  0.2653  0.7533  1.9623
 4280TIP3   OH234330   0.607   6.072   1.083  0.5200  0.2297 -0.4286
 4280TIP3    H134331   0.513   6.090   1.088  0.2529 -1.2190 -0.0036
 4280TIP3    H234332   0.638   6.084   1.173  0.8343  1.1202 -0.6464
 4281TIP3   OH234333   2.371   6.381   0.431 -0.2558 -0.0339 -0.0140
 4281TIP3    H134334   2.305   6.442   0.465  1.4154  1.2362  1.1235
 4281TIP3    H234335   2.395   6.327   0.506  1.2080  0.6824  0.0739
 4282TIP3   OH234336   5.552   4.270   2.813  0.3370 -0.5721 -0.6141
 4282TIP3    H134337   5.583   4.346   2.764  0.8304 -0.8011 -0.6626
 4282TIP3    H234338   5.597   4.196   2.774  1.8404 -0.6135  1.0883
 4283TIP3   OH234339   5.256   4.444  14.087 -0.5245  0.0956 -0.0899
 4283TIP3    H134340   5.328   4.445  14.150  0.5124 -0.1497 -1.2329
 4283TIP3    H234341   5.182   4.409  14.136  0.4709 -0.8828  0.7600
 4284TIP3   OH234342   4.613   5.771   4.537 -0.4569  0.1443 -0.1207
 4284TIP3    H134343   4.696   5.729   4.556 -0.9065  0.0690  1.8492
 4284TIP3    H234344   4.628   5.863   4.558 -0.3550  0.4898 -1.5720
 4285TIP3   OH234345   6.079   5.646  11.165  0.0542 -0.4696  0.7831
 4285TIP3    H134346   6.029   5.723  11.192  2.0028  1.7679 -1.4939
 4285TIP3    H234347   6.046   5.625  11.078  0.7254 -1.0977  0.6726
 4286TIP3   OH234348   2.607   2.394  11.129  0.2998  0.0692 -0.2685
 4286TIP3    H134349   2.630   2.302  11.146 -0.0613 -0.2849 -1.6261
 4286TIP3    H234350   2.640   2.412  11.041  0.0398  1.1380 -0.1667
 4287TIP3   OH234351   6.188   4.685   4.546  0.4212  0.4444  0.0752
 4287TIP3    H134352   6.220   4.599   4.518  0.2961  0.6547 -0.7346
 4287TIP3    H234353   6.152   4.669   4.633 -1.8765 -0.8985 -1.0146
 4288TIP3   OH234354   3.016   6.010  16.508  0.2093 -0.4091  0.0985
 4288TIP3    H134355   3.089   6.058  16.468  2.5018 -2.6146  1.3413
 4288TIP3    H234356   3.005   6.051  16.594  0.5888 -0.6550  0.2621
 4289TIP3   OH234357   0.384   6.268   4.837 -0.5141  0.1571  0.6315
 4289TIP3    H134358   0.462   6.298   4.884  0.2443 -0.7438  0.0031
 4289TIP3    H234359   0.374   6.177   4.865  0.7836 -0.8569 -1.9157
 4290TIP3   OH234360   2.563   4.835   5.718  0.3472  0.3668 -0.2713
 4290TIP3    H134361   2.513   4.763   5.680 -0.6049  0.9769 -0.1969
 4290TIP3    H234362   2.587   4.805   5.805 -2.0434  0.9893  0.6719
 4291TIP3   OH234363   5.411   5.380  16.650 -0.2258  0.3865 -0.2432
 4291TIP3    H134364   5.391   5.293  16.684 -1.3109  0.4504 -0.6664
 4291TIP3    H234365   5.338   5.400  16.591  0.6162  1.0897 -1.0734
 4292TIP3   OH234366   4.140   0.971  14.907  0.2819  0.5539  0.0495
 4292TIP3    H134367   4.162   0.958  14.815  0.5763  2.0000 -0.1096
 4292TIP3    H234368   4.216   1.015  14.945 -0.9430  2.6313  0.2610
 4293TIP3   OH234369   5.201   5.201   4.260  0.1676 -0.9731  0.1642
 4293TIP3    H134370   5.188   5.284   4.215 -1.4382 -1.8094 -1.0094
 4293TIP3    H234371   5.185   5.220   4.352  3.0829  0.6809  0.4622
 4294TIP3   OH234372   4.060   2.314  13.243  0.0704  0.2813  0.0318
 4294TIP3    H134373   4.141   2.291  13.198  0.2160  0.3489  0.2563
 4294TIP3    H234374   3.991   2.297  13.179  0.1558 -0.9029  0.2322
 4295TIP3   OH234375   3.868   1.084   4.509  0.5248  0.4353 -0.2054
 4295TIP3    H134376   3.895   1.123   4.592 -0.4615 -0.7579  0.7041
 4295TIP3    H234377   3.775   1.103   4.503  0.1242 -1.3513  0.0331
 4296TIP3   OH234378   1.552   1.500   0.459 -0.7516  0.1847 -0.5379
 4296TIP3    H134379   1.615   1.491   0.387  0.9305 -1.4481  1.0234
 4296TIP3    H234380   1.489   1.565   0.428  1.2872  1.3667 -2.4964
 4297TIP3   OH234381   1.433   2.159   4.648 -0.9982 -0.5438  0.9260
 4297TIP3    H134382   1.498   2.178   4.717 -1.0309  2.1998  0.3317
 4297TIP3    H234383   1.447   2.228   4.583 -1.0143 -2.9873 -1.8598
 4298TIP3   OH234384   4.167   6.199   1.011 -0.6185  0.2565 -0.3845
 4298TIP3    H134385   4.119   6.280   1.026  0.0551  0.4476  0.9267
 4298TIP3    H234386   4.237   6.223   0.950  0.1342  0.9077  0.7011
 4299TIP3   OH234387   2.205   0.893  14.011  0.3245  0.6672  0.3524
 4299TIP3    H134388   2.226   0.889  14.105  1.1102 -0.7147  0.1410
 4299TIP3    H234389   2.113   0.867  14.006  0.6235 -0.5184  0.6480
 4300TIP3   OH234390   6.819   4.591  12.091  0.0630 -0.0819 -0.3558
 4300TIP3    H134391   6.857   4.650  12.157  1.0797  0.3097 -1.2677
 4300TIP3    H234392   6.733   4.629  12.072  0.4689  0.7852 -0.5029
 4301TIP3   OH234393   1.742   1.021  15.626 -0.2079 -0.1702 -0.4395
 4301TIP3    H134394   1.672   0.970  15.667 -0.4148  0.1271 -0.4135
 4301TIP3    H234395   1.817   0.962  15.623  0.4069  0.3642  2.0713
 4302TIP3   OH234396   3.009   0.834   2.881  0.2212  0.1298  0.2384
 4302TIP3    H134397   3.041   0.922   2.862  0.6421  0.0496  0.5754
 4302TIP3    H234398   2.914   0.844   2.890  0.0654  0.2895 -1.2490
 4303TIP3   OH234399   1.049   4.704  13.777  0.8043  0.2472  0.1783
 4303TIP3    H134400   1.103   4.632  13.743  1.2103  1.5303 -2.0657
 4303TIP3    H234401   1.073   4.710  13.869  0.7251 -2.4833  0.4814
 4304TIP3   OH234402   1.369   6.365  11.822  0.3944  0.4058 -0.3575
 4304TIP3    H134403   1.371   6.276  11.856 -1.1546  1.4336  2.7756
 4304TIP3    H234404   1.445   6.407  11.862  0.1065  0.9405 -0.3674
 4305TIP3   OH234405   1.828   6.385   2.489  0.2694  1.0240  0.2377
 4305TIP3    H134406   1.869   6.418   2.569 -0.7354 -0.6093  1.4998
 4305TIP3    H234407   1.901   6.360   2.433  0.9953  2.2260  0.6004
 4306TIP3   OH234408   2.454   3.194  10.462  0.1829 -0.5430  0.1247
 4306TIP3    H134409   2.483   3.120  10.515  0.7154 -1.1005 -0.9206
 4306TIP3    H234410   2.503   3.187  10.381 -0.0601  0.7288 -0.1670
 4307TIP3   OH234411   0.905   1.410   4.703  0.6184 -0.5072  0.2220
 4307TIP3    H134412   0.856   1.364   4.635  0.4920  1.1965 -0.9015
 4307TIP3    H234413   0.985   1.440   4.658  0.9355 -0.0758  1.0527
 4308TIP3   OH234414   1.075   0.036   2.431  0.2484 -0.0704  0.0670
 4308TIP3    H134415   1.104   0.052   2.341 -1.0150 -1.5329 -0.6520
 4308TIP3    H234416   1.094  -0.056   2.446 -2.2755 -0.6310  0.1906
 4309TIP3   OH234417   4.961   5.993   1.504  0.1314  0.2554 -0.2172
 4309TIP3    H134418   4.987   5.957   1.589  0.1052  1.2878  0.2387
 4309TIP3    H234419   4.878   6.036   1.520  0.3157  0.7972 -0.6754
 4310TIP3   OH234420   5.815   1.643  13.690  0.2104 -0.3726  0.2601
 4310TIP3    H134421   5.788   1.570  13.745  0.3408 -0.9430 -0.4155
 4310TIP3    H234422   5.910   1.638  13.687  0.1612 -0.9913 -0.8514
 4311TIP3   OH234423   3.530   6.379  14.173 -0.0005  0.4626  0.2594
 4311TIP3    H134424   3.612   6.378  14.223  0.1282  0.9849  0.0591
 4311TIP3    H234425   3.462   6.364  14.239  0.2339  0.2302  0.4566
 4312TIP3   OH234426   0.724   2.599  14.317 -0.2092 -0.1286 -0.1942
 4312TIP3    H134427   0.640   2.638  14.340  0.8722  1.7981  0.7861
 4312TIP3    H234428   0.704   2.536  14.248 -2.6653 -0.9960  1.1686
 4313TIP3   OH234429   3.672   2.411   0.068  0.5411  0.1769 -0.4491
 4313TIP3    H134430   3.756   2.369   0.086  1.2509  2.0291  0.8933
 4313TIP3    H234431   3.613   2.376   0.135  0.5773 -0.2149 -0.6221
 4314TIP3   OH234432   4.756   3.979  11.459 -0.0686  0.1172 -0.3197
 4314TIP3    H134433   4.819   3.987  11.388  0.7978  1.8784  0.5857
 4314TIP3    H234434   4.776   3.895  11.500  0.1207 -0.4209 -1.4731
 4315TIP3   OH234435   6.318   0.735  16.805  0.3991 -0.1499  0.6744
 4315TIP3    H134436   6.227   0.758  16.791  0.6434 -0.0276 -0.8286
 4315TIP3    H234437   6.359   0.815  16.838 -0.1648 -0.4106  2.0695
 4316TIP3   OH234438   0.331   2.497  16.082 -0.3078  0.2648  0.1642
 4316TIP3    H134439   0.367   2.529  16.165 -0.2330 -2.2417  1.1775
 4316TIP3    H234440   0.397   2.519  16.017  1.3007 -0.7918  1.3684
 4317TIP3   OH234441   1.531   0.907  12.008  0.2118 -0.0279 -0.2022
 4317TIP3    H134442   1.522   0.820  12.047  1.9733  0.3506  1.1874
 4317TIP3    H234443   1.559   0.889  11.918 -1.5798 -0.8807 -0.6410
 4318TIP3   OH234444   2.341   0.904  16.520  0.3081  0.6350  0.2284
 4318TIP3    H134445   2.321   0.879  16.430  1.4076 -0.9482  0.3922
 4318TIP3    H234446   2.415   0.849  16.545 -1.5687 -0.8540  2.9705
 4319TIP3   OH234447   2.081   3.729   5.265 -0.2155  0.0725  0.0502
 4319TIP3    H134448   2.134   3.804   5.238 -0.2316  0.7118  1.6587
 4319TIP3    H234449   2.068   3.679   5.185  0.0670  1.6196 -1.0155
 4320TIP3   OH234450   6.191   0.517   5.441  0.0164 -0.0363  0.7788
 4320TIP3    H134451   6.281   0.529   5.410  0.1991 -1.8198  0.4709
 4320TIP3    H234452   6.159   0.605   5.458  1.1354  0.7971 -1.0691
 4321TIP3   OH234453   0.979   2.686   1.341 -0.0064 -0.3925  0.2848
 4321TIP3    H134454   1.022   2.719   1.419 -0.1690 -0.1782  0.2854
 4321TIP3    H234455   1.020   2.732   1.269 -0.7851  0.4114  0.3433
 4322TIP3   OH234456   4.942   4.135  15.579  0.9021 -0.1079 -0.2906
 4322TIP3    H134457   4.924   4.215  15.629  1.5903 -0.2871  0.2589
 4322TIP3    H234458   4.897   4.148  15.496  0.0265  0.3432  0.2416
 4323TIP3   OH234459   3.483   0.769  15.933 -0.1453  0.9316  0.4360
 4323TIP3    H134460   3.424   0.696  15.912  0.3712 -0.1373  2.5032
 4323TIP3    H234461   3.467   0.833  15.863  0.1060 -1.5360 -2.0790
 4324TIP3   OH234462   1.841   4.807   5.507  0.4594 -0.3029 -0.0664
 4324TIP3    H134463   1.834   4.898   5.478 -1.6159 -0.2473  0.4552
 4324TIP3    H234464   1.887   4.812   5.591  1.0767  0.1551 -0.4181
 4325TIP3   OH234465   0.393   6.622   2.562 -0.4498 -0.6549  0.0015
 4325TIP3    H134466   0.361   6.545   2.514 -1.4356 -0.2667  0.0233
 4325TIP3    H234467   0.398   6.593   2.653  0.8193 -1.1982 -0.2114
 4326TIP3   OH234468   0.332   0.862  16.391 -0.1169  0.2674 -0.4479
 4326TIP3    H134469   0.297   0.951  16.386  2.7707  1.6157  0.9517
 4326TIP3    H234470   0.319   0.836  16.482  1.7757  0.5174 -0.0858
 4327TIP3   OH234471   3.316   0.331   2.253  0.6298  0.3093  0.2260
 4327TIP3    H134472   3.254   0.298   2.319 -0.3531 -0.6619 -1.1266
 4327TIP3    H234473   3.288   0.290   2.171  1.9963  1.2553 -0.7602
 4328TIP3   OH234474   2.503   0.754  13.747  0.2943 -0.0118 -0.0206
 4328TIP3    H134475   2.528   0.678  13.799 -1.3930 -0.3427  0.3711
 4328TIP3    H234476   2.489   0.720  13.659 -0.8722 -0.2644  0.2468
 4329TIP3   OH234477   2.829   1.076  10.687  0.0527  0.5200 -0.0674
 4329TIP3    H134478   2.881   1.155  10.673 -0.2016  0.7721  0.4050
 4329TIP3    H234479   2.884   1.021  10.743 -0.3763  0.9881  0.8310
 4330TIP3   OH234480   3.379   2.467   0.246 -0.5304  0.5018  0.3845
 4330TIP3    H134481   3.382   2.373   0.262 -0.2403  0.4771  0.1822
 4330TIP3    H234482   3.460   2.501   0.283  1.1975  0.1711 -2.7618
 4331TIP3   OH234483   0.441   1.874  12.015  0.3313 -0.4100 -0.5012
 4331TIP3    H134484   0.474   1.955  12.054  2.4674 -0.0334 -2.8683
 4331TIP3    H234485   0.494   1.804  12.053  0.8479 -0.2876 -0.9789
 4332TIP3   OH234486   4.111   4.775   0.852 -0.4363 -0.1780 -0.0564
 4332TIP3    H134487   4.098   4.825   0.933  1.0505 -1.3428  0.9487
 4332TIP3    H234488   4.091   4.685   0.876  2.8806 -1.0572 -0.0794
 4333TIP3   OH234489   5.963   3.478  12.467 -0.3138  0.0324 -0.0328
 4333TIP3    H134490   6.052   3.448  12.482 -0.5546 -0.8567 -0.2709
 4333TIP3    H234491   5.946   3.455  12.375 -0.8196  0.0897  0.0440
 4334TIP3   OH234492   3.753   1.241  12.408  0.4082 -0.1574 -0.2143
 4334TIP3    H134493   3.835   1.199  12.379 -1.0079 -2.6851 -0.8347
 4334TIP3    H234494   3.686   1.174  12.396 -1.5401  1.2785  1.8270
 4335TIP3   OH234495   1.571   1.516  15.138  0.1281 -0.2493 -0.2226
 4335TIP3    H134496   1.543   1.443  15.193  0.2931  0.0069  0.2079
 4335TIP3    H234497   1.591   1.476  15.054 -1.7298 -0.4116 -0.6282
 4336TIP3   OH234498   4.920   6.531   5.924 -0.3602  0.5384  0.1811
 4336TIP3    H134499   4.934   6.444   5.888 -0.7786  0.3856  0.3806
 4336TIP3    H234500   4.825   6.541   5.927 -0.3170  1.0068  0.1461
 4337TIP3   OH234501   1.790   1.381  13.060 -0.1094  0.1007  0.0218
 4337TIP3    H134502   1.879   1.399  13.029 -0.7631  1.3883 -1.2278
 4337TIP3    H234503   1.769   1.295  13.023  0.6754 -0.3041  0.4897
 4338TIP3   OH234504   0.545   1.880   4.437 -0.1823  0.6118  0.0130
 4338TIP3    H134505   0.597   1.951   4.476 -0.0823  0.6446 -0.1761
 4338TIP3    H234506   0.507   1.834   4.511 -0.8344  1.3096  0.1174
 4339TIP3   OH234507   5.228   2.815   0.836  0.0003 -0.1275 -0.1514
 4339TIP3    H134508   5.249   2.836   0.927 -0.6137 -1.2679  0.2743
 4339TIP3    H234509   5.146   2.862   0.818  1.5033  2.3805 -1.0580
 4340TIP3   OH234510   0.869   1.192   2.948  0.1448  0.3810  0.4979
 4340TIP3    H134511   0.806   1.121   2.957 -0.1959  0.2281 -2.2173
 4340TIP3    H234512   0.934   1.176   3.017  0.4169 -2.9524 -0.3466
 4341TIP3   OH234513   6.666   3.434  12.358  0.0096 -0.4343  0.2067
 4341TIP3    H134514   6.587   3.381  12.346 -0.4513  0.5640 -1.4996
 4341TIP3    H234515   6.634   3.516  12.396  0.6349 -1.0766  2.2275
 4342TIP3   OH234516   2.651   0.168  12.493 -0.0305  0.2671 -0.7398
 4342TIP3    H134517   2.577   0.190  12.550 -1.1486  0.4004 -2.1710
 4342TIP3    H234518   2.715   0.128  12.551 -1.9391 -1.4544  0.3002
 4343TIP3   OH234519   1.287   1.713  15.079  0.4954  0.2759 -0.0047
 4343TIP3    H134520   1.314   1.713  15.171 -0.1450  0.1777  0.1874
 4343TIP3    H234521   1.294   1.621  15.052 -1.3588 -0.0838  0.5754
 4344TIP3   OH234522   0.579   4.852  16.220  0.2255 -0.1462  0.2119
 4344TIP3    H134523   0.558   4.793  16.147  0.6837 -3.5838  2.6131
 4344TIP3    H234524   0.493   4.876  16.256  0.0581 -0.1662 -0.1662
 4345TIP3   OH234525   4.175   4.861  13.928  0.2106  0.3486  0.5402
 4345TIP3    H134526   4.130   4.920  13.868 -1.6761 -2.0897 -0.6208
 4345TIP3    H234527   4.250   4.828  13.879 -1.1910 -1.4495 -0.5253
 4346TIP3   OH234528   2.642   0.483   0.652 -0.2465  0.2390 -0.3045
 4346TIP3    H134529   2.596   0.522   0.725 -1.9248 -1.6635 -0.2590
 4346TIP3    H234530   2.667   0.557   0.596  2.2049  1.8969  2.6712
 4347TIP3   OH234531   0.452   3.551   2.483  0.0911  0.0638  0.1388
 4347TIP3    H134532   0.467   3.534   2.577  0.9563  0.8374  0.1561
 4347TIP3    H234533   0.449   3.647   2.477 -2.8356  0.0495 -0.2215
 4348TIP3   OH234534   0.628   4.479   1.353 -0.0248  0.0271  0.3271
 4348TIP3    H134535   0.679   4.405   1.320 -2.1124 -1.3884  0.1227
 4348TIP3    H234536   0.542   4.468   1.314 -1.0312  1.3306  2.0596
 4349TIP3   OH234537   3.309   4.698  15.693 -0.1893 -0.0130 -0.5849
 4349TIP3    H134538   3.382   4.671  15.637  0.3288 -0.6434  0.3784
 4349TIP3    H234539   3.316   4.794  15.696  0.1935 -0.0239 -1.0332
 4350TIP3   OH234540   5.277   6.756  10.828  0.9257  0.1339 -0.0073
 4350TIP3    H134541   5.188   6.790  10.821  1.4429  1.5160 -0.3587
 4350TIP3    H234542   5.267   6.665  10.853 -0.6605 -0.5400 -2.7401
 4351TIP3   OH234543   0.470   2.747  16.604  0.0396  0.2810 -0.5229
 4351TIP3    H134544   0.444   2.655  16.609 -0.9624  0.4487 -1.8947
 4351TIP3    H234545   0.459   2.780  16.693 -0.4953 -0.7090 -0.2061
 4352TIP3   OH234546   6.840   2.075  11.197 -0.2786  0.5856  0.4078
 4352TIP3    H134547   6.793   2.024  11.131  0.6660  0.2189  0.0077
 4352TIP3    H234548   6.802   2.046  11.281 -1.3412  0.9098  0.0544
 4353TIP3   OH234549   6.375   3.106   2.537 -0.1832  0.6273  0.3637
 4353TIP3    H134550   6.298   3.087   2.483  1.0545 -0.7610 -1.0147
 4353TIP3    H234551   6.420   3.177   2.489 -0.1507  0.8334  0.6976
 4354TIP3   OH234552   4.695   5.687  15.312  0.1236  0.2279  0.3569
 4354TIP3    H134553   4.756   5.673  15.384 -1.5737 -0.5922  1.6883
 4354TIP3    H234554   4.688   5.602  15.269 -0.5076  0.1813  0.5499
 4355TIP3   OH234555   6.502   6.337  14.212  0.0850  0.2027 -0.4049
 4355TIP3    H134556   6.437   6.291  14.159  0.5388  0.5760 -1.3131
 4355TIP3    H234557   6.533   6.408  14.155 -0.1226  1.2301  0.7175
 4356TIP3   OH234558   1.188   3.589  15.745  0.8357  0.4417  0.1630
 4356TIP3    H134559   1.197   3.567  15.838  0.5269  1.8562  0.5573
 4356TIP3    H234560   1.159   3.680  15.745 -0.8333 -0.0427 -1.2941
 4357TIP3   OH234561   6.394   1.427  14.881 -0.4746 -0.1393  0.3489
 4357TIP3    H134562   6.427   1.469  14.960  1.5224 -0.4915 -0.2470
 4357TIP3    H234563   6.401   1.333  14.899 -1.2498 -0.2294  0.2229
 4358TIP3   OH234564   4.072   4.081  11.326  0.5480 -0.5244 -0.1933
 4358TIP3    H134565   4.071   3.990  11.355 -1.1188 -0.1270  1.2041
 4358TIP3    H234566   4.035   4.079  11.238  0.9737 -1.2538 -0.3589
 4359TIP3   OH234567   1.793   1.356  11.802 -0.2178  0.0835 -0.4650
 4359TIP3    H134568   1.706   1.318  11.793 -0.6418  0.8105  0.4203
 4359TIP3    H234569   1.851   1.281  11.818 -0.9968 -0.2308  1.0021
 4360TIP3   OH234570   3.095   2.495  15.654 -0.0684 -0.3104 -0.0714
 4360TIP3    H134571   3.069   2.538  15.573  0.0703 -0.5626 -0.2501
 4360TIP3    H234572   3.047   2.542  15.722  0.2275  0.2499 -0.2440
 4361TIP3   OH234573   5.147   3.598  14.042 -0.7831 -0.5113  0.0716
 4361TIP3    H134574   5.122   3.508  14.062  0.9578 -0.8712  0.8742
 4361TIP3    H234575   5.072   3.651  14.068 -0.9727 -1.5407  1.7489
 4362TIP3   OH234576   1.798   3.224   0.494  0.1676 -0.1029  0.0707
 4362TIP3    H134577   1.734   3.263   0.554  1.5985  1.4332  0.6966
 4362TIP3    H234578   1.874   3.282   0.499  0.9560 -0.8383 -2.0202
 4363TIP3   OH234579   0.142   5.415   4.308  0.3482 -0.0505  0.2829
 4363TIP3    H134580   0.076   5.464   4.358 -0.1484 -1.3154  0.9062
 4363TIP3    H234581   0.218   5.473   4.306 -0.7187  1.3789 -0.3224
 4364TIP3   OH234582   4.855   4.882   3.386  0.0043  0.4351  0.2518
 4364TIP3    H134583   4.930   4.831   3.352 -2.7338 -2.2551 -2.4315
 4364TIP3    H234584   4.883   4.910   3.473  3.0732 -2.9451  0.6126
 4365TIP3   OH234585   4.202   4.903  16.084  0.5365  0.2757 -0.2244
 4365TIP3    H134586   4.210   4.972  16.151 -0.7918  0.4673 -0.2345
 4365TIP3    H234587   4.163   4.829  16.130 -0.0274  0.2766 -0.6751
 4366TIP3   OH234588   6.393   6.076   3.244  0.4723  0.1907 -0.2982
 4366TIP3    H134589   6.413   6.169   3.253 -1.3013  0.6138 -0.2988
 4366TIP3    H234590   6.398   6.059   3.150  0.0699  0.4758 -0.3734
 4367TIP3   OH234591   1.464   3.935   3.664 -0.0143 -0.0184 -0.3388
 4367TIP3    H134592   1.524   3.944   3.589  0.6377  3.2998  0.4172
 4367TIP3    H234593   1.410   4.013   3.661 -0.5972 -0.2478  2.1470
 4368TIP3   OH234594   4.172   2.267   1.743 -0.0216  0.4834 -0.0041
 4368TIP3    H134595   4.111   2.341   1.740  0.3059  0.7504 -0.1810
 4368TIP3    H234596   4.180   2.245   1.836  1.5804  2.0999  0.2867
 4369TIP3   OH234597   3.131   4.142   4.507 -0.3556  0.6537  0.4181
 4369TIP3    H134598   3.214   4.187   4.495 -0.3838  0.4734 -0.5023
 4369TIP3    H234599   3.153   4.048   4.504 -0.1602  0.5170  3.2114
 4370TIP3   OH234600   0.458   0.688   5.139  0.5947  0.3492 -0.0804
 4370TIP3    H134601   0.429   0.774   5.109 -1.5699 -0.5553 -0.7685
 4370TIP3    H234602   0.390   0.628   5.109 -0.2115 -1.0671  3.9715
 4371TIP3   OH234603   0.244   2.891   3.204 -0.9412 -0.5403  0.2957
 4371TIP3    H134604   0.303   2.964   3.228 -1.9077  1.1454 -2.1231
 4371TIP3    H234605   0.303   2.819   3.183  0.2690  0.7470 -0.9270
 4372TIP3   OH234606   1.753   5.213   5.960 -0.4997  0.4126  0.4450
 4372TIP3    H134607   1.705   5.213   6.043  1.4234  1.4953  1.6383
 4372TIP3    H234608   1.844   5.228   5.985 -0.0834  2.7229 -1.9836
 4373TIP3   OH234609   1.117   0.999  11.367 -0.1198 -0.0779  0.1499
 4373TIP3    H134610   1.106   1.057  11.442  4.3493 -0.0104  1.0476
 4373TIP3    H234611   1.143   1.056  11.295 -0.0265 -0.5403 -0.1925
 4374TIP3   OH234612   6.202   4.674  16.505 -0.1034  0.0385 -0.1374
 4374TIP3    H134613   6.143   4.749  16.504  1.6646  1.5676 -2.7831
 4374TIP3    H234614   6.224   4.660  16.413  0.4898 -3.1133  0.3585
 4375TIP3   OH234615   3.128   2.680   2.896  0.1111  0.4473 -0.8015
 4375TIP3    H134616   3.066   2.609   2.881  0.4442  0.2581 -1.2912
 4375TIP3    H234617   3.166   2.661   2.982  0.3498 -0.0764 -1.0243
 4376TIP3   OH234618   0.092   6.827   0.779  0.0134 -0.0633  0.2790
 4376TIP3    H134619   0.049   6.753   0.736  3.6181 -2.7552  0.8082
 4376TIP3    H234620   0.132   6.876   0.707  0.3174 -0.5388  0.1209
 4377TIP3   OH234621   4.583   5.128   2.515 -0.2788 -0.0242 -0.3152
 4377TIP3    H134622   4.565   5.208   2.564  0.8510 -0.1776  0.3950
 4377TIP3    H234623   4.502   5.078   2.520 -0.2195 -0.0136  1.3873
 4378TIP3   OH234624   5.670   4.510  15.121  0.2427  0.2620 -1.0622
 4378TIP3    H134625   5.725   4.584  15.094  1.8289 -0.4475  0.1117
 4378TIP3    H234626   5.720   4.432  15.097 -1.1411 -0.4582 -1.7400
 4379TIP3   OH234627   5.098   4.584   3.903 -0.2732  0.1944  0.3841
 4379TIP3    H134628   5.020   4.539   3.936 -0.5203 -2.8522 -3.6752
 4379TIP3    H234629   5.171   4.528   3.928 -0.1173 -0.2595 -1.0037
 4380TIP3   OH234630   4.022   3.818   0.602 -0.2534  0.4249  0.4321
 4380TIP3    H134631   3.980   3.744   0.557 -1.1046 -0.4208  2.4574
 4380TIP3    H234632   4.115   3.810   0.580 -0.8709  1.6580 -3.2410
 4381TIP3   OH234633   6.358   2.211  12.050 -0.2807  0.0954  0.0511
 4381TIP3    H134634   6.434   2.269  12.039  0.1473  0.2463  2.9321
 4381TIP3    H234635   6.334   2.185  11.961  4.1269 -1.2046 -1.0192
 4382TIP3   OH234636   5.003   0.071  14.935 -0.3101  0.3008 -0.0222
 4382TIP3    H134637   5.048   0.149  14.968 -0.3190 -0.0755  0.9125
 4382TIP3    H234638   4.924   0.065  14.988  1.2894 -2.2174  2.3752
 4383TIP3   OH234639   1.224   5.273  14.883 -0.7349 -0.0364 -0.0160
 4383TIP3    H134640   1.241   5.315  14.968 -0.0265 -0.6474  0.1573
 4383TIP3    H234641   1.131   5.288  14.867 -0.7826  0.4568  0.6658
 4384TIP3   OH234642   5.050   1.948  13.689 -0.5333  0.0269 -0.5452
 4384TIP3    H134643   4.973   1.949  13.745  0.3885 -0.0867  0.7637
 4384TIP3    H234644   5.118   1.908  13.743  0.6898  0.9829 -1.3342
 4385TIP3   OH234645   4.592   0.410   0.578 -0.0174 -0.0384  0.3769
 4385TIP3    H134646   4.660   0.477   0.566  0.1923 -0.3897 -0.4816
 4385TIP3    H234647   4.521   0.438   0.521  0.4790 -1.0768 -0.7703
 4386TIP3   OH234648   1.216   0.611   5.983 -0.2646 -0.3328  0.7680
 4386TIP3    H134649   1.164   0.689   5.963 -0.8674 -1.1948 -1.2648
 4386TIP3    H234650   1.196   0.593   6.075 -1.0811  1.1763  0.9306
 4387TIP3   OH234651   0.187   4.184   5.079 -0.9172 -0.4136  0.1739
 4387TIP3    H134652   0.244   4.258   5.097 -2.4446  0.3963  1.9915
 4387TIP3    H234653   0.207   4.121   5.149 -2.4399  0.0285  1.0415
 4388TIP3   OH234654   6.071   0.896  17.153  0.8911  1.2879  0.0380
 4388TIP3    H134655   5.997   0.840  17.176  1.9906 -0.0079  0.6486
 4388TIP3    H234656   6.050   0.981  17.191 -0.3533  0.9960  0.0420
 4389TIP3   OH234657   4.101   3.437  12.058  0.1342  0.3917 -0.3381
 4389TIP3    H134658   4.161   3.401  12.123 -0.8661 -0.2170  0.2804
 4389TIP3    H234659   4.028   3.472  12.109 -0.2739  0.6742 -1.0903
 4390TIP3   OH234660   1.594   5.877   5.061  0.1319 -0.0165  0.2600
 4390TIP3    H134661   1.502   5.854   5.074 -0.2830  0.4780 -1.5920
 4390TIP3    H234662   1.637   5.849   5.142 -1.8052  0.6817  1.6065
 4391TIP3   OH234663   2.089   3.471   5.426  0.3437 -0.4539  0.0669
 4391TIP3    H134664   2.107   3.418   5.349 -2.1411  1.0200 -1.6827
 4391TIP3    H234665   2.049   3.551   5.392 -2.9033 -0.6084  2.8995
 4392TIP3   OH234666   0.483   2.784  10.738 -0.5163  0.2577  0.3515
 4392TIP3    H134667   0.410   2.767  10.798 -0.6178  0.0459  0.1700
 4392TIP3    H234668   0.522   2.865  10.770 -1.3543  0.8412 -0.0451
 4393TIP3   OH234669   4.591   3.108   3.905 -0.0189 -0.6650  0.2176
 4393TIP3    H134670   4.592   3.034   3.965 -1.1196  0.2973  1.4990
 4393TIP3    H234671   4.631   3.179   3.954 -2.5075  0.6248  0.5689
 4394TIP3   OH234672   6.772   5.861  10.720  0.0819 -0.3468  0.7952
 4394TIP3    H134673   6.683   5.896  10.710  0.9285  1.5339 -0.9740
 4394TIP3    H234674   6.760   5.768  10.736 -2.1895 -0.7410 -2.3256
 4395TIP3   OH234675   2.467   0.105   2.739  0.2176 -0.2223 -0.1489
 4395TIP3    H134676   2.483   0.035   2.676 -0.4734  0.4659 -1.1456
 4395TIP3    H234677   2.375   0.129   2.724 -0.8631 -1.8301  3.0096
 4396TIP3   OH234678   1.266   3.144   6.516  1.0370 -0.5092  0.2161
 4396TIP3    H134679   1.292   3.055   6.539  0.9642 -0.7440 -0.5624
 4396TIP3    H234680   1.227   3.136   6.428 -1.6004 -0.1947  1.2475
 4397TIP3   OH234681   5.171   0.703  16.686  0.2842 -0.1097  0.0160
 4397TIP3    H134682   5.183   0.612  16.714 -0.0422  0.3812  1.8690
 4397TIP3    H234683   5.093   0.701  16.631  0.9578 -1.1252 -0.9503
 4398TIP3   OH234684   5.764   2.740  13.350  0.1061  0.1177  0.0684
 4398TIP3    H134685   5.671   2.747  13.373  0.0715 -0.9917  0.3191
 4398TIP3    H234686   5.799   2.827  13.367 -0.4639  0.0264  1.9299
 4399TIP3   OH234687   6.554   0.889   6.394 -0.0173 -0.0615 -0.2182
 4399TIP3    H134688   6.485   0.933   6.444  1.6034  0.5922  1.5709
 4399TIP3    H234689   6.531   0.796   6.397 -0.9628  0.1728  0.0990
 4400TIP3   OH234690   0.872   5.968  13.104 -0.0301 -0.0967 -0.1866
 4400TIP3    H134691   0.921   5.896  13.143 -1.7006 -0.5204  1.3053
 4400TIP3    H234692   0.780   5.944  13.117 -0.6453  2.0112 -0.1557
 4401TIP3   OH234693   3.029   3.513   3.017  0.7768  0.2301 -0.6355
 4401TIP3    H134694   3.022   3.608   3.012 -1.0133  0.4722  3.0233
 4401TIP3    H234695   3.123   3.496   3.022  1.2073  1.5683 -2.8552
 4402TIP3   OH234696   4.280   6.435  16.580  0.5733  0.1085  0.7180
 4402TIP3    H134697   4.273   6.429  16.675 -1.0337 -1.6144  0.5638
 4402TIP3    H234698   4.348   6.371  16.557 -0.1972 -0.6918  0.6210
 4403TIP3   OH234699   6.579   0.635   3.122 -0.0950  0.6132  0.9327
 4403TIP3    H134700   6.568   0.665   3.212  1.5078 -0.8478  1.6628
 4403TIP3    H234701   6.657   0.679   3.091  1.7221 -1.8366  1.6917
 4404TIP3   OH234702   1.352   3.859   3.286 -0.1667  0.1815 -0.1228
 4404TIP3    H134703   1.319   3.784   3.336 -0.9662 -0.2562 -1.2650
 4404TIP3    H234704   1.439   3.877   3.323 -0.6034 -0.3240  1.1885
 4405TIP3   OH234705   0.551   2.439   2.854 -0.0886 -0.1545 -0.2497
 4405TIP3    H134706   0.580   2.505   2.917  1.4861  0.7376 -1.8149
 4405TIP3    H234707   0.629   2.386   2.838  0.3321  1.1654 -3.2058
 4406TIP3   OH234708   0.170   1.320  11.321 -0.3206  0.0132 -0.0301
 4406TIP3    H134709   0.164   1.225  11.330  1.5574 -0.2145 -0.8490
 4406TIP3    H234710   0.232   1.347  11.388  0.2481  0.4752 -0.7309
 4407TIP3   OH234711   0.736   6.507   4.642  0.0273  0.2969 -0.3698
 4407TIP3    H134712   0.738   6.487   4.548 -0.6891 -1.2382 -0.1028
 4407TIP3    H234713   0.762   6.598   4.648  1.2195  0.1017 -1.9651
 4408TIP3   OH234714   3.666   0.404   2.803  0.0004 -0.8097  0.0064
 4408TIP3    H134715   3.674   0.323   2.854 -0.2456 -0.4673  0.5962
 4408TIP3    H234716   3.603   0.383   2.735 -1.3878 -0.6331  1.1804
 4409TIP3   OH234717   4.675   0.586   1.863  0.7494  0.1889  0.5458
 4409TIP3    H134718   4.585   0.586   1.893  0.2790  1.7252 -0.7262
 4409TIP3    H234719   4.728   0.576   1.942 -0.5010 -0.2110  1.3519
 4410TIP3   OH234720   1.436   0.748   2.990  1.1533  0.1561 -0.5522
 4410TIP3    H134721   1.421   0.695   2.912 -0.2303  1.7367 -1.4147
 4410TIP3    H234722   1.383   0.827   2.976  3.7864  2.2122  0.2287
 4411TIP3   OH234723   3.539   5.019   0.280  0.0715 -0.4753  0.3754
 4411TIP3    H134724   3.609   5.075   0.313 -0.9388  1.0334  0.0382
 4411TIP3    H234725   3.466   5.033   0.340 -0.0398 -1.8929  0.6226
 4412TIP3   OH234726   2.229   4.905  14.807 -0.2565  0.6048 -0.3031
 4412TIP3    H134727   2.154   4.949  14.768  0.1381  2.6549  1.0849
 4412TIP3    H234728   2.299   4.916  14.742  0.1295  3.1375  0.4027
 4413TIP3   OH234729   4.922   0.745  15.338 -0.4003  0.1215  0.2217
 4413TIP3    H134730   4.963   0.660  15.321 -0.6279  0.1442 -0.4817
 4413TIP3    H234731   4.991   0.797  15.380 -0.0811 -0.2223  0.1259
 4414TIP3   OH234732   6.567   4.744   3.644  0.4364 -0.2855  0.0353
 4414TIP3    H134733   6.639   4.804   3.623  1.4447 -1.9517 -1.6281
 4414TIP3    H234734   6.501   4.761   3.577  0.2119 -0.2773  0.2537
 4415TIP3   OH234735   6.675   4.143   1.248 -0.1336 -0.4535 -0.3828
 4415TIP3    H134736   6.701   4.077   1.184  1.0729 -0.1059 -0.2826
 4415TIP3    H234737   6.596   4.108   1.288 -0.2136 -1.2473 -1.2077
 4416TIP3   OH234738   3.036   0.908  11.637 -0.2442  0.8478 -0.5905
 4416TIP3    H134739   3.098   0.963  11.685  1.8950 -1.3251 -0.6874
 4416TIP3    H234740   3.008   0.843  11.701  0.1052 -0.1370 -1.4214
 4417TIP3   OH234741   3.002   4.829  12.345 -0.9063  0.0940 -0.0649
 4417TIP3    H134742   3.051   4.770  12.402 -0.0775  0.4610 -0.3848
 4417TIP3    H234743   3.037   4.916  12.364 -1.5923  0.3879 -0.1393
 4418TIP3   OH234744   6.235   2.627   4.538 -0.2318 -0.1379 -0.5995
 4418TIP3    H134745   6.202   2.540   4.561 -2.6028  0.6717 -0.6215
 4418TIP3    H234746   6.156   2.681   4.532  1.1871  2.0970 -0.2752
 4419TIP3   OH234747   2.537   2.525  12.074  0.0069  0.0593 -0.2809
 4419TIP3    H134748   2.553   2.607  12.027  1.8939  0.0660  0.2796
 4419TIP3    H234749   2.463   2.486  12.030  1.7425 -0.0110 -3.4035
 4420TIP3   OH234750   4.698   1.630  13.244 -0.1257  0.4385  0.2418
 4420TIP3    H134751   4.605   1.644  13.264  0.2020  1.7741  0.8836
 4420TIP3    H234752   4.733   1.589  13.323 -0.4957 -1.7260 -0.6335
 4421TIP3   OH234753   5.807   4.699  16.060 -0.2703  0.0654 -0.0409
 4421TIP3    H134754   5.822   4.715  15.966 -0.5790 -0.0346 -0.1083
 4421TIP3    H234755   5.714   4.718  16.072 -0.3904 -0.6027  0.1045
 4422TIP3   OH234756   2.077   0.362  14.660 -0.4610  0.1246 -0.1444
 4422TIP3    H134757   2.106   0.324  14.743  1.8287  0.8372 -0.5236
 4422TIP3    H234758   1.988   0.391  14.676  0.1684  0.9341  2.3496
 4423TIP3   OH234759   0.790   5.039   0.375 -0.1684  0.1081  0.2419
 4423TIP3    H134760   0.754   5.006   0.457 -2.3265  0.5840 -0.4579
 4423TIP3    H234761   0.717   5.083   0.332  1.3103  1.2808 -1.2179
 4424TIP3   OH234762   0.530   2.425  16.495 -0.9967 -0.3184 -0.8380
 4424TIP3    H134763   0.562   2.336  16.514  2.0674  0.6578 -0.9122
 4424TIP3    H234764   0.554   2.440  16.404 -0.0889  1.1042 -0.3893
 4425TIP3   OH234765   0.416   2.103   3.695 -0.2867 -0.2249  0.0180
 4425TIP3    H134766   0.378   2.101   3.783 -0.3950 -1.2132 -0.0387
 4425TIP3    H234767   0.492   2.162   3.704 -0.8227  0.4116  0.5379
 4426TIP3   OH234768   5.283   6.094  14.277 -0.3197  0.0707 -0.1616
 4426TIP3    H134769   5.312   6.022  14.221  1.2771 -1.7446  2.7350
 4426TIP3    H234770   5.238   6.051  14.350 -0.3160  2.0940  1.1081
 4427TIP3   OH234771   2.028   6.075  16.447 -0.0535  0.0629 -0.2687
 4427TIP3    H134772   2.104   6.018  16.459  0.1982  0.5157  0.3014
 4427TIP3    H234773   1.954   6.022  16.480  0.1344 -0.0533 -0.0293
 4428TIP3   OH234774   5.286   2.069  11.190 -0.5689 -0.0510 -0.2198
 4428TIP3    H134775   5.307   2.012  11.265 -1.2909  1.1762  0.9669
 4428TIP3    H234776   5.339   2.035  11.118  1.4210 -0.2586  1.2615
 4429TIP3   OH234777   3.609   5.372   2.948 -0.0088  0.1573  0.4761
 4429TIP3    H134778   3.667   5.384   3.023  1.3548  0.5118 -0.5925
 4429TIP3    H234779   3.578   5.460   2.928  0.9824  0.3158 -0.4061
 4430TIP3   OH234780   0.357   3.349   1.510 -0.3926  0.6441  0.1003
 4430TIP3    H134781   0.299   3.406   1.561  1.9665  1.7158  1.7620
 4430TIP3    H234782   0.398   3.292   1.575 -0.3960 -0.8956 -1.1811
 4431TIP3   OH234783   6.547   4.050  11.871  0.1244 -0.4064 -0.1611
 4431TIP3    H134784   6.575   4.123  11.926 -1.1049  0.2854 -0.4165
 4431TIP3    H234785   6.577   4.075  11.783 -3.5650  1.7806 -1.0124
 4432TIP3   OH234786   2.942   3.101   3.045 -0.4402  0.2749 -0.0950
 4432TIP3    H134787   2.932   3.035   3.113 -1.7994  0.8802  0.3290
 4432TIP3    H234788   2.985   3.055   2.972  2.0972 -0.1143  1.5158
 4433TIP3   OH234789   4.212   4.183   0.188  0.6470 -0.1064 -0.1110
 4433TIP3    H134790   4.200   4.277   0.206  0.5480 -0.1319 -0.0461
 4433TIP3    H234791   4.307   4.171   0.192  0.5608 -0.4483  2.1603
 4434TIP3   OH234792   0.060   4.764  12.301 -0.2976  0.9479 -0.1832
 4434TIP3    H134793  -0.005   4.755  12.370  1.3687 -0.9741  1.2702
 4434TIP3    H234794   0.085   4.856  12.304 -0.9393  1.1061  1.1466
 4435TIP3   OH234795   6.063   1.310   2.064  0.5143  0.2978  0.2649
 4435TIP3    H134796   6.016   1.394   2.063  0.2216  0.1747  1.4239
 4435TIP3    H234797   6.148   1.330   2.103  0.7737  0.2074 -0.2494
 4436TIP3   OH234798   3.362   3.108   0.246  0.2376  0.0625  0.3513
 4436TIP3    H134799   3.335   3.080   0.334  0.0288  0.0787  0.2918
 4436TIP3    H234800   3.390   3.027   0.203  2.9533  0.3863  1.3391
 4437TIP3   OH234801   5.739   2.890   4.404 -0.2881 -0.2438  0.1653
 4437TIP3    H134802   5.728   2.925   4.492  0.7000 -0.9448  0.5804
 4437TIP3    H234803   5.774   2.802   4.417  2.4570  0.5744 -0.9290
 4438TIP3   OH234804   3.163   1.034  11.230 -0.1861  0.5851 -0.0973
 4438TIP3    H134805   3.239   1.053  11.285  1.0626 -0.3981 -1.3972
 4438TIP3    H234806   3.157   1.110  11.172  0.8462 -0.0320 -1.0587
 4439TIP3   OH234807   3.597   6.038   2.410  0.3019 -0.3403  0.3058
 4439TIP3    H134808   3.684   6.000   2.395  0.4288 -0.3555  1.0402
 4439TIP3    H234809   3.589   6.043   2.506 -0.0755  0.6545  0.2334
 4440TIP3   OH234810   0.290   4.025  11.297 -0.3892  0.0778  0.7678
 4440TIP3    H134811   0.250   4.054  11.215  3.4050 -3.8666 -3.1326
 4440TIP3    H234812   0.352   4.094  11.319  1.6475 -0.4478 -2.5443
 4441TIP3   OH234813   0.363   0.319  12.502 -0.5678 -0.8037 -0.6995
 4441TIP3    H134814   0.401   0.284  12.422  0.0557 -0.5889 -0.5030
 4441TIP3    H234815   0.324   0.243  12.546  0.6436 -1.2384 -0.3511
 4442TIP3   OH234816   0.450   3.774  14.584  0.3586 -0.3138  0.2815
 4442TIP3    H134817   0.434   3.704  14.646 -3.7055 -2.5494 -2.7991
 4442TIP3    H234818   0.421   3.854  14.629 -0.9972 -1.5990  1.7786
 4443TIP3   OH234819   3.504   4.344  15.099  0.2415  0.1334 -0.3536
 4443TIP3    H134820   3.559   4.413  15.136  1.3920 -1.2010  0.5058
 4443TIP3    H234821   3.566   4.280  15.065 -0.7679 -1.3950  0.5912
 4444TIP3   OH234822   3.766   2.325  15.860 -0.0616  0.2126  0.0266
 4444TIP3    H134823   3.714   2.323  15.940 -1.5268  1.9285 -0.8158
 4444TIP3    H234824   3.746   2.242  15.817  0.0290 -0.3240  0.9900
 4445TIP3   OH234825   0.766   0.694  14.638 -0.0017  0.2823 -0.5032
 4445TIP3    H134826   0.695   0.634  14.664 -0.5118  0.2512 -1.8774
 4445TIP3    H234827   0.827   0.638  14.590  1.7934 -0.0237  1.9455
 4446TIP3   OH234828   3.743   1.789  14.922 -0.1732 -0.2463  0.1210
 4446TIP3    H134829   3.717   1.698  14.904  0.3242 -0.1467 -1.1767
 4446TIP3    H234830   3.712   1.838  14.846  1.1939  0.3595 -0.0614
 4447TIP3   OH234831   5.442   3.556  13.356  0.3812  0.4458  0.2571
 4447TIP3    H134832   5.525   3.510  13.366  1.4516  2.1543 -0.3737
 4447TIP3    H234833   5.465   3.649  13.359 -1.2538  0.9803 -1.7092
 4448TIP3   OH234834   3.735   1.594   2.561 -0.1904  0.3235 -0.1255
 4448TIP3    H134835   3.680   1.649   2.504 -1.2370 -0.1935  0.3538
 4448TIP3    H234836   3.682   1.580   2.639  1.4579  1.5170  1.2735
 4449TIP3   OH234837   4.462   3.365  11.827 -0.0334 -0.3116 -0.1568
 4449TIP3    H134838   4.552   3.353  11.858 -0.4386 -2.4092  0.3113
 4449TIP3    H234839   4.432   3.443  11.873  1.1919 -0.2033  0.5056
 4450TIP3   OH234840   1.445   6.057   3.906 -0.2736 -0.4329 -0.1342
 4450TIP3    H134841   1.390   6.080   3.981  0.4229 -3.0091  1.2562
 4450TIP3    H234842   1.535   6.069   3.937  0.0177 -0.1445 -1.0507
 4451TIP3   OH234843   6.392   5.935   3.793 -0.6761 -0.2400  0.4820
 4451TIP3    H134844   6.431   6.020   3.773  1.1058 -1.4195 -1.3921
 4451TIP3    H234845   6.438   5.905   3.871 -0.7354  0.1364  0.6660
 4452TIP3   OH234846   4.856   4.021   5.729  0.2309  0.1864 -0.3118
 4452TIP3    H134847   4.855   4.076   5.650  2.8508  0.9035  0.0609
 4452TIP3    H234848   4.872   3.933   5.695  0.3436  0.3325 -0.6492
 4453TIP3   OH234849   0.640   2.406   4.478  0.0798  0.0483  0.1067
 4453TIP3    H134850   0.596   2.326   4.447 -1.9566  1.6469 -1.4138
 4453TIP3    H234851   0.612   2.473   4.416  1.5671  2.0135  1.4720
 4454TIP3   OH234852   0.582   3.821   3.867 -0.2963  0.1240 -0.2638
 4454TIP3    H134853   0.545   3.764   3.800  1.3987 -0.5530 -0.6734
 4454TIP3    H234854   0.624   3.891   3.819  0.1499  0.1319  0.1303
 4455TIP3   OH234855   3.380   1.184  13.618  0.0230 -0.6203 -0.0618
 4455TIP3    H134856   3.411   1.274  13.610 -1.7977 -0.0836 -2.3033
 4455TIP3    H234857   3.434   1.135  13.555  1.0896 -1.1830  1.2351
 4456TIP3   OH234858   0.192   3.888  15.026 -0.3211  0.1413 -0.4867
 4456TIP3    H134859   0.145   3.851  15.100  0.8239  0.9499  0.6953
 4456TIP3    H234860   0.129   3.946  14.984 -0.9961 -0.3546 -0.1750
 4457TIP3   OH234861   4.166   0.669  15.833  0.0839 -0.1387 -0.0927
 4457TIP3    H134862   4.168   0.765  15.833  0.2274 -0.1273  1.0254
 4457TIP3    H234863   4.090   0.647  15.780  1.0148  0.5524 -1.7833
 4458TIP3   OH234864   6.784   0.466  14.462  0.0500  0.2286  0.4185
 4458TIP3    H134865   6.701   0.512  14.448  0.7264  2.0609  1.8921
 4458TIP3    H234866   6.771   0.420  14.545  0.7269  1.1503  1.0519
 4459TIP3   OH234867   0.349   3.149   2.507  0.4235  0.1533 -0.2852
 4459TIP3    H134868   0.402   3.135   2.586  0.2657  0.7770 -0.0620
 4459TIP3    H234869   0.384   3.230   2.469  0.5672 -0.2009 -0.9179
 4460TIP3   OH234870   4.103   5.683  12.145 -0.2867 -0.0509 -0.2703
 4460TIP3    H134871   4.117   5.669  12.239  2.2942 -2.2825 -0.8411
 4460TIP3    H234872   4.041   5.614  12.120 -2.5629  1.7747  0.0353
 4461TIP3   OH234873   4.953   3.948   2.736  0.1101 -0.2604  0.2422
 4461TIP3    H134874   5.028   3.969   2.679 -0.4561 -0.4695 -0.6000
 4461TIP3    H234875   4.907   3.878   2.689 -0.2888 -0.5382  1.0434
 4462TIP3   OH234876   5.319   3.194  16.611  0.0739 -0.0796 -0.2652
 4462TIP3    H134877   5.356   3.279  16.634 -0.6499  0.6527 -1.6823
 4462TIP3    H234878   5.329   3.188  16.516  1.6537 -2.3452 -0.0382
 4463TIP3   OH234879   6.737   2.006   0.974  0.3793  0.7394  0.0138
 4463TIP3    H134880   6.769   2.088   0.936  0.1683  0.6902 -0.2772
 4463TIP3    H234881   6.650   2.028   1.008 -0.7358  0.0773 -2.2329
 4464TIP3   OH234882   0.325   4.020   2.949 -0.1151  0.7993 -0.4134
 4464TIP3    H134883   0.232   4.040   2.964 -0.4773  0.8441 -2.4583
 4464TIP3    H234884   0.324   3.957   2.877  1.4152  0.0000  0.2292
 4465TIP3   OH234885   6.502   3.457  14.927 -0.5261 -0.0755  0.0709
 4465TIP3    H134886   6.431   3.465  14.991  0.3597 -2.1404  1.4303
 4465TIP3    H234887   6.458   3.426  14.848 -1.3533  0.2919  0.3678
 4466TIP3   OH234888   3.963   5.512  11.575  0.4845 -0.4807 -0.3250
 4466TIP3    H134889   4.054   5.491  11.555  0.7867  1.0885 -0.7467
 4466TIP3    H234890   3.913   5.482  11.499  0.5268 -2.0179  0.2268
 4467TIP3   OH234891   1.197   0.465   4.627 -0.6133 -0.2423  0.4327
 4467TIP3    H134892   1.180   0.518   4.549  0.2699  0.3613  0.6451
 4467TIP3    H234893   1.215   0.528   4.697 -0.7059 -0.7936  0.9706
 4468TIP3   OH234894   2.235   3.283  17.089  0.3018 -0.0176  0.1974
 4468TIP3    H134895   2.281   3.220  17.145 -0.0486 -1.0063 -0.5917
 4468TIP3    H234896   2.267   3.265  17.001  0.3886  1.1006 -0.0120
 4469TIP3   OH234897   5.683   1.250  11.358 -0.3546 -0.4950 -0.3263
 4469TIP3    H134898   5.697   1.159  11.385 -0.9433 -1.0159 -1.7192
 4469TIP3    H234899   5.771   1.284  11.340  0.1610  0.0742  2.6632
 4470TIP3   OH234900   5.012   0.662   6.152 -0.3191 -1.0308  0.4165
 4470TIP3    H134901   4.966   0.668   6.069 -0.8276 -0.3496  0.7420
 4470TIP3    H234902   5.102   0.638   6.128 -0.2254  0.0682 -0.3895
 4471TIP3   OH234903   5.034   3.330  16.934  0.0647 -0.3519  0.5040
 4471TIP3    H134904   5.106   3.267  16.929  0.8735  0.6323 -0.7540
 4471TIP3    H234905   4.988   3.321  16.851 -0.8924 -0.4964  1.0320
 4472TIP3   OH234906   3.434   5.182  12.356  0.2195  0.0336 -0.1756
 4472TIP3    H134907   3.369   5.175  12.426  0.8782 -2.2712  0.2831
 4472TIP3    H234908   3.509   5.226  12.396  0.0542  0.0163  0.1483
 4473TIP3   OH234909   2.292   2.553   5.054  0.3127 -0.6242 -0.0854
 4473TIP3    H134910   2.242   2.609   4.994 -1.0447 -0.9724  0.6704
 4473TIP3    H234911   2.381   2.554   5.019 -0.1206  0.3636 -1.2485
 4474TIP3   OH234912   3.091   6.102   3.901 -0.5762 -0.0897  0.0891
 4474TIP3    H134913   3.020   6.045   3.932 -1.3025  0.7241 -0.0236
 4474TIP3    H234914   3.046   6.181   3.870  0.3282  0.1442 -0.6735
 4475TIP3   OH234915   4.894   0.641   1.710 -0.4256  0.5213 -0.0604
 4475TIP3    H134916   4.809   0.633   1.753 -0.4919  2.0847  0.1799
 4475TIP3    H234917   4.958   0.618   1.778 -0.6204  0.2808  0.0442
 4476TIP3   OH234918   4.874   3.669   3.930  0.2209 -0.4108  0.6092
 4476TIP3    H134919   4.917   3.727   3.993 -1.1981  1.3485  0.0559
 4476TIP3    H234920   4.816   3.727   3.880  0.5576 -1.8938 -1.6707
 4477TIP3   OH234921   3.814   6.351   3.316  0.7849  0.3328 -0.4478
 4477TIP3    H134922   3.840   6.328   3.405  1.8971 -0.1051 -0.8657
 4477TIP3    H234923   3.890   6.397   3.280  0.7813 -0.4354 -1.5063
 4478TIP3   OH234924   3.379   5.986   3.524  0.4203 -0.2297 -0.2330
 4478TIP3    H134925   3.411   5.900   3.550  0.0574 -0.5372 -0.7881
 4478TIP3    H234926   3.448   6.021   3.466  0.9678  0.2225  0.6725
 4479TIP3   OH234927   1.378   5.302  12.646  0.2879  0.4845 -0.0529
 4479TIP3    H134928   1.382   5.396  12.625  1.0079  0.2457 -1.0693
 4479TIP3    H234929   1.468   5.272  12.636 -0.1099 -0.5223 -0.6972
 4480TIP3   OH234930   4.443   3.192  17.014 -0.3357 -0.0448  0.1476
 4480TIP3    H134931   4.377   3.260  17.018 -0.6498 -0.2584 -0.9143
 4480TIP3    H234932   4.396   3.111  17.034 -0.7868 -0.4100 -2.1267
 4481TIP3   OH234933   1.689   0.618   0.985 -0.2043 -0.1935 -0.1919
 4481TIP3    H134934   1.664   0.705   1.017 -0.9323 -0.1206 -0.9274
 4481TIP3    H234935   1.670   0.559   1.058 -0.8245  0.1139 -0.1004
 4482TIP3   OH234936   1.922   5.200   2.509 -0.0110 -0.7916  0.5090
 4482TIP3    H134937   1.931   5.260   2.583 -1.7196 -1.3072  1.1786
 4482TIP3    H234938   2.008   5.201   2.467  0.6119  0.5069  1.7319
 4483TIP3   OH234939   0.437   6.150  16.285 -0.1797 -0.5998 -0.1656
 4483TIP3    H134940   0.425   6.244  16.270 -0.1253 -0.7480 -1.1782
 4483TIP3    H234941   0.366   6.109  16.236 -1.1990 -1.0341  1.5985
 4484TIP3   OH234942   2.044   0.349  12.265 -0.0603  0.4268 -0.1941
 4484TIP3    H134943   2.127   0.392  12.286  0.1720 -0.5452  1.0081
 4484TIP3    H234944   2.069   0.276  12.209 -0.0324 -0.0700  0.4445
 4485TIP3   OH234945   2.931   2.791   6.039  0.0535 -0.3138 -0.1886
 4485TIP3    H134946   3.001   2.751   6.090  0.2105 -0.2542 -0.3560
 4485TIP3    H234947   2.928   2.882   6.069  1.3853  0.2234 -1.5754
 4486TIP3   OH234948   2.952   2.583  11.180  0.5792 -0.8140 -0.1127
 4486TIP3    H134949   3.012   2.657  11.169  2.1913 -1.8852  1.0210
 4486TIP3    H234950   2.902   2.580  11.098  1.3929  0.7053 -0.7093
 4487TIP3   OH234951   6.623   4.781   3.127  0.3122 -0.0886  0.8998
 4487TIP3    H134952   6.660   4.703   3.086  0.8232  0.0705  1.0480
 4487TIP3    H234953   6.668   4.788   3.211 -0.5729 -0.2870  1.4038
 4488TIP3   OH234954   4.699   2.824   3.588 -0.1218  0.0882 -0.1648
 4488TIP3    H134955   4.794   2.835   3.600 -0.0467  1.8480 -1.9444
 4488TIP3    H234956   4.679   2.869   3.506 -2.4200 -0.8253 -0.1850
 4489TIP3   OH234957   1.315   0.152  12.243  0.1229  0.2833  0.1884
 4489TIP3    H134958   1.375   0.093  12.198  1.0605  2.3730 -1.4897
 4489TIP3    H234959   1.370   0.203  12.302 -0.8807 -1.3742  2.7169
 4490TIP3   OH234960   3.650   3.391   1.671  0.0902  0.3236  0.3268
 4490TIP3    H134961   3.740   3.369   1.644 -0.4464 -0.6955 -0.7308
 4490TIP3    H234962   3.641   3.484   1.650 -0.5861 -0.5352 -4.1670
 4491TIP3   OH234963   1.673   2.506  14.692  0.6647  0.1733  1.0297
 4491TIP3    H134964   1.605   2.516  14.758  1.1819 -1.2621  1.8417
 4491TIP3    H234965   1.720   2.589  14.692  1.0280  0.0025  2.9297
 4492TIP3   OH234966   0.062   4.780   6.017 -0.5093  0.4169  0.0526
 4492TIP3    H134967  -0.029   4.801   5.996 -0.1890 -0.0753 -2.0470
 4492TIP3    H234968   0.085   4.711   5.954  0.6059 -1.1844  2.0914
 4493TIP3   OH234969   6.472   1.051   3.881 -0.1221 -0.7034 -0.6291
 4493TIP3    H134970   6.413   1.054   3.806 -0.6144 -3.6657 -0.4844
 4493TIP3    H234971   6.558   1.073   3.845 -0.3418 -2.0890 -2.1043
 4494TIP3   OH234972   1.204   2.127   4.097 -0.8445 -0.1065 -0.1060
 4494TIP3    H134973   1.250   2.043   4.104 -0.8496 -0.1207 -0.2407
 4494TIP3    H234974   1.125   2.115   4.149 -0.2026  0.2605  0.9746
 4495TIP3   OH234975   1.978   1.151   4.440  0.3179 -0.1431 -1.0894
 4495TIP3    H134976   1.950   1.060   4.429 -0.6907 -0.3989  2.3826
 4495TIP3    H234977   2.057   1.145   4.494 -0.2355  1.0061 -0.1102
 4496TIP3   OH234978   1.029   1.585  11.338  0.0945  0.6556  1.1638
 4496TIP3    H134979   0.943   1.552  11.363 -0.0594  1.4683  1.7437
 4496TIP3    H234980   1.026   1.590  11.242 -0.1346 -0.2791  1.1135
 4497TIP3   OH234981   3.590   6.366  12.650  0.5413 -0.1477  0.0728
 4497TIP3    H134982   3.601   6.445  12.598 -2.0059 -0.3822 -0.9546
 4497TIP3    H234983   3.661   6.308  12.621  0.0776  0.2947 -2.1012
 4498TIP3   OH234984   4.819   4.850  16.972  0.0657 -0.2993  0.1009
 4498TIP3    H134985   4.840   4.825  16.881 -3.2504 -0.6224 -0.6900
 4498TIP3    H234986   4.812   4.946  16.969 -2.6198 -0.4449 -0.7294
 4499TIP3   OH234987   6.028   0.943   5.104  0.1097  0.3100  0.0189
 4499TIP3    H134988   6.026   1.031   5.141  0.1065  0.6250 -0.7128
 4499TIP3    H234989   6.119   0.932   5.075 -0.0379  0.3082 -0.4439
 4500TIP3   OH234990   3.359   6.111   3.909  0.3517  0.1191  0.4571
 4500TIP3    H134991   3.354   6.093   4.003  0.1075 -0.8799  0.2633
 4500TIP3    H234992   3.268   6.121   3.882  0.4753  1.7096  0.5532
 4501TIP3   OH234993   2.489   2.470   5.867 -0.1374  0.5614  0.8960
 4501TIP3    H134994   2.444   2.546   5.832 -0.8231 -0.6523 -0.9888
 4501TIP3    H234995   2.574   2.470   5.822 -0.7993 -0.6885 -0.4144
 4502TIP3   OH234996   1.202   0.062  14.267 -0.5674 -0.3036 -0.1620
 4502TIP3    H134997   1.231  -0.020  14.308  0.2265 -0.9874 -1.9694
 4502TIP3    H234998   1.170   0.036  14.181 -0.5907  1.2559 -0.6580
 4503TIP3   OH234999   0.637   6.142   0.386  0.0701 -0.4107 -0.0746
 4503TIP3    H135000   0.685   6.179   0.312  0.5983  1.7940  1.2933
 4503TIP3    H235001   0.702   6.090   0.433 -0.2430 -1.7373 -1.0319
 4504TIP3   OH235002   4.096   0.988  14.390  0.6478 -0.0755 -0.2632
 4504TIP3    H135003   4.030   1.041  14.435  1.0798  0.2928 -0.0596
 4504TIP3    H235004   4.072   0.897  14.411 -2.8769 -0.3846 -4.2805
 4505TIP3   OH235005   3.326   4.301  12.008  0.4397  0.0611  0.0275
 4505TIP3    H135006   3.376   4.355  12.070  1.7888  0.0957 -1.0302
 4505TIP3    H235007   3.326   4.214  12.048  1.5980  0.0036 -0.0414
 4506TIP3   OH235008   0.206   5.308   1.234 -0.6256 -0.1276  0.1140
 4506TIP3    H135009   0.119   5.313   1.274  0.1342 -0.8214  1.9611
 4506TIP3    H235010   0.266   5.295   1.307  1.1456  1.0940 -1.0375
 4507TIP3   OH235011   6.411   4.869   4.566  0.1089 -0.0051 -0.2074
 4507TIP3    H135012   6.333   4.814   4.556 -0.1268  0.3904 -0.5771
 4507TIP3    H235013   6.482   4.816   4.530 -0.1437 -0.0109 -0.7127
 4508TIP3   OH235014   3.198   5.413   4.729 -0.0711  0.5205  0.3137
 4508TIP3    H135015   3.196   5.501   4.692  0.4129 -0.3698 -2.0212
 4508TIP3    H235016   3.153   5.359   4.664 -0.0322 -1.0148  1.5175
 4509TIP3   OH235017   1.639   1.068  12.341  0.0137 -0.7053 -0.1482
 4509TIP3    H135018   1.572   1.070  12.410 -1.6131 -1.6181 -1.5998
 4509TIP3    H235019   1.640   1.156  12.306 -1.4856 -1.0071 -1.0211
 4510TIP3   OH235020   6.194   3.772  11.220 -0.6280 -0.8049  0.3633
 4510TIP3    H135021   6.162   3.809  11.137 -0.1085  1.5245  1.1300
 4510TIP3    H235022   6.156   3.827  11.288  1.2029 -0.8671  1.5264
 4511TIP3   OH235023   3.219   5.231  13.360 -0.3440 -0.0343  0.0907
 4511TIP3    H135024   3.263   5.290  13.422  0.8781  1.1922 -1.8240
 4511TIP3    H235025   3.138   5.206  13.404  1.1924 -0.5645  2.8410
 4512TIP3   OH235026   0.157   1.562   4.000  0.0578 -0.4132  0.0481
 4512TIP3    H135027   0.100   1.533   4.071  0.7680  1.2694  1.3791
 4512TIP3    H235028   0.103   1.622   3.948 -1.0209 -2.9466 -1.9800
 4513TIP3   OH235029   4.913   3.763   5.668 -0.1985 -0.1286 -0.5950
 4513TIP3    H135030   4.998   3.721   5.678 -0.6209 -0.6699  1.0752
 4513TIP3    H235031   4.888   3.746   5.577  1.5845  0.3008 -1.1957
 4514TIP3   OH235032   3.483   4.563  16.611  0.6649 -0.0832  0.2491
 4514TIP3    H135033   3.490   4.593  16.520 -0.6166  0.0984  0.1906
 4514TIP3    H235034   3.498   4.642  16.663  1.7101 -0.2474  0.2182
 4515TIP3   OH235035   3.306   2.540   2.703  0.5358  0.6521 -0.5494
 4515TIP3    H135036   3.304   2.557   2.798 -2.3011 -2.4422  0.1426
 4515TIP3    H235037   3.222   2.575   2.671 -0.4217 -1.8857 -1.0388
 4516TIP3   OH235038   3.484   0.430   5.116 -0.0076  0.0696 -0.1639
 4516TIP3    H135039   3.536   0.473   5.048 -1.7349  1.8556 -0.4330
 4516TIP3    H235040   3.487   0.490   5.190 -0.9617 -0.2036  0.1094
 4517TIP3   OH235041   1.876   1.791   1.633 -0.2917  0.4650 -0.1926
 4517TIP3    H135042   1.819   1.748   1.568 -1.7170  0.3355  1.0923
 4517TIP3    H235043   1.946   1.728   1.648 -0.9070 -0.2744 -0.3183
 4518TIP3   OH235044   4.466   1.511  12.881 -0.4353 -0.3307 -0.0532
 4518TIP3    H135045   4.440   1.441  12.821 -0.8812  0.0887 -0.3492
 4518TIP3    H235046   4.452   1.473  12.969 -1.6662 -0.2575 -0.2018
 4519TIP3   OH235047   5.709   0.710   5.984  0.2205 -0.0066  0.2507
 4519TIP3    H135048   5.798   0.682   5.964  1.2508  1.1548  2.7137
 4519TIP3    H235049   5.710   0.804   5.969 -0.5028  0.0524  0.5511
 4520TIP3   OH235050   2.889   2.902  14.506  0.3690 -0.1605  0.2209
 4520TIP3    H135051   2.836   2.848  14.447  1.1364 -0.3333 -0.3181
 4520TIP3    H235052   2.978   2.894  14.473  0.3309  2.7275 -0.9556
 4521TIP3   OH235053   6.453   2.167   1.908  0.1903  0.0029 -0.3972
 4521TIP3    H135054   6.381   2.188   1.968  1.3799 -0.9456  1.4796
 4521TIP3    H235055   6.416   2.100   1.850 -1.4038  1.9114 -1.7244
 4522TIP3   OH235056   2.364   3.102   0.033 -0.0943  0.1479 -0.4312
 4522TIP3    H135057   2.346   3.014   0.064 -0.3873  1.7541  4.9686
 4522TIP3    H235058   2.454   3.119   0.061 -0.3125  1.8226 -0.6444
 4523TIP3   OH235059   0.352   3.594   4.709 -1.2983 -0.0847  0.0562
 4523TIP3    H135060   0.360   3.626   4.619  1.3885  1.0293  0.6046
 4523TIP3    H235061   0.418   3.525   4.716 -1.1704  0.1366  1.2909
 4524TIP3   OH235062   6.180   2.377   3.570 -0.1025 -0.5298 -0.3428
 4524TIP3    H135063   6.154   2.289   3.541  0.8103 -1.0502  0.3360
 4524TIP3    H235064   6.117   2.399   3.639 -0.2930 -0.6774 -0.4678
 4525TIP3   OH235065   0.571   1.211   2.579  0.1738 -0.0871  0.5178
 4525TIP3    H135066   0.643   1.200   2.517  0.4394  0.5648  0.6926
 4525TIP3    H235067   0.492   1.200   2.526  0.3515  2.1867 -0.3682
 4526TIP3   OH235068   5.579   5.451   2.879 -0.0378 -0.1029 -0.1424
 4526TIP3    H135069   5.516   5.501   2.827 -0.4684  0.1202  0.5896
 4526TIP3    H235070   5.640   5.516   2.913  3.0388 -0.5902 -3.9691
 4527TIP3   OH235071   1.231   1.578  14.672  0.2128  0.2231 -0.6216
 4527TIP3    H135072   1.164   1.619  14.617 -1.3218 -0.8556  0.3596
 4527TIP3    H235073   1.202   1.487  14.681  1.1080  0.0548  0.8875
 4528TIP3   OH235074   5.684   6.510  16.578  0.2929  0.2160  0.8024
 4528TIP3    H135075   5.605   6.529  16.527 -0.5692 -0.0656  2.0111
 4528TIP3    H235076   5.652   6.469  16.658  1.5523  1.3626  1.9394
 4529TIP3   OH235077   4.142   6.178  16.513 -0.1288  0.3241  0.2571
 4529TIP3    H135078   4.192   6.232  16.452  0.8044  0.4281  1.0969
 4529TIP3    H235079   4.113   6.240  16.580  1.0187 -0.2165  1.2730
 4530TIP3   OH235080   3.347   1.233  12.314  0.3214 -0.4737  0.0351
 4530TIP3    H135081   3.278   1.285  12.273 -0.9710 -2.8218 -0.9380
 4530TIP3    H235082   3.398   1.198  12.241  0.7709 -1.0766  0.6216
 4531TIP3   OH235083   5.930   5.373   3.137  0.2736 -0.6603 -0.0857
 4531TIP3    H135084   5.894   5.449   3.182  0.4326  0.2665 -1.4723
 4531TIP3    H235085   5.951   5.311   3.208  0.3086  0.6400  1.0815
 4532TIP3   OH235086   0.293   4.450  15.661 -0.0299 -0.1472  0.7419
 4532TIP3    H135087   0.303   4.408  15.576 -1.3353  0.1884  0.4139
 4532TIP3    H235088   0.255   4.536  15.642  0.4050  0.2564  1.6059
 4533TIP3   OH235089   5.198   3.288  12.725 -0.1317 -0.1613 -0.3282
 4533TIP3    H135090   5.176   3.302  12.632 -0.5589 -2.6166 -0.6525
 4533TIP3    H235091   5.116   3.307  12.771  0.2407  1.6630 -0.3324
 4534TIP3   OH235092   4.756   0.431   5.527  0.2908  0.3908 -0.5261
 4534TIP3    H135093   4.708   0.514   5.527  1.4087  1.0787  1.4715
 4534TIP3    H235094   4.766   0.409   5.434 -0.1002  2.4365 -1.0863
 4535TIP3   OH235095   1.753   1.383  17.157 -0.6166  0.1113 -0.2715
 4535TIP3    H135096   1.711   1.397  17.242  1.1633  0.9780  0.5162
 4535TIP3    H235097   1.702   1.435  17.096 -1.8861 -0.4706  0.2622
 4536TIP3   OH235098   0.154   2.651  13.778  0.2630  0.0301  0.3710
 4536TIP3    H135099   0.118   2.665  13.865 -1.1949  0.2696 -0.2374
 4536TIP3    H235100   0.081   2.616  13.727  1.1514 -0.3399 -0.6987
 4537TIP3   OH235101   6.427   6.144  14.506  0.7230 -0.3087  0.0476
 4537TIP3    H135102   6.342   6.133  14.464  1.3675  1.9018 -2.1229
 4537TIP3    H235103   6.415   6.217  14.566  0.7710 -0.8911  0.7732
 4538TIP3   OH235104   4.064   0.847  13.670 -0.1769 -0.7240  0.5257
 4538TIP3    H135105   4.097   0.837  13.759  1.2138  0.0860  0.1212
 4538TIP3    H235106   3.977   0.885  13.681  0.1441 -0.2626  1.5319
 4539TIP3   OH235107   4.214   1.845  15.839 -0.3254 -0.0702  0.0033
 4539TIP3    H135108   4.299   1.888  15.825 -1.1408  1.3500 -0.8768
 4539TIP3    H235109   4.213   1.773  15.777 -0.0349  0.3508 -0.5026
 4540TIP3   OH235110   2.346   2.289  13.129 -0.0295  0.3199  0.2386
 4540TIP3    H135111   2.307   2.314  13.213 -0.8171  0.6552 -0.2066
 4540TIP3    H235112   2.276   2.240  13.085  0.3670  0.1772 -0.2301
 4541TIP3   OH235113   2.370   0.711   3.137 -0.1881  0.4140 -0.4623
 4541TIP3    H135114   2.323   0.668   3.065  0.5227 -0.0781 -0.6373
 4541TIP3    H235115   2.317   0.693   3.214  1.2648 -2.8674 -0.0815
 4542TIP3   OH235116   3.017   6.750   3.290 -0.0083 -0.0417 -0.4156
 4542TIP3    H135117   3.090   6.722   3.235 -1.2730 -2.7557 -0.8806
 4542TIP3    H235118   3.020   6.846   3.286  1.5765 -0.0793 -3.0320
 4543TIP3   OH235119   1.382   3.178   1.145 -0.0455 -0.6255 -0.0206
 4543TIP3    H135120   1.386   3.106   1.208  1.1438  0.7014  1.4902
 4543TIP3    H235121   1.298   3.220   1.163 -0.8716 -1.7712 -1.0987
 4544TIP3   OH235122   0.302   0.643   3.760 -0.0823  0.0523 -0.2039
 4544TIP3    H135123   0.331   0.555   3.786 -0.3125  0.6813  2.4505
 4544TIP3    H235124   0.211   0.648   3.787 -0.5358  0.6353 -1.7235
 4545TIP3   OH235125   5.564   0.588  14.812  0.5633  0.3237  0.3294
 4545TIP3    H135126   5.576   0.682  14.829 -0.2592  0.4513  0.2541
 4545TIP3    H235127   5.644   0.562  14.765  1.1937  0.7831  1.1202
 4546TIP3   OH235128   5.524   6.686   2.108  0.1724  0.0455  0.4237
 4546TIP3    H135129   5.499   6.770   2.148  1.1235  0.6284 -0.1632
 4546TIP3    H235130   5.557   6.710   2.021  1.7313 -0.7862  0.7588
 4547TIP3   OH235131   0.565   1.338  14.849  0.7363  0.6333 -0.6007
 4547TIP3    H135132   0.594   1.331  14.940  0.1221  0.7360 -0.3886
 4547TIP3    H235133   0.470   1.351  14.856 -0.2085 -4.2649 -1.3937
 4548TIP3   OH235134   6.700   4.052   3.656 -0.3155  0.0310  0.3199
 4548TIP3    H135135   6.644   4.108   3.603  0.7345  0.5098 -0.3229
 4548TIP3    H235136   6.640   4.010   3.718 -1.4564  0.0575 -0.7257
 4549TIP3   OH235137   1.359   1.119  11.978 -0.4119 -0.1943  0.4650
 4549TIP3    H135138   1.413   1.049  12.016  0.3635  0.8205  1.3049
 4549TIP3    H235139   1.290   1.073  11.930  2.3648 -1.6043 -2.5269
 4550TIP3   OH235140   2.649   5.006   0.445  0.4508  0.3090 -0.1703
 4550TIP3    H135141   2.725   5.004   0.387 -0.2639 -1.5248 -1.1207
 4550TIP3    H235142   2.681   5.050   0.524  1.9343  1.3127 -1.2690
 4551TIP3   OH235143   4.004   3.794  12.022  0.8476  0.5537 -0.1769
 4551TIP3    H135144   3.953   3.717  11.994  2.0705 -0.4314  0.2146
 4551TIP3    H235145   3.939   3.864  12.029 -1.1224 -1.3661  3.4739
 4552TIP3   OH235146   3.033   5.087  16.687 -0.2666 -0.3562  0.2640
 4552TIP3    H135147   3.043   5.177  16.718 -1.7096 -0.4752  1.1646
 4552TIP3    H235148   3.121   5.050  16.690  0.0732  0.5201  1.5403
 4553TIP3   OH235149   5.832   0.367   3.440 -0.5369  0.4014 -0.5320
 4553TIP3    H135150   5.875   0.437   3.489 -0.5333 -0.9544  1.5182
 4553TIP3    H235151   5.846   0.390   3.348 -0.2199  2.8604  0.0674
 4554TIP3   OH235152   4.368   1.291   4.427  0.4153 -0.4787 -0.1299
 4554TIP3    H135153   4.341   1.215   4.478  1.1340 -1.1635 -0.7445
 4554TIP3    H235154   4.305   1.295   4.355  0.0992 -0.2049  0.1567
 4555TIP3   OH235155   2.727   4.675   2.699  0.0250  0.1317 -0.6230
 4555TIP3    H135156   2.684   4.760   2.691 -2.5743 -0.9411  0.7601
 4555TIP3    H235157   2.719   4.653   2.792 -0.7105 -2.2300 -1.1630
 4556TIP3   OH235158   1.860   2.846   0.073 -0.6231  0.1209 -0.2422
 4556TIP3    H135159   1.849   2.882   0.161 -0.0278  1.4053 -0.6795
 4556TIP3    H235160   1.931   2.783   0.082  1.4481  2.3335 -0.3399
 4557TIP3   OH235161   4.875   4.741  14.001  0.5344  0.0401  0.5954
 4557TIP3    H135162   4.932   4.664  13.993 -0.6144 -0.8622  0.7568
 4557TIP3    H235163   4.855   4.747  14.094 -0.2025 -0.0978  0.4534
 4558TIP3   OH235164   4.712   0.904  14.220  0.2361 -0.3998  0.0124
 4558TIP3    H135165   4.804   0.885  14.236  0.1155 -2.9993 -1.7890
 4558TIP3    H235166   4.696   0.986  14.267  2.9922 -0.7458  1.7976
 4559TIP3   OH235167   0.164   5.844  11.416  0.0874 -0.2392 -0.3293
 4559TIP3    H135168   0.107   5.913  11.382 -1.7680 -0.1227  2.6849
 4559TIP3    H235169   0.183   5.789  11.340 -0.2704  2.2432 -2.3488
 4560TIP3   OH235170   1.941   0.127  13.883  0.4641 -0.0809  0.5601
 4560TIP3    H135171   1.939   0.033  13.864  1.8228 -0.3588  1.5983
 4560TIP3    H235172   1.893   0.136  13.966  0.3548  0.1323  0.4744
 4561TIP3   OH235173   1.253   4.122   4.013  0.4449  0.5025 -0.4199
 4561TIP3    H135174   1.338   4.151   3.981  0.9387  1.1719  1.4015
 4561TIP3    H235175   1.194   4.133   3.938  1.8516  0.4384 -1.5732
 4562TIP3   OH235176   3.725   3.020  10.972 -0.3165  0.0486 -0.4359
 4562TIP3    H135177   3.639   3.047  11.003 -0.3950 -0.0510 -0.5668
 4562TIP3    H235178   3.735   3.063  10.887  0.3351  1.1781  0.1911
 4563TIP3   OH235179   2.814   3.557   2.778  0.7962  0.4202  0.1763
 4563TIP3    H135180   2.842   3.514   2.698 -0.3224 -1.9706  0.9536
 4563TIP3    H235181   2.882   3.535   2.842  0.7437  0.7171  0.3359
 4564TIP3   OH235182   4.377   5.586   3.483 -0.5537 -0.3242 -0.3367
 4564TIP3    H135183   4.353   5.669   3.524 -2.8253 -0.9309 -0.3116
 4564TIP3    H235184   4.428   5.611   3.406  1.0600  0.9388  1.0584
 4565TIP3   OH235185   3.020   4.054  15.265 -0.9172 -0.1878  0.4666
 4565TIP3    H135186   2.965   4.095  15.331  0.1741  1.3030  0.4919
 4565TIP3    H235187   3.002   4.103  15.185  1.4419  1.3936  0.8087
 4566TIP3   OH235188   0.329   4.848   1.680 -0.3857  0.5984  0.3148
 4566TIP3    H135189   0.424   4.839   1.683 -0.2221  2.2818  0.9763
 4566TIP3    H235190   0.298   4.798   1.756 -0.1296 -0.6154 -0.3394
 4567TIP3   OH235191   4.140   2.627   2.534  0.1515 -0.1782 -0.3526
 4567TIP3    H135192   4.091   2.583   2.603  0.3625 -0.7721 -0.5799
 4567TIP3    H235193   4.104   2.591   2.453  2.1568 -1.9725 -0.5319
 4568TIP3   OH235194   1.308   5.157  13.999  0.2214  0.2262  0.6069
 4568TIP3    H135195   1.221   5.187  14.027  0.2055  0.3705  0.4035
 4568TIP3    H235196   1.369   5.211  14.048  0.1973  1.6504 -0.8622
 4569TIP3   OH235197   1.246   4.070  15.486 -0.0222 -0.2467  0.1402
 4569TIP3    H135198   1.232   4.021  15.404  0.1566  1.7284 -1.1467
 4569TIP3    H235199   1.280   4.005  15.547 -0.9847 -1.9843 -1.0828
 4570TIP3   OH235200   2.545   2.705  13.856 -0.2638 -0.1050 -0.3499
 4570TIP3    H135201   2.576   2.668  13.939 -1.8159  0.7984  0.6961
 4570TIP3    H235202   2.623   2.743  13.816  0.3722  0.2888  1.1740
 4571TIP3   OH235203   2.543   1.789   4.862  0.0959  0.4050 -0.0442
 4571TIP3    H135204   2.535   1.873   4.907 -1.0294  0.5335 -0.4521
 4571TIP3    H235205   2.617   1.800   4.803  0.0301  1.0743 -0.0045
 4572TIP3   OH235206   0.077   1.689  11.039  0.5302 -0.8394  0.2425
 4572TIP3    H135207   0.024   1.737  10.975  0.8985 -1.5044 -0.5742
 4572TIP3    H235208   0.151   1.747  11.058 -0.1523 -0.1643  0.9356
 4573TIP3   OH235209   4.256   0.121   2.918 -0.3235  0.2666  0.2588
 4573TIP3    H135210   4.199   0.044   2.924 -0.7923  0.6370  0.5920
 4573TIP3    H235211   4.196   0.195   2.911  0.1212  0.5536 -0.8723
 4574TIP3   OH235212   0.970   6.549   3.476 -0.1567 -0.5592 -0.2227
 4574TIP3    H135213   0.921   6.629   3.456  1.2223  0.2399 -0.5702
 4574TIP3    H235214   1.045   6.551   3.416  0.5386 -1.5192  0.5666
 4575TIP3   OH235215   1.636   1.113   2.018 -0.1592  0.3086 -0.0157
 4575TIP3    H135216   1.725   1.080   2.027 -0.0134  0.9546  1.0880
 4575TIP3    H235217   1.582   1.049   2.065 -0.1297  0.5337  0.3276
 4576TIP3   OH235218   2.571   3.291  14.171  0.1333 -0.1648 -0.6537
 4576TIP3    H135219   2.625   3.311  14.095 -0.1831  1.5820 -0.4620
 4576TIP3    H235220   2.572   3.196  14.177  2.9751 -0.2243 -0.7807
 4577TIP3   OH235221   5.111   0.877  10.798 -0.5060  0.4501 -0.6595
 4577TIP3    H135222   5.184   0.937  10.808 -0.7460  0.9992 -1.9769
 4577TIP3    H235223   5.035   0.926  10.828 -0.3028 -0.3391  1.3277
 4578TIP3   OH235224   4.198   3.416   6.488  0.1446 -0.0240 -0.2764
 4578TIP3    H135225   4.261   3.466   6.436  0.3820  0.2798  0.2966
 4578TIP3    H235226   4.176   3.341   6.432 -1.0669  1.2667 -1.6117
 4579TIP3   OH235227   0.811   0.907   2.709 -0.6438  0.2026  0.1167
 4579TIP3    H135228   0.858   0.952   2.639  1.5964 -3.5761 -1.1160
 4579TIP3    H235229   0.727   0.882   2.670  0.0840 -0.8006 -0.8683
 4580TIP3   OH235230   3.755   1.856  13.043 -0.1500 -0.1434 -0.4605
 4580TIP3    H135231   3.688   1.831  12.980 -0.3289 -0.6412 -0.0775
 4580TIP3    H235232   3.753   1.787  13.109  0.2703  0.1938 -0.0891
 4581TIP3   OH235233   0.451   6.589   5.016  0.3771 -0.0446 -0.8506
 4581TIP3    H135234   0.511   6.540   4.960  2.0741  2.0345 -0.9901
 4581TIP3    H235235   0.494   6.591   5.101 -0.2527  0.1745 -0.5303
 4582TIP3   OH235236   2.090   3.894  15.167  0.1318 -0.2639 -0.1949
 4582TIP3    H135237   2.155   3.905  15.097 -0.3605  0.6841 -0.5205
 4582TIP3    H235238   2.101   3.803  15.195  2.2444  0.1071  0.4174
 4583TIP3   OH235239   0.237   6.034  16.147  0.0866 -0.2553 -0.6447
 4583TIP3    H135240   0.188   5.953  16.161  2.6029 -1.7716 -0.0199
 4583TIP3    H235241   0.215   6.059  16.057 -1.1429 -1.3291 -0.6777
 4584TIP3   OH235242   4.297   0.023  15.804  0.3857 -0.0738  0.2918
 4584TIP3    H135243   4.298  -0.072  15.796 -0.3136  0.0310 -1.4193
 4584TIP3    H235244   4.363   0.053  15.742  0.7180  0.5771  0.9378
 4585TIP3   OH235245   2.723   2.418  13.737  0.8305 -0.4957 -0.0514
 4585TIP3    H135246   2.749   2.395  13.826  1.3552 -1.1820 -0.3681
 4585TIP3    H235247   2.758   2.506  13.723 -0.6057  0.2823  0.9431
 4586TIP3   OH235248   5.880   1.892   0.793  0.4747 -0.8224 -0.1309
 4586TIP3    H135249   5.927   1.841   0.726 -0.4957 -2.4808  0.3702
 4586TIP3    H235250   5.787   1.875   0.774  0.1394  0.4015  0.3622
 4587TIP3   OH235251   5.044   5.272   3.509  0.6887 -0.4059  0.1515
 4587TIP3    H135252   5.135   5.290   3.532  0.4082 -0.6745  1.6267
 4587TIP3    H235253   5.048   5.195   3.452  1.4271  0.0340 -0.4003
 4588TIP3   OH235254   4.868   4.640  12.034  1.2308 -0.3668  0.3315
 4588TIP3    H135255   4.806   4.578  11.997  0.6400 -0.4306  1.3907
 4588TIP3    H235256   4.851   4.638  12.128  1.7352  0.8218  0.4667
 4589TIP3   OH235257   5.521   1.485   0.672 -0.2302 -0.3016 -0.2178
 4589TIP3    H135258   5.511   1.475   0.766 -0.3776 -0.0407 -0.2027
 4589TIP3    H235259   5.432   1.502   0.640 -0.1840 -0.4102 -0.4041
 4590TIP3   OH235260   5.613   5.982   6.699 -0.0067 -0.3873 -0.0507
 4590TIP3    H135261   5.558   6.047   6.743 -1.9879 -2.1809  0.3105
 4590TIP3    H235262   5.576   5.975   6.611 -0.5767 -1.8081  0.2788
 4591TIP3   OH235263   6.730   2.043   1.502 -0.2884  0.4525  0.0205
 4591TIP3    H135264   6.764   2.132   1.499  2.1864 -0.4440 -0.7861
 4591TIP3    H235265   6.700   2.032   1.592 -0.9541  2.1633  0.0491
 4592TIP3   OH235266   5.586   2.624  15.696  0.5129 -0.1256 -0.0602
 4592TIP3    H135267   5.652   2.572  15.650  2.7472  2.1632  0.2817
 4592TIP3    H235268   5.523   2.648  15.629  1.0972 -0.7742 -0.8565
 4593TIP3   OH235269   2.235   2.402   3.013 -0.8149  0.1771 -0.0742
 4593TIP3    H135270   2.267   2.482   3.055  0.3237 -0.7019  0.8151
 4593TIP3    H235271   2.140   2.407   3.022 -0.6610  0.3835  2.0289
 4594TIP3   OH235272   1.786   1.287   5.437 -0.6983  0.8283  0.1824
 4594TIP3    H135273   1.866   1.299   5.487 -0.2316 -1.2547  0.0420
 4594TIP3    H235274   1.815   1.278   5.346 -1.1885  1.0432 -0.0004
 4595TIP3   OH235275   5.812   4.933   2.227  0.5490 -0.1505  0.1299
 4595TIP3    H135276   5.719   4.910   2.239  0.9791 -1.6867  0.7687
 4595TIP3    H235277   5.856   4.849   2.214  2.1379  0.3182  1.9690
 4596TIP3   OH235278   1.735   2.897  10.966 -0.3838 -0.2989 -0.3819
 4596TIP3    H135279   1.645   2.873  10.985 -0.7030  0.3070 -1.0951
 4596TIP3    H235280   1.750   2.869  10.876  0.1800 -0.5060 -0.2298
 4597TIP3   OH235281   6.139   1.823   1.617 -0.6750 -0.2117 -0.5269
 4597TIP3    H135282   6.104   1.784   1.538  1.4168 -0.3252 -1.4697
 4597TIP3    H235283   6.149   1.750   1.678 -0.5247 -0.4573 -0.8433
 4598TIP3   OH235284   6.423   2.978   3.676 -0.4421  0.1642  0.0629
 4598TIP3    H135285   6.474   3.049   3.640 -1.0609  0.7504  0.3163
 4598TIP3    H235286   6.337   2.986   3.633 -0.0098 -1.4947 -1.2247
 4599TIP3   OH235287   4.106   5.117   6.004 -0.1402  0.0538 -0.1718
 4599TIP3    H135288   4.078   5.095   6.092 -2.1797  2.1295 -0.1870
 4599TIP3    H235289   4.150   5.202   6.013 -1.5802  0.9743 -1.2314
 4600TIP3   OH235290   0.654   1.899  16.532 -0.4419  0.4600  0.5992
 4600TIP3    H135291   0.746   1.876  16.549 -1.1522 -3.4376  0.1093
 4600TIP3    H235292   0.653   1.929  16.442  0.4826  1.6996  0.9738
 4601TIP3   OH235293   5.754   4.634  13.056  0.1081 -0.4285  0.2184
 4601TIP3    H135294   5.662   4.659  13.066  0.5835  1.0707  1.0976
 4601TIP3    H235295   5.792   4.644  13.143  0.8891 -2.0897  0.1125
 4602TIP3   OH235296   3.766   5.033   5.413 -0.8801 -0.0118  0.6077
 4602TIP3    H135297   3.779   4.966   5.479  0.5963 -0.7649 -0.3776
 4602TIP3    H235298   3.719   4.990   5.342  1.5298 -0.5981 -0.7635
 4603TIP3   OH235299   1.187   4.964   6.336 -0.0740  0.1600 -0.3194
 4603TIP3    H135300   1.164   4.881   6.293  0.7912 -0.8699  1.1254
 4603TIP3    H235301   1.254   4.940   6.399  0.3926  2.0355 -0.0599
 4604TIP3   OH235302   5.802   5.850   4.190 -0.6879 -0.5615 -0.1725
 4604TIP3    H135303   5.706   5.846   4.188 -0.9378  2.1185  1.6899
 4604TIP3    H235304   5.824   5.865   4.282  1.1630  2.9864 -1.0060
 4605TIP3   OH235305   1.882   0.054  15.833  0.1094  0.3845  0.2743
 4605TIP3    H135306   1.977   0.057  15.832  0.1018  0.5779  0.1507
 4605TIP3    H235307   1.859   0.063  15.926  0.2840 -2.2479  0.6397
 4606TIP3   OH235308   1.939   3.139  12.687  0.3040 -0.6733 -0.1043
 4606TIP3    H135309   1.866   3.186  12.646 -0.9307 -2.1400  0.2775
 4606TIP3    H235310   1.992   3.207  12.728 -1.8269  0.3530  1.1336
 4607TIP3   OH235311   0.093   2.365  11.286  0.0265 -0.2171  0.5211
 4607TIP3    H135312   0.133   2.443  11.325 -1.3460  0.3606  0.8515
 4607TIP3    H235313   0.159   2.297  11.293  0.9151  0.6802  1.0820
 4608TIP3   OH235314   2.314   6.305  15.206  0.2423 -0.3181 -0.2061
 4608TIP3    H135315   2.319   6.212  15.228  0.9484 -0.0823  0.6883
 4608TIP3    H235316   2.259   6.343  15.274  0.6594  0.0551 -0.0723
 4609TIP3   OH235317   5.215   6.644   1.448 -0.2720 -0.2397 -1.0374
 4609TIP3    H135318   5.207   6.669   1.356  0.4343  1.3538 -0.6880
 4609TIP3    H235319   5.154   6.702   1.494  0.7988  0.3252 -0.3004
 4610TIP3   OH235320   0.073   5.523  12.677  0.0650 -0.0913 -0.3717
 4610TIP3    H135321   0.074   5.567  12.593 -1.6878  0.5302 -0.1038
 4610TIP3    H235322   0.152   5.554  12.722 -0.0762  1.1874 -0.9719
 4611TIP3   OH235323   5.455   1.352   1.492  0.0522  0.2515 -0.6013
 4611TIP3    H135324   5.433   1.261   1.471 -0.3327 -0.0444  0.9264
 4611TIP3    H235325   5.526   1.345   1.556  0.1922  1.0332 -0.6663
 4612TIP3   OH235326   2.252   5.071   1.043  0.1426  0.0432  0.1515
 4612TIP3    H135327   2.302   5.040   1.119 -2.6245  0.5769  2.3460
 4612TIP3    H235328   2.202   4.994   1.015 -1.0274  0.5583  0.7715
 4613TIP3   OH235329   2.677   4.917   2.093 -0.4915 -0.8786  0.3829
 4613TIP3    H135330   2.645   4.983   2.032  1.6721 -0.5432 -0.4454
 4613TIP3    H235331   2.730   4.965   2.156 -0.6263 -1.5672  1.0398
 4614TIP3   OH235332   0.580   2.351  13.254 -0.4112 -0.5176 -0.1713
 4614TIP3    H135333   0.496   2.306  13.261  0.0528 -1.2749  0.6271
 4614TIP3    H235334   0.563   2.425  13.195 -1.9028 -0.0145  0.8492
 4615TIP3   OH235335   0.042   3.842   0.474 -0.0939 -0.0639 -0.1435
 4615TIP3    H135336  -0.046   3.806   0.479 -0.4283  0.8021  0.4286
 4615TIP3    H235337   0.099   3.770   0.502 -0.7253 -0.2210  0.7768
 4616TIP3   OH235338   2.353   3.896  10.375  0.6330  0.6283 -0.0197
 4616TIP3    H135339   2.355   3.976  10.323  0.2439  2.6500  2.8043
 4616TIP3    H235340   2.286   3.913  10.442  0.8365 -1.9049  0.9527
 4617TIP3   OH235341   1.122   2.783  13.004  0.2771 -0.1945  0.3198
 4617TIP3    H135342   1.153   2.764  13.093 -0.8937 -0.7680  0.6355
 4617TIP3    H235343   1.026   2.774  13.010  0.1515  0.1280 -0.9144
 4618TIP3   OH235344   2.023   4.809  13.290 -0.2076  0.2048  0.3090
 4618TIP3    H135345   1.969   4.751  13.236  0.4498  1.0199 -1.3169
 4618TIP3    H235346   2.068   4.865  13.226  1.8220  0.1791  1.6277
 4619TIP3   OH235347   4.538   3.872  16.647 -0.2665  0.4620 -0.4063
 4619TIP3    H135348   4.467   3.811  16.626 -0.4480  0.3310  0.5232
 4619TIP3    H235349   4.511   3.955  16.608 -0.9622  0.4242 -0.0325
 4620TIP3   OH235350   1.879   2.976   2.070 -0.1816 -0.0906 -0.2178
 4620TIP3    H135351   1.851   3.066   2.085  1.2536  0.4373 -0.5260
 4620TIP3    H235352   1.968   2.972   2.107 -0.9855 -1.9895  1.7673
 4621TIP3   OH235353   2.473   4.257  15.557  0.0952  0.1717 -0.2076
 4621TIP3    H135354   2.536   4.330  15.559 -1.0022  1.3119 -3.0369
 4621TIP3    H235355   2.524   4.183  15.526  0.6463  0.3529  0.2343
 4622TIP3   OH235356   1.674   6.825   0.284 -0.6185 -0.2725  0.0091
 4622TIP3    H135357   1.655   6.899   0.227  2.4116  0.4705 -0.2087
 4622TIP3    H235358   1.650   6.748   0.232  1.7832  0.3899 -2.2949
 4623TIP3   OH235359   3.551   6.311   1.382  0.4069  0.6352 -0.7270
 4623TIP3    H135360   3.608   6.387   1.395  0.5525  0.6533 -1.4702
 4623TIP3    H235361   3.491   6.338   1.313  0.4537  0.0703 -0.9880
 4624TIP3   OH235362   2.191   6.679  11.708 -0.5004 -0.3451  0.0160
 4624TIP3    H135363   2.102   6.707  11.728  0.2947  0.0901  3.6185
 4624TIP3    H235364   2.247   6.748  11.744  1.3226 -3.2289  3.4072
 4625TIP3   OH235365   4.571   6.601  12.145  0.1204 -0.0320  0.1855
 4625TIP3    H135366   4.577   6.609  12.240  0.4992  1.3688  0.0683
 4625TIP3    H235367   4.501   6.662  12.120  0.2699 -0.1140 -0.4580
 4626TIP3   OH235368   0.656   0.333   4.397 -0.0646  0.2333 -0.1063
 4626TIP3    H135369   0.607   0.379   4.465  1.7025  0.9726  0.7253
 4626TIP3    H235370   0.728   0.392   4.375  0.6197 -0.9193 -1.1043
 4627TIP3   OH235371   3.106   3.289   2.417 -0.2628  0.1866  0.2369
 4627TIP3    H135372   3.174   3.249   2.363 -1.9323 -1.9130 -0.4752
 4627TIP3    H235373   3.103   3.236   2.496 -0.8633  0.4048  0.3689
 4628TIP3   OH235374   3.809   5.877  11.261 -0.0602  0.6245  0.4234
 4628TIP3    H135375   3.727   5.828  11.272  0.8845 -0.8107  1.3162
 4628TIP3    H235376   3.782   5.959  11.219 -1.6776 -0.6805 -1.2460
 4629TIP3   OH235377   0.174   6.754  12.894  0.3827 -0.2419 -0.3369
 4629TIP3    H135378   0.250   6.699  12.879  0.8869 -0.1928  1.7729
 4629TIP3    H235379   0.126   6.710  12.964  0.0974  1.3163  0.4739
 4630TIP3   OH235380   5.462   4.983   3.101 -0.2443 -0.2859  0.0918
 4630TIP3    H135381   5.507   4.909   3.142  1.5197  0.5940 -0.1605
 4630TIP3    H235382   5.524   5.016   3.036 -1.4817  0.6835 -0.6393
 4631TIP3   OH235383   1.787   5.264  17.059 -0.2571  0.0516  0.6708
 4631TIP3    H135384   1.833   5.344  17.083 -0.4960  0.3483  0.1422
 4631TIP3    H235385   1.851   5.213  17.009 -0.7531  0.8725 -0.8810
 4632TIP3   OH235386   0.722   4.124  10.758  0.2234  0.1115  0.2203
 4632TIP3    H135387   0.673   4.198  10.723  0.0286  0.4011  1.0742
 4632TIP3    H235388   0.721   4.058  10.689 -3.3468 -0.8182  0.9799
 4633TIP3   OH235389   3.578   5.562   3.159  0.5223  0.0782 -0.2669
 4633TIP3    H135390   3.602   5.655   3.164 -1.0925  0.5396 -0.2867
 4633TIP3    H235391   3.660   5.515   3.172  1.5002  1.5129 -0.9410
 4634TIP3   OH235392   4.287   4.330  13.283  0.4084  0.2147  0.2251
 4634TIP3    H135393   4.192   4.320  13.286  0.3818  0.5773  2.3889
 4634TIP3    H235394   4.317   4.255  13.231 -1.0556  0.3213 -0.8409
 4635TIP3   OH235395   4.036   1.816  14.313 -0.0930  0.6944 -0.4492
 4635TIP3    H135396   3.969   1.881  14.331  0.0600  1.3169 -1.9900
 4635TIP3    H235397   4.091   1.855  14.245  1.5066 -0.0301  0.3544
 4636TIP3   OH235398   6.552   4.173  13.754  0.3354  0.6689  0.0554
 4636TIP3    H135399   6.468   4.186  13.798 -0.6652 -0.7897 -1.3044
 4636TIP3    H235400   6.541   4.213  13.668  1.1374  0.7137 -0.0388
 4637TIP3   OH235401   0.938   4.850   1.293  0.3956 -0.5333  0.9210
 4637TIP3    H135402   0.919   4.795   1.369  2.4078  0.4204  2.2247
 4637TIP3    H235403   0.931   4.940   1.327  0.4139 -0.0674 -0.2703
 4638TIP3   OH235404   3.192   3.019  11.160 -0.3155  0.1069  0.2332
 4638TIP3    H135405   3.219   3.063  11.080  0.6217 -0.2190  0.3620
 4638TIP3    H235406   3.260   3.040  11.224 -1.0057  0.2873  0.9279
 4639TIP3   OH235407   2.499   5.787  11.570 -0.1026 -0.3146  0.4028
 4639TIP3    H135408   2.463   5.748  11.490 -0.8833  0.9563  0.1063
 4639TIP3    H235409   2.422   5.799  11.627  0.1281  0.7250  0.5052
 4640TIP3   OH235410   2.399   3.493  10.441  0.0294 -0.1007  0.0377
 4640TIP3    H135411   2.322   3.443  10.468 -0.1372 -0.7980 -1.5886
 4640TIP3    H235412   2.468   3.428  10.431 -0.1832 -0.0931 -2.0986
 4641TIP3   OH235413   4.556   6.499   0.901 -0.0054 -0.0039 -0.0895
 4641TIP3    H135414   4.589   6.550   0.826  0.4560 -0.1910 -0.0116
 4641TIP3    H235415   4.461   6.497   0.887 -0.0877  1.2426  0.1268
 4642TIP3   OH235416   6.539   4.477   5.393  0.6729 -0.4392 -0.0502
 4642TIP3    H135417   6.496   4.495   5.310  0.1851  0.3670  0.3630
 4642TIP3    H235418   6.595   4.553   5.408  0.1726 -0.2129  0.7254
 4643TIP3   OH235419   6.820   0.939   6.301  0.3908 -0.3031 -0.4015
 4643TIP3    H135420   6.834   0.858   6.252  0.1327  0.0392 -1.0539
 4643TIP3    H235421   6.726   0.940   6.319  0.6492 -1.0593  1.2547
 4644TIP3   OH235422   2.967   5.040  13.116 -0.4077 -0.5299 -0.5667
 4644TIP3    H135423   3.039   5.000  13.164 -0.0443  0.1069 -0.5613
 4644TIP3    H235424   2.910   5.077  13.183  0.1775  0.4890 -0.6169
 4645TIP3   OH235425   6.836   6.534  16.413 -0.1375  0.3919  0.1953
 4645TIP3    H135426   6.774   6.523  16.485 -0.9287 -1.3822 -0.6859
 4645TIP3    H235427   6.912   6.576  16.453  0.4981 -2.7304  2.7339
 4646TIP3   OH235428   6.159   6.594   4.981  0.1229 -0.3522  0.2780
 4646TIP3    H135429   6.138   6.544   5.059 -2.4802  0.9796  0.5314
 4646TIP3    H235430   6.112   6.549   4.910 -0.9776  0.8107  0.2445
 4647TIP3   OH235431   2.208   3.520   0.762  0.2526 -0.0648  0.3211
 4647TIP3    H135432   2.209   3.424   0.751  0.1560  0.0913 -1.2878
 4647TIP3    H235433   2.241   3.554   0.679 -1.1533  1.3422  0.2823
 4648TIP3   OH235434   2.386   3.168   1.254 -0.1872 -0.1108  0.1641
 4648TIP3    H135435   2.441   3.239   1.287  1.5862 -1.7541  0.9436
 4648TIP3    H235436   2.360   3.120   1.332 -1.8651 -0.0039 -0.3002
 4649TIP3   OH235437   3.522   0.792   2.819 -0.3032  0.0910  0.1302
 4649TIP3    H135438   3.523   0.854   2.746 -0.9891  0.7784  0.6934
 4649TIP3    H235439   3.605   0.807   2.864  0.6075 -1.0628 -1.0803
 4650TIP3   OH235440   3.634   3.539   2.877 -0.2612 -0.2571  0.6803
 4650TIP3    H135441   3.728   3.556   2.869 -0.4106  0.0514 -0.8090
 4650TIP3    H235442   3.599   3.616   2.921 -0.1895  1.0112 -1.3440
 4651TIP3   OH235443   1.011   1.096  13.552 -0.6965 -0.6732  0.0048
 4651TIP3    H135444   0.989   1.168  13.612 -0.1617 -0.8403  0.4127
 4651TIP3    H235445   1.097   1.065  13.583  1.4660  1.6399 -3.0385
 4652TIP3   OH235446   5.612   4.449  13.876  0.1513  0.3761 -0.1685
 4652TIP3    H135447   5.592   4.494  13.958 -1.2980 -0.6439  0.0661
 4652TIP3    H235448   5.706   4.465  13.863  0.4623  0.4233  1.7697
 4653TIP3   OH235449   3.930   3.815   3.613  0.0581  0.1332  0.9029
 4653TIP3    H135450   3.865   3.878   3.644 -1.3197 -0.7420 -0.0866
 4653TIP3    H235451   3.953   3.846   3.525  0.0146 -0.2704  0.7476
 4654TIP3   OH235452   6.377   4.516  14.187  0.0046  0.3736  0.1917
 4654TIP3    H135453   6.345   4.498  14.276  0.5969  0.0014  0.3378
 4654TIP3    H235454   6.378   4.430  14.145  1.2288  0.3000  0.3404
 4655TIP3   OH235455   0.292   6.725   0.471  0.7040 -0.2731 -0.3019
 4655TIP3    H135456   0.254   6.806   0.506 -1.4820 -1.6804  0.7870
 4655TIP3    H235457   0.316   6.674   0.548 -0.3966 -1.7364 -0.8818
 4656TIP3   OH235458   6.327   3.092  16.504 -0.1972 -0.8888 -0.4026
 4656TIP3    H135459   6.329   3.012  16.557 -0.6468 -0.3327  0.4811
 4656TIP3    H235460   6.297   3.063  16.418 -1.4912 -1.5237  0.2290
 4657TIP3   OH235461   3.969   4.119  13.907  0.1063 -0.4102  0.8529
 4657TIP3    H135462   4.058   4.108  13.874 -0.3735  1.8479 -1.4861
 4657TIP3    H235463   3.961   4.212  13.926 -1.6022 -0.6679  1.6113
 4658TIP3   OH235464   2.166   5.703   0.299 -0.0034  0.0211  0.7925
 4658TIP3    H135465   2.154   5.612   0.327 -1.0945  0.2047  0.9527
 4658TIP3    H235466   2.120   5.755   0.364  0.5115  0.6928  0.6370
 4659TIP3   OH235467   5.707   0.734   0.377  0.3592  0.0490 -0.3293
 4659TIP3    H135468   5.738   0.820   0.350  3.5612 -0.4354  1.3860
 4659TIP3    H235469   5.780   0.675   0.357 -1.0318 -1.9638  0.2438
 4660TIP3   OH235470   2.668   4.727   3.278 -0.1023  0.2718  0.4526
 4660TIP3    H135471   2.763   4.719   3.266 -0.5319 -1.3922 -3.6120
 4660TIP3    H235472   2.640   4.638   3.300 -0.7450  0.8456  2.0770
 4661TIP3   OH235473   4.910   4.226   2.730  0.3829  0.2973 -0.1536
 4661TIP3    H135474   4.878   4.247   2.818  0.0960  3.1136 -0.8347
 4661TIP3    H235475   4.930   4.132   2.734 -1.3876 -0.0899  2.3294
 4662TIP3   OH235476   0.264   0.827  14.150  0.0965  0.2439  0.1207
 4662TIP3    H135477   0.294   0.737  14.148  1.8352  0.7873  0.3153
 4662TIP3    H235478   0.213   0.834  14.231 -1.2215 -0.8857 -0.5815
 4663TIP3   OH235479   2.741   1.814   4.306  0.5774 -0.7581 -0.2697
 4663TIP3    H135480   2.680   1.798   4.378  1.2322 -1.1410  0.2100
 4663TIP3    H235481   2.699   1.772   4.230  0.5918 -1.7073  0.2231
 4664TIP3   OH235482   0.708   4.596  14.109  0.1877 -0.0966  0.3129
 4664TIP3    H135483   0.768   4.540  14.059  1.7905  2.1199 -0.3776
 4664TIP3    H235484   0.751   4.608  14.194 -1.1435 -1.4982  1.2446
 4665TIP3   OH235485   1.474   6.370   4.597  0.1950 -0.3747  0.0545
 4665TIP3    H135486   1.547   6.378   4.659 -0.8275  1.4225  1.0709
 4665TIP3    H235487   1.468   6.275   4.581  3.3696 -0.5386 -0.8706
 4666TIP3   OH235488   0.669   0.760  12.857  0.4438  0.0702 -1.0008
 4666TIP3    H135489   0.602   0.704  12.896  0.7812  0.1057 -0.3541
 4666TIP3    H235490   0.732   0.776  12.928 -0.1923  2.1613 -0.8342
 4667TIP3   OH235491   5.382   4.603   0.716  0.5612  0.0511  0.4102
 4667TIP3    H135492   5.310   4.567   0.767  1.2418 -1.3301  0.4135
 4667TIP3    H235493   5.441   4.641   0.781  0.6533 -0.2879  0.5215
 4668TIP3   OH235494   3.615   1.905   2.680 -0.1182  1.2731  0.2293
 4668TIP3    H135495   3.683   1.890   2.614  0.3045  0.9622  0.7171
 4668TIP3    H235496   3.663   1.943   2.754 -0.5981  1.6815  0.3307
 4669TIP3   OH235497   2.403   4.391   2.174  0.2915 -0.5679 -0.3031
 4669TIP3    H135498   2.362   4.305   2.163  0.1963 -0.4445 -0.9659
 4669TIP3    H235499   2.490   4.381   2.136  1.5259 -1.2725  2.4469
 4670TIP3   OH235500   3.098   4.376   0.229 -0.2678 -0.0234  0.8995
 4670TIP3    H135501   3.066   4.376   0.138 -0.4041 -0.0781  0.9471
 4670TIP3    H235502   3.020   4.396   0.281 -0.2077 -0.0816  1.0107
 4671TIP3   OH235503   1.159   5.006   3.991  0.2622 -0.2210  0.3365
 4671TIP3    H135504   1.139   4.930   4.045 -0.3941  0.2841  0.8160
 4671TIP3    H235505   1.252   4.995   3.969  1.1050  0.4676  3.1083
 4672TIP3   OH235506   2.145   2.410  16.756 -0.3810 -0.6172  0.0157
 4672TIP3    H135507   2.172   2.502  16.756  0.4592 -0.8511 -0.2428
 4672TIP3    H235508   2.099   2.399  16.840  0.6163 -0.2709  0.6283
 4673TIP3   OH235509   2.723   3.965   6.495  0.3221 -0.0281 -0.3100
 4673TIP3    H135510   2.799   3.914   6.523  0.3066 -0.2632 -0.6941
 4673TIP3    H235511   2.757   4.026   6.430  0.0997 -0.4519 -0.8273
 4674TIP3   OH235512   2.731   6.556  13.541 -0.4025  0.0674  0.5644
 4674TIP3    H135513   2.808   6.566  13.485 -0.5934  1.3817  0.5025
 4674TIP3    H235514   2.748   6.477  13.591  1.2860  0.6661  1.0026
 4675TIP3   OH235515   6.167   1.247  13.390  0.0920 -0.3048 -0.1601
 4675TIP3    H135516   6.178   1.318  13.452  0.3024 -0.2347 -0.2792
 4675TIP3    H235517   6.239   1.256  13.328 -1.3963  1.0434 -1.7934
 4676TIP3   OH235518   4.341   0.872   5.699  0.0703  0.2401 -0.0935
 4676TIP3    H135519   4.375   0.822   5.773  2.9387  0.4087 -1.1485
 4676TIP3    H235520   4.416   0.880   5.640 -1.7262  1.2675 -2.4007
 4677TIP3   OH235521   6.427   6.160   0.919  0.0493  0.6610 -0.0363
 4677TIP3    H135522   6.375   6.097   0.869 -0.2642  0.0722  1.0160
 4677TIP3    H235523   6.514   6.156   0.880 -0.1558  0.1146 -0.4452
 4678TIP3   OH235524   3.826   3.671  13.354 -0.1945 -0.5370  0.7433
 4678TIP3    H135525   3.772   3.627  13.288 -0.9447 -0.3616  1.2232
 4678TIP3    H235526   3.842   3.603  13.420 -1.8739  0.0421  1.7923
 4679TIP3   OH235527   0.998   2.814  15.521  0.3742 -0.1352  0.6025
 4679TIP3    H135528   0.907   2.812  15.552 -0.0799 -0.5180 -0.6568
 4679TIP3    H235529   1.026   2.905  15.533  0.1030 -0.1960  1.7509
 4680TIP3   OH235530   5.819   5.271   2.236 -0.1169  0.1722  0.0964
 4680TIP3    H135531   5.864   5.196   2.274  1.0081  1.8323  2.2736
 4680TIP3    H235532   5.878   5.303   2.168  0.7317  0.6970  1.0573
 4681TIP3   OH235533   5.428   5.768   3.666  0.4537 -0.3104 -0.3151
 4681TIP3    H135534   5.335   5.788   3.651  0.5528  1.9538  1.5040
 4681TIP3    H235535   5.428   5.684   3.710 -0.8008 -0.0597  0.2027
 4682TIP3   OH235536   4.928   2.414  16.738  0.5614 -0.0025  0.3165
 4682TIP3    H135537   4.890   2.344  16.791  0.2894 -0.0363  0.0812
 4682TIP3    H235538   5.005   2.374  16.697  1.8385  0.5368  2.1009
 4683TIP3   OH235539   0.366   2.107   3.442 -0.3315  0.4468 -0.1147
 4683TIP3    H135540   0.357   2.016   3.415  1.0931  0.1869  0.2052
 4683TIP3    H235541   0.367   2.104   3.537 -0.2626  0.7866 -0.1025
 4684TIP3   OH235542   6.755   2.387   3.244 -0.8015  0.2187  0.4792
 4684TIP3    H135543   6.795   2.324   3.184 -0.5651  0.8393 -0.0311
 4684TIP3    H235544   6.828   2.434   3.283 -0.9867  1.0043 -0.0709
 4685TIP3   OH235545   3.422   5.547   5.098 -0.4183  0.5715  0.7876
 4685TIP3    H135546   3.373   5.579   5.173 -0.5502 -0.7528  1.2928
 4685TIP3    H235547   3.464   5.625   5.061 -0.3301  1.2351  2.2393
 4686TIP3   OH235548   3.777   1.930  17.160 -0.4112  0.4482 -0.1525
 4686TIP3    H135549   3.713   1.971  17.218  0.1621  0.3700  0.5544
 4686TIP3    H235550   3.831   1.876  17.219 -0.6479 -0.6915 -0.9417
 4687TIP3   OH235551   2.016   6.166  15.171  0.0931 -0.3833  0.1887
 4687TIP3    H135552   2.066   6.144  15.093 -0.6013  0.6682 -0.5855
 4687TIP3    H235553   1.977   6.251  15.152  0.9062  0.5046  2.1725
 4688TIP3   OH235554   6.514   3.766  13.568 -0.3795 -0.6584  0.7363
 4688TIP3    H135555   6.595   3.719  13.547  0.7887  1.6918 -0.3112
 4688TIP3    H235556   6.529   3.803  13.655 -0.5996 -0.7219  0.8045
 4689TIP3   OH235557   4.033   0.893  12.411  0.1321 -0.0953  0.1249
 4689TIP3    H135558   4.017   0.987  12.401 -2.1836 -0.5212 -0.9244
 4689TIP3    H235559   3.971   0.865  12.478 -0.3161 -1.1014 -0.6745
 4690TIP3   OH235560   0.577   4.736   1.456 -0.5765  0.4962 -0.0738
 4690TIP3    H135561   0.606   4.653   1.418 -2.2133 -0.3244  0.3835
 4690TIP3    H235562   0.616   4.737   1.543 -0.7206  0.0998 -0.0014
 4691TIP3   OH235563   1.979   4.998  10.501 -0.0931  0.1552  0.3215
 4691TIP3    H135564   1.900   4.985  10.449  1.1357  1.0665 -1.9266
 4691TIP3    H235565   2.008   4.910  10.524 -1.1662 -0.2267  0.2260
 4692TIP3   OH235566   4.504   3.795   4.568 -0.1447 -0.6235 -0.0654
 4692TIP3    H135567   4.446   3.739   4.621  0.0908  0.2779  1.1899
 4692TIP3    H235568   4.553   3.733   4.514 -1.4865 -1.4806 -0.3654
 4693TIP3   OH235569   5.624   3.275  15.129  0.9962 -0.4141  0.2294
 4693TIP3    H135570   5.682   3.212  15.171  1.0649 -0.0650  0.6700
 4693TIP3    H235571   5.683   3.343  15.096  0.7273  1.3536  3.0414
 4694TIP3   OH235572   4.044   1.680   6.273  0.6621 -0.0003  0.0936
 4694TIP3    H135573   3.971   1.675   6.335  1.4517 -0.5539  1.0104
 4694TIP3    H235574   4.114   1.723   6.322  1.7137 -1.5599  0.0295
 4695TIP3   OH235575   0.767   2.333   1.284  0.2427 -0.4775 -0.0357
 4695TIP3    H135576   0.839   2.395   1.275 -1.2672  1.7949  2.1721
 4695TIP3    H235577   0.794   2.276   1.356 -0.1159  0.3950  0.8140
 4696TIP3   OH235578   3.384   1.744  16.341  0.4633 -0.3953 -0.3092
 4696TIP3    H135579   3.357   1.771  16.429  1.1834 -1.3415  0.2265
 4696TIP3    H235580   3.438   1.667  16.355  0.1072 -0.9197 -1.6442
 4697TIP3   OH235581   4.985   0.399  16.884  0.1271  0.5260 -0.3198
 4697TIP3    H135582   5.018   0.455  16.954  0.0976 -1.1886  1.1597
 4697TIP3    H235583   5.055   0.395  16.820  0.0446  2.3734 -0.5567
 4698TIP3   OH235584   1.730   4.004   2.013  0.4398  0.3493  0.2692
 4698TIP3    H135585   1.731   4.073   1.946  0.0317  0.7410  0.6605
 4698TIP3    H235586   1.638   3.980   2.022  0.5420 -0.0046  0.3855
 4699TIP3   OH235587   2.961   2.926  15.989 -0.3726  0.4445  0.5870
 4699TIP3    H135588   2.947   2.852  16.047 -0.9085  0.3200  0.3020
 4699TIP3    H235589   2.902   2.911  15.915  1.3611 -0.1681 -0.7265
 4700TIP3   OH235590   0.497   0.821  16.934 -0.3907  0.4233 -0.0956
 4700TIP3    H135591   0.403   0.832  16.951 -0.2258  1.0866  0.4640
 4700TIP3    H235592   0.539   0.850  17.015  0.1945 -4.0681  1.4508
 4701TIP3   OH235593   5.261   6.783  14.716 -0.4593 -0.2438  0.7483
 4701TIP3    H135594   5.294   6.765  14.804  0.2691  1.2619  0.8031
 4701TIP3    H235595   5.328   6.838  14.675 -1.7914  0.9293  0.0457
 4702TIP3   OH235596   3.360   3.029   1.759  0.2574 -0.7562 -1.2205
 4702TIP3    H135597   3.450   2.999   1.743  0.4510 -1.4990  0.8223
 4702TIP3    H235598   3.345   3.097   1.694  2.2972 -0.6406 -1.6539
 4703TIP3   OH235599   6.759   5.952  13.458 -0.0993 -0.1897  0.3509
 4703TIP3    H135600   6.684   6.004  13.431  1.9645  1.6517 -2.4441
 4703TIP3    H235601   6.750   5.870  13.411  0.0292  0.3811 -0.7115
 4704TIP3   OH235602   5.872   4.142  13.988 -0.3748 -0.0247  0.2955
 4704TIP3    H135603   5.790   4.187  14.007 -1.2757 -0.2647 -2.5085
 4704TIP3    H235604   5.925   4.207  13.942  0.1780 -0.4578  0.3144
 4705TIP3   OH235605   1.917   0.968   6.755  0.1773 -0.3877  0.0319
 4705TIP3    H135606   1.833   0.949   6.715  0.0904 -0.2975  0.1714
 4705TIP3    H235607   1.903   0.950   6.848  0.5026 -1.0438 -0.0356
 4706TIP3   OH235608   2.830   5.802  15.221 -0.4836 -0.3367  0.3447
 4706TIP3    H135609   2.825   5.818  15.127  1.7319  1.8469  0.5057
 4706TIP3    H235610   2.902   5.857  15.252  0.6860 -2.9898  2.9091
 4707TIP3   OH235611   3.217   5.980   2.772  0.5214  0.1169  0.4473
 4707TIP3    H135612   3.182   6.016   2.854  0.5138  1.3184 -0.0606
 4707TIP3    H235613   3.139   5.959   2.720  0.5379  0.1366  0.4145
 4708TIP3   OH235614   3.895   5.395   6.137  0.4727  0.4667  0.0641
 4708TIP3    H135615   3.922   5.371   6.049  3.8281  1.5045  0.6497
 4708TIP3    H235616   3.949   5.340   6.194 -1.2395  0.1923  1.5281
 4709TIP3   OH235617   0.619   3.950   0.641 -0.1695 -0.2175  0.0352
 4709TIP3    H135618   0.677   3.907   0.703 -1.5680  0.0855  1.6307
 4709TIP3    H235619   0.632   4.043   0.655  3.1074  0.1345 -3.6527
 4710TIP3   OH235620   1.261   3.316  13.795 -0.0886  0.0527  0.1977
 4710TIP3    H135621   1.225   3.300  13.882  1.2779  0.8582  0.9402
 4710TIP3    H235622   1.231   3.404  13.772 -2.8959 -1.2028 -1.4703
 4711TIP3   OH235623   0.455   0.357  16.004  1.0732  0.1377  0.3049
 4711TIP3    H135624   0.498   0.278  16.038  2.8114  0.6839 -0.5507
 4711TIP3    H235625   0.478   0.425  16.067 -1.0548 -0.1071  1.4651
 4712TIP3   OH235626   1.407   5.141   2.459 -0.4422 -0.3871 -0.3300
 4712TIP3    H135627   1.486   5.186   2.431 -0.7121 -0.5540 -1.3879
 4712TIP3    H235628   1.430   5.048   2.458 -0.3526 -0.3782  0.3524
 4713TIP3   OH235629   2.476   4.922   0.272  0.2425 -0.6025 -0.1815
 4713TIP3    H135630   2.534   4.975   0.327  0.4158  0.1109 -1.0249
 4713TIP3    H235631   2.446   4.982   0.204  0.3858 -1.5723 -1.1337
 4714TIP3   OH235632   5.071   1.664  15.109  0.3275  0.1935  0.2316
 4714TIP3    H135633   5.117   1.741  15.142  0.6368 -0.4092  1.2457
 4714TIP3    H235634   5.106   1.651  15.020  2.0497 -0.1849  0.9332
 4715TIP3   OH235635   0.185   4.650   5.104 -0.0301  0.2734  0.1678
 4715TIP3    H135636   0.227   4.699   5.175  1.4736  0.2345 -0.6368
 4715TIP3    H235637   0.214   4.694   5.025  0.4513 -1.2256 -0.5280
 4716TIP3   OH235638   5.305   4.211  15.408 -0.1148 -0.3612 -0.1536
 4716TIP3    H135639   5.374   4.181  15.348 -1.7449 -1.9309 -1.3412
 4716TIP3    H235640   5.249   4.135  15.420 -1.9931  1.0144  0.2742
 4717TIP3   OH235641   5.949   6.093  13.672  0.6592  0.3441  0.5290
 4717TIP3    H135642   5.865   6.059  13.703  1.3646 -1.4530  0.5726
 4717TIP3    H235643   5.985   6.023  13.617  2.7648  0.4447  1.6592
 4718TIP3   OH235644   2.383   6.051  16.260 -0.3899 -0.4099  0.2176
 4718TIP3    H135645   2.337   6.003  16.328  1.4383 -0.3737  1.5776
 4718TIP3    H235646   2.446   5.988  16.224  0.9287  0.4424  0.9095
 4719TIP3   OH235647   4.811   5.892   0.890 -0.0415 -0.4218 -0.2757
 4719TIP3    H135648   4.799   5.832   0.963  2.1254 -0.1877  0.3280
 4719TIP3    H235649   4.815   5.837   0.813  1.5920 -1.0731  0.2367
 4720TIP3   OH235650   5.501   6.222   0.655  0.2883  0.2740 -0.2388
 4720TIP3    H135651   5.509   6.314   0.630  0.4784 -0.1776 -1.9414
 4720TIP3    H235652   5.455   6.224   0.739  0.8678  1.9465  0.0725
 4721TIP3   OH235653   6.556   4.251  12.696  0.4035  0.3377 -0.1839
 4721TIP3    H135654   6.525   4.209  12.616 -0.1198 -0.7377  0.5576
 4721TIP3    H235655   6.601   4.330  12.666  0.7784 -0.3747 -1.5725
 4722TIP3   OH235656   1.258   1.556  12.463  0.0076 -0.0687 -0.0427
 4722TIP3    H135657   1.260   1.642  12.421  0.5923 -0.2326 -0.3572
 4722TIP3    H235658   1.349   1.536  12.481 -0.1735 -0.3622  0.5800
 4723TIP3   OH235659   4.690   0.137  17.127  0.1166  0.0976  0.1871
 4723TIP3    H135660   4.642   0.182  17.196 -0.7679 -1.7471  0.8351
 4723TIP3    H235661   4.723   0.057  17.168 -1.0429 -1.4183 -1.6418
 4724TIP3   OH235662   6.644   3.149  15.027  0.0699 -0.0463 -0.2669
 4724TIP3    H135663   6.646   3.060  14.991  1.6081 -0.2443  0.2257
 4724TIP3    H235664   6.675   3.138  15.117 -0.0712  0.9586 -0.0903
 4725TIP3   OH235665   2.275   0.802  14.832 -0.4217  0.4987 -0.2255
 4725TIP3    H135666   2.279   0.741  14.758  1.0228  0.1001  0.1517
 4725TIP3    H235667   2.265   0.747  14.909  1.4650  0.6443  0.1734
 4726TIP3   OH235668   5.683   5.559  13.739  0.1830 -0.2416  0.6526
 4726TIP3    H135669   5.765   5.519  13.710  1.6198  3.6669 -1.3237
 4726TIP3    H235670   5.705   5.597  13.824 -0.3212 -1.0937  1.1798
 4727TIP3   OH235671   0.489   3.284   5.026 -0.2131 -0.1505 -0.4057
 4727TIP3    H135672   0.562   3.339   5.053 -1.6789  2.7550 -1.9684
 4727TIP3    H235673   0.422   3.298   5.093 -0.1024 -1.2117 -0.0551
 4728TIP3   OH235674   1.977   3.872  16.748  0.1918  0.7464 -0.6580
 4728TIP3    H135675   2.067   3.901  16.729  1.1227 -0.4337  1.5607
 4728TIP3    H235676   1.956   3.915  16.831 -0.7187 -0.1563 -0.4094
 4729TIP3   OH235677   5.873   4.465  14.050 -0.5402 -0.0558  0.7188
 4729TIP3    H135678   5.951   4.474  14.105 -1.0505  1.7326  1.2327
 4729TIP3    H235679   5.802   4.445  14.112 -0.4468 -2.2764  0.1941
 4730TIP3   OH235680   2.203   4.131   5.649  0.1192 -0.8916  0.8735
 4730TIP3    H135681   2.134   4.131   5.715 -0.5952 -0.6261  0.1527
 4730TIP3    H235682   2.209   4.040   5.621  1.1260 -1.1878  1.9966
 4731TIP3   OH235683   6.329   5.729  16.787 -0.2170  0.0084  0.0743
 4731TIP3    H135684   6.371   5.670  16.724 -1.1247  0.2093 -0.7585
 4731TIP3    H235685   6.328   5.814  16.742  0.6734  0.5684  1.0778
 4732TIP3   OH235686   5.157   1.404  15.256 -0.0875 -0.3194  0.4779
 4732TIP3    H135687   5.095   1.471  15.227  1.5774  1.2551  0.4251
 4732TIP3    H235688   5.198   1.441  15.334 -0.0865 -1.8908  1.2722
 4733TIP3   OH235689   3.534   4.006   5.347  0.0217 -0.2690  0.3773
 4733TIP3    H135690   3.441   4.022   5.364 -0.4024 -0.8547 -1.2114
 4733TIP3    H235691   3.567   4.090   5.315 -0.1472 -0.2637  0.2153
 4734TIP3   OH235692   6.138   2.791  11.284  0.1935  0.1244 -0.2418
 4734TIP3    H135693   6.209   2.854  11.271  0.2175  0.2210  0.3497
 4734TIP3    H235694   6.135   2.742  11.201  0.7315  0.3366 -0.3947
 4735TIP3   OH235695   0.107   3.771  13.187  0.4306 -0.3982 -0.0113
 4735TIP3    H135696   0.166   3.806  13.254  0.0210 -0.5353  0.4207
 4735TIP3    H235697   0.164   3.754  13.112  0.9539 -0.6002  0.4287
 4736TIP3   OH235698   0.097   2.335  16.386 -0.4173  0.0146  0.0499
 4736TIP3    H135699   0.148   2.366  16.461  0.7848 -0.4061 -0.5594
 4736TIP3    H235700   0.146   2.365  16.309 -0.7845 -0.8686 -0.5549
 4737TIP3   OH235701   2.321   4.343  12.939  0.2964 -0.4424 -0.7346
 4737TIP3    H135702   2.317   4.332  12.844 -0.2332 -2.6407 -0.4985
 4737TIP3    H235703   2.310   4.255  12.974 -1.3598  0.5253  1.4227
 4738TIP3   OH235704   4.939   3.713  15.033 -0.3131  0.5839  0.0739
 4738TIP3    H135705   4.865   3.772  15.042 -0.2257  0.4816  1.7494
 4738TIP3    H235706   4.915   3.637  15.086  0.3434 -0.1166 -0.6068
 4739TIP3   OH235707   2.225   4.258   1.958  0.2842 -0.2248  0.2581
 4739TIP3    H135708   2.167   4.198   1.911  2.2900 -0.7793 -1.6711
 4739TIP3    H235709   2.311   4.218   1.952  1.2159  1.4824  1.3744
 4740TIP3   OH235710   3.816   1.246  13.543 -0.0250 -0.1986  0.2269
 4740TIP3    H135711   3.806   1.298  13.463 -0.4644 -0.0133  0.4000
 4740TIP3    H235712   3.910   1.227  13.548 -0.2941 -2.3565 -1.6544
 4741TIP3   OH235713   3.803   2.504  12.185 -0.6915 -0.1865  0.6913
 4741TIP3    H135714   3.782   2.597  12.193 -3.5252 -0.5616 -0.8746
 4741TIP3    H235715   3.873   2.489  12.248 -0.3218  2.9367  1.1680
 4742TIP3   OH235716   3.819   3.610  15.581 -0.3667  0.7061  0.0753
 4742TIP3    H135717   3.797   3.703  15.574  1.4040  1.1845  0.2903
 4742TIP3    H235718   3.786   3.571  15.500 -0.1307  1.7507 -0.5412
 4743TIP3   OH235719   4.944   6.795  11.521  0.0500  0.1799  0.0627
 4743TIP3    H135720   4.976   6.809  11.610 -0.1630  0.7470  0.0540
 4743TIP3    H235721   4.988   6.715  11.491 -1.8110 -1.5295  1.6159
 4744TIP3   OH235722   5.141   5.684   3.548 -0.4615 -0.7551  0.4705
 4744TIP3    H135723   5.129   5.714   3.458 -0.7381 -0.1991  0.6868
 4744TIP3    H235724   5.062   5.712   3.594 -0.6307 -1.6376  0.7394
 4745TIP3   OH235725   4.450   0.832   5.940  0.3591  0.2429  0.6116
 4745TIP3    H135726   4.510   0.758   5.945  0.0119 -0.0337  0.7069
 4745TIP3    H235727   4.505   0.909   5.959  1.0471  0.1846 -1.0046
 4746TIP3   OH235728   5.299   0.605  14.703 -0.0407  0.5515  0.2588
 4746TIP3    H135729   5.263   0.614  14.791  0.2700  0.0170  0.4497
 4746TIP3    H235730   5.394   0.612  14.715  0.0839 -0.6896  0.1421
 4747TIP3   OH235731   2.977   3.560   3.436  0.8114 -0.2926  0.2111
 4747TIP3    H135732   2.892   3.569   3.393  1.0741  3.2174  0.1625
 4747TIP3    H235733   2.957   3.531   3.525 -0.4446  0.3617  0.1602
 4748TIP3   OH235734   0.749   4.170   4.031 -0.0732 -0.1249 -0.0026
 4748TIP3    H135735   0.731   4.198   4.121 -1.9483  0.8923 -0.6430
 4748TIP3    H235736   0.751   4.074   4.036  0.6403 -0.0743  1.2352
 4749TIP3   OH235737   1.021   0.912   0.781  0.1161  0.4659  0.2395
 4749TIP3    H135738   0.973   0.866   0.850 -0.5808  0.3820 -0.2903
 4749TIP3    H235739   1.025   1.003   0.811 -2.0111  0.8793 -0.5269
 4750TIP3   OH235740   3.392   1.014  15.021  0.2034  0.5232 -0.1650
 4750TIP3    H135741   3.467   0.960  15.044  0.2252 -0.5301 -2.4506
 4750TIP3    H235742   3.429   1.101  15.007  0.7740  0.3247  0.0661
 4751TIP3   OH235743   6.514   3.777   2.815  0.1191  0.0272  0.5951
 4751TIP3    H135744   6.554   3.744   2.895  1.0209 -1.3443 -0.3849
 4751TIP3    H235745   6.523   3.706   2.752 -2.5678  0.2158 -0.1347
 4752TIP3   OH235746   1.642   6.813  15.732 -0.1173  0.2633 -0.2794
 4752TIP3    H135747   1.728   6.822  15.771  0.0260  1.6779 -0.8529
 4752TIP3    H235748   1.653   6.845  15.642 -0.8885 -1.0121 -0.8582
 4753TIP3   OH235749   1.909   2.867   5.610  0.5356 -0.2105  0.1613
 4753TIP3    H135750   1.883   2.880   5.701  0.6611  0.6714  0.0784
 4753TIP3    H235751   1.934   2.954   5.580  0.6461 -0.5255 -0.6721
 4754TIP3   OH235752   0.352   5.294   3.445  0.0844  0.1967 -0.0063
 4754TIP3    H135753   0.409   5.364   3.415  0.3557 -0.1492 -0.3104
 4754TIP3    H235754   0.312   5.259   3.365 -1.1963  0.9642  0.2591
 4755TIP3   OH235755   0.932   4.591  12.346 -0.3785  0.0094  0.1396
 4755TIP3    H135756   0.997   4.532  12.309  0.1148  0.4729  0.2488
 4755TIP3    H235757   0.903   4.644  12.273 -1.5383 -0.9994 -0.1585
 4756TIP3   OH235758   1.959   0.188   5.780  0.0752 -0.1265  0.3530
 4756TIP3    H135759   1.931   0.123   5.845  0.9223  0.2754  1.1469
 4756TIP3    H235760   1.986   0.136   5.704  0.5764 -0.7070  0.9146
 4757TIP3   OH235761   6.154   4.406   1.565 -0.0693  0.3149  0.3535
 4757TIP3    H135762   6.134   4.454   1.485  0.3567  0.4984  0.3572
 4757TIP3    H235763   6.181   4.319   1.534 -0.6798  0.1231  0.3401
 4758TIP3   OH235764   0.475   1.161   1.532  0.5321 -0.0233  0.4223
 4758TIP3    H135765   0.556   1.159   1.583  1.2648 -2.8407 -0.6524
 4758TIP3    H235766   0.503   1.141   1.442 -1.1660  0.8531 -0.3372
 4759TIP3   OH235767   2.866   3.749   1.711  0.2391  0.1273  0.2184
 4759TIP3    H135768   2.836   3.661   1.732 -0.6747  0.0800 -1.1433
 4759TIP3    H235769   2.941   3.764   1.769  0.9323 -1.8541 -0.1012
 4760TIP3   OH235770   3.778   0.668   0.611 -0.4337 -0.2996  0.2651
 4760TIP3    H135771   3.820   0.596   0.659 -0.4653 -0.3749  0.1799
 4760TIP3    H235772   3.825   0.746   0.639 -0.8519 -0.2666  0.8876
 4761TIP3   OH235773   6.670   0.297   2.279 -0.2258 -0.7839  0.1862
 4761TIP3    H135774   6.640   0.252   2.358 -2.6830  1.9120  0.9582
 4761TIP3    H235775   6.738   0.357   2.309  0.0096 -0.9204 -0.0629
 4762TIP3   OH235776   3.388   5.546  14.106  0.6612 -0.4733 -0.0619
 4762TIP3    H135777   3.325   5.608  14.144 -0.1226 -0.6248 -1.0813
 4762TIP3    H235778   3.434   5.509  14.182  0.7247  0.8997  0.5973
 4763TIP3   OH235779   3.466   4.182  16.810  0.2893 -0.3696  0.3961
 4763TIP3    H135780   3.488   4.227  16.892  1.1289 -1.3878  0.7470
 4763TIP3    H235781   3.543   4.129  16.790  0.3040  0.2759 -1.3609
 4764TIP3   OH235782   2.201   2.961  16.884  0.2481 -0.0740  0.3592
 4764TIP3    H135783   2.215   2.889  16.945  0.5051 -0.2757  0.0626
 4764TIP3    H235784   2.135   3.016  16.927 -0.3820 -0.7893  0.3270
 4765TIP3   OH235785   0.441   3.346   0.722  0.4451  0.3452 -0.9127
 4765TIP3    H135786   0.486   3.282   0.666  0.7266  0.1493 -0.4695
 4765TIP3    H235787   0.510   3.380   0.779  0.4218  1.4999 -1.5459
 4766TIP3   OH235788   2.884   5.478   3.540  0.4542  0.0225 -0.3199
 4766TIP3    H135789   2.900   5.557   3.592 -1.1817  0.8285 -0.9696
 4766TIP3    H235790   2.947   5.414   3.574  1.5333  1.4625  0.5097
 4767TIP3   OH235791   6.805   4.829  16.804 -0.5971  0.4001 -0.0703
 4767TIP3    H135792   6.720   4.867  16.781 -0.0030  1.4739 -0.5678
 4767TIP3    H235793   6.860   4.904  16.823  0.2812 -0.2879  0.1553
 4768TIP3   OH235794   3.854   2.105   2.279 -0.2292  0.3975  0.5729
 4768TIP3    H135795   3.936   2.106   2.230 -0.3094  0.7858  0.4446
 4768TIP3    H235796   3.860   2.027   2.335 -0.1669 -0.0814 -0.0918
 4769TIP3   OH235797   3.678   5.077   3.612  0.1584  0.1521  0.0789
 4769TIP3    H135798   3.712   4.989   3.625  2.4108  0.8522 -0.5270
 4769TIP3    H235799   3.583   5.067   3.609  0.3810 -2.2908 -0.3819
 4770TIP3   OH235800   1.855   2.667   6.559 -0.3707 -0.0508  0.4431
 4770TIP3    H135801   1.824   2.615   6.633  1.7463 -2.7502 -0.4186
 4770TIP3    H235802   1.822   2.622   6.482  0.7452  0.3760 -0.3147
 4771TIP3   OH235803   0.306   0.795  16.090  0.2872 -0.0975  0.1031
 4771TIP3    H135804   0.315   0.703  16.066 -2.5861 -0.1871 -1.0488
 4771TIP3    H235805   0.323   0.797  16.185 -0.4329 -1.9921  0.3221
 4772TIP3   OH235806   2.999   2.437  14.010  0.3331  0.0003  0.3838
 4772TIP3    H135807   2.915   2.391  14.006  0.2130  0.2412  0.0621
 4772TIP3    H235808   2.976   2.529  14.027  0.4204  0.3579 -1.2192
 4773TIP3   OH235809   5.906   5.400  16.690 -0.0645  0.2666 -0.3291
 4773TIP3    H135810   5.875   5.442  16.770 -0.8805 -0.9178  0.0172
 4773TIP3    H235811   5.904   5.469  16.624 -3.0172  0.4362 -0.1959
 4774TIP3   OH235812   3.202   5.179   4.009 -0.2912 -0.3738  0.3925
 4774TIP3    H135813   3.244   5.203   4.092 -1.5723  1.3449  0.6232
 4774TIP3    H235814   3.261   5.116   3.968  0.7139 -0.7225  2.2876
 4775TIP3   OH235815   4.532   5.698  13.463 -0.6171  0.1267 -0.1315
 4775TIP3    H135816   4.602   5.759  13.490 -0.1593 -1.2541  2.0400
 4775TIP3    H235817   4.462   5.712  13.527 -0.9213 -0.8881 -0.2257
 4776TIP3   OH235818   2.866   1.336  13.232  0.1177  0.2031  0.3424
 4776TIP3    H135819   2.874   1.429  13.211 -0.1164  0.3257  0.7745
 4776TIP3    H235820   2.953   1.301  13.217 -0.2642  0.0491 -1.8250
 4777TIP3   OH235821   6.002   0.610  14.441 -0.5104  0.1834 -0.1185
 4777TIP3    H135822   5.977   0.614  14.349 -1.1587 -2.1867 -0.1250
 4777TIP3    H235823   6.036   0.521  14.452  0.3699  0.7041  1.7518
 4778TIP3   OH235824   1.432   1.910  11.716 -0.5633  0.6250 -0.9622
 4778TIP3    H135825   1.499   1.956  11.768 -0.4285  1.5411 -1.9086
 4778TIP3    H235826   1.364   1.976  11.703 -0.2706  0.6477 -2.5226
 4779TIP3   OH235827   1.645   3.634   6.037 -0.5801  0.1961 -0.0730
 4779TIP3    H135828   1.645   3.730   6.038 -1.9606  0.2085  0.2972
 4779TIP3    H235829   1.584   3.609   6.105 -3.9211 -0.8335 -3.1456
 4780TIP3   OH235830   5.093   2.607   6.360  0.1487 -0.6818  0.1430
 4780TIP3    H135831   5.103   2.634   6.269 -0.8768  0.9332  0.4698
 4780TIP3    H235832   5.024   2.664   6.394  0.8552 -0.9187  2.0728
 4781TIP3   OH235833   0.596   6.592   3.738 -0.1685 -0.3307  0.3914
 4781TIP3    H135834   0.547   6.594   3.820  0.1059  2.0422  0.5710
 4781TIP3    H235835   0.621   6.683   3.723 -0.4413 -0.6351 -2.4723
 4782TIP3   OH235836   4.284   3.796  12.089 -0.5219  0.4076 -0.1588
 4782TIP3    H135837   4.278   3.808  12.183 -0.4449 -2.1068  0.2500
 4782TIP3    H235838   4.193   3.783  12.060 -0.5889  1.5750 -0.5337
 4783TIP3   OH235839   1.988   3.875   5.741  0.4227 -0.5255 -0.5838
 4783TIP3    H135840   1.927   3.808   5.772  0.4635  0.0256  0.7383
 4783TIP3    H235841   2.029   3.909   5.820 -0.2921  1.7507 -1.1178
 4784TIP3   OH235842   4.434   4.011  11.202  0.8196  0.2377 -0.0656
 4784TIP3    H135843   4.428   4.068  11.126 -0.3870  1.1814  0.7059
 4784TIP3    H235844   4.410   4.067  11.276  0.5518 -1.0254  0.8330
 4785TIP3   OH235845   1.573   0.989   2.694  0.1868  0.3197 -0.1986
 4785TIP3    H135846   1.511   0.937   2.642 -0.2376 -0.8898  1.4178
 4785TIP3    H235847   1.658   0.948   2.678 -0.0991 -0.7359  0.8110
 4786TIP3   OH235848   3.708   5.125  14.603  0.1366  0.0472  0.3541
 4786TIP3    H135849   3.742   5.107  14.691 -1.3649  0.8308  1.1381
 4786TIP3    H235850   3.702   5.039  14.562 -1.3905 -0.6365  1.8932
 4787TIP3   OH235851   4.998   4.645  11.274 -0.3084  0.7902  0.6739
 4787TIP3    H135852   4.904   4.660  11.288 -0.1495  1.1157  1.4259
 4787TIP3    H235853   5.041   4.717  11.320  0.3773 -0.2785  1.7738
 4788TIP3   OH235854   3.090   0.827  14.887  0.4191 -0.1050  0.4391
 4788TIP3    H135855   3.161   0.788  14.937  0.0075 -0.4061  0.8006
 4788TIP3    H235856   3.012   0.776  14.913  0.1495 -0.0592 -0.2676
 4789TIP3   OH235857   2.464   2.621  14.652 -0.1676  0.3592  0.2171
 4789TIP3    H135858   2.468   2.552  14.718 -0.3504 -0.1082 -0.2525
 4789TIP3    H235859   2.541   2.675  14.668  0.1057 -0.0928  0.4406
 4790TIP3   OH235860   3.422   6.009  12.294 -0.0819  0.3387 -0.3580
 4790TIP3    H135861   3.397   6.058  12.372  0.6221 -1.6093  1.1710
 4790TIP3    H235862   3.486   6.064  12.250  0.9594  0.6654  1.4754
 4791TIP3   OH235863   4.289   2.229   0.443 -0.0102  0.0859 -0.1999
 4791TIP3    H135864   4.220   2.183   0.491  0.0765 -0.7670 -0.8685
 4791TIP3    H235865   4.364   2.171   0.447  0.2130  0.3277 -0.7426
 4792TIP3   OH235866   2.069   3.331  13.955 -0.1753 -0.4440 -0.2978
 4792TIP3    H135867   2.100   3.301  13.869 -3.1365  0.3966 -1.7815
 4792TIP3    H235868   2.043   3.251  14.000  1.5322 -0.9094 -0.0648
 4793TIP3   OH235869   4.288   2.728  11.512  0.1639 -0.0967  0.8036
 4793TIP3    H135870   4.315   2.817  11.535  0.8045 -0.0140 -0.1993
 4793TIP3    H235871   4.355   2.672  11.550  1.2514  0.0430 -0.7968
 4794TIP3   OH235872   1.082   0.237  12.073 -0.1799  0.0622  0.0435
 4794TIP3    H135873   1.143   0.190  12.130 -1.4443  0.9026  2.1770
 4794TIP3    H235874   1.054   0.171  12.009  1.3608 -0.8764  0.2714
 4795TIP3   OH235875   1.069   1.472  15.238 -0.1358  0.1414  0.0073
 4795TIP3    H135876   0.980   1.507  15.232 -0.7268 -1.4146 -0.7209
 4795TIP3    H235877   1.114   1.506  15.160 -0.1883  0.6549  0.1995
 4796TIP3   OH235878   5.670   6.240   5.084  0.1987  0.1371  0.0760
 4796TIP3    H135879   5.645   6.162   5.033 -1.8362 -0.2475  1.5799
 4796TIP3    H235880   5.629   6.228   5.169 -0.5483  3.0676  0.2400
 4797TIP3   OH235881   5.190   5.589  14.995 -0.1406 -0.3472 -0.2571
 4797TIP3    H135882   5.267   5.636  14.963  0.5945 -1.0421  0.4395
 4797TIP3    H235883   5.157   5.642  15.067 -1.4120  0.8796 -1.6620
 4798TIP3   OH235884   6.234   0.280  16.506 -0.2910  0.3934 -0.0054
 4798TIP3    H135885   6.173   0.349  16.530 -0.2030  0.5926 -0.3450
 4798TIP3    H235886   6.189   0.230  16.439  0.3127  1.1812 -1.0371
 4799TIP3   OH235887   0.193   5.127   4.695  0.0256  0.8285 -0.3318
 4799TIP3    H135888   0.197   5.150   4.602  1.6419  0.2013 -0.4568
 4799TIP3    H235889   0.100   5.115   4.713 -0.4219  2.1235 -1.5610
 4800TIP3   OH235890   1.686   2.483   6.062 -0.0226 -0.2011 -0.0052
 4800TIP3    H135891   1.752   2.505   5.997 -0.7915  2.7557  0.0493
 4800TIP3    H235892   1.604   2.480   6.013 -0.0916 -2.3978  0.1647
 4801TIP3   OH235893   0.491   6.456  11.607  0.5929 -0.2726 -0.1222
 4801TIP3    H135894   0.518   6.409  11.528  0.3543 -0.5386 -0.0473
 4801TIP3    H235895   0.420   6.514  11.577  0.2523 -0.6390 -0.0355
 4802TIP3   OH235896   4.811   5.278  14.364  0.0848 -0.0138  0.1335
 4802TIP3    H135897   4.761   5.349  14.325 -1.1913 -0.8009  0.2890
 4802TIP3    H235898   4.822   5.304  14.456  0.2969  0.3358  0.0115
 4803TIP3   OH235899   0.700   1.461   1.072 -0.4926  0.1130 -0.4707
 4803TIP3    H135900   0.755   1.421   1.004  1.1193  0.7429  0.3967
 4803TIP3    H235901   0.611   1.453   1.039  0.0924 -1.1402 -1.8555
 4804TIP3   OH235902   0.381   2.593  12.571  0.0590 -0.3038 -0.1218
 4804TIP3    H135903   0.304   2.649  12.574  0.5265  0.6872 -3.1770
 4804TIP3    H235904   0.415   2.594  12.661 -2.2492  0.9371  0.8239
 4805TIP3   OH235905   6.639   5.240   1.963 -0.5711  0.8701  0.1155
 4805TIP3    H135906   6.637   5.247   1.868  3.2319 -1.6680 -0.3709
 4805TIP3    H235907   6.590   5.161   1.983 -0.0659  0.5399  0.0674
 4806TIP3   OH235908   0.559   5.624   4.083  0.5955 -0.3341 -0.5816
 4806TIP3    H135909   0.581   5.538   4.120  0.1361 -0.9825 -1.7536
 4806TIP3    H235910   0.575   5.685   4.154 -0.4891 -1.5478  0.7759
 4807TIP3   OH235911   0.222   1.953   4.981 -0.4795  0.2702 -0.2877
 4807TIP3    H135912   0.243   1.866   4.947 -2.1365 -0.0065 -0.7072
 4807TIP3    H235913   0.156   1.936   5.049 -0.1458  1.1413  0.2739
 4808TIP3   OH235914   4.706   4.506  11.356  0.5191  0.2119 -0.0823
 4808TIP3    H135915   4.616   4.532  11.372 -1.2364 -4.8750 -0.1089
 4808TIP3    H235916   4.745   4.496  11.443  0.1869 -0.1212  0.0282
 4809TIP3   OH235917   4.983   3.331  15.287  0.1096 -0.1296 -0.3386
 4809TIP3    H135918   4.911   3.302  15.343 -0.2843 -2.2646 -1.8005
 4809TIP3    H235919   4.940   3.380  15.217  0.3265  0.4417 -0.0728
 4810TIP3   OH235920   5.850   3.813  11.101  0.1463 -0.3009  0.1279
 4810TIP3    H135921   5.793   3.758  11.155 -1.1567  0.0986 -0.7823
 4810TIP3    H235922   5.891   3.873  11.163 -0.3067 -0.7045  0.8345
 4811TIP3   OH235923   3.021   1.650   2.879  0.0619 -0.0901 -0.0600
 4811TIP3    H135924   3.070   1.589   2.934 -0.4620 -1.5526 -1.1794
 4811TIP3    H235925   3.077   1.728   2.876  1.5331 -1.0883  0.0885
 4812TIP3   OH235926   2.989   5.266  13.529  0.1774 -0.1547 -0.0565
 4812TIP3    H135927   3.063   5.243  13.585 -0.0504  0.8176  0.6722
 4812TIP3    H235928   2.957   5.182  13.495  1.5079 -0.5979 -0.2658
 4813TIP3   OH235929   5.577   6.380   1.926  0.1718  0.3040  0.2461
 4813TIP3    H135930   5.669   6.405   1.939 -0.2611  1.5038  1.2147
 4813TIP3    H235931   5.531   6.418   2.001 -0.7858 -2.4036  1.1365
 4814TIP3   OH235932   0.552   2.578   1.280  0.5230 -0.1631  0.2275
 4814TIP3    H135933   0.463   2.546   1.289  0.3047 -0.4579 -2.2394
 4814TIP3    H235934   0.604   2.500   1.261  0.6392  0.3805 -1.9405
 4815TIP3   OH235935   4.798   3.461  15.143 -0.7298 -0.2338 -0.6554
 4815TIP3    H135936   4.722   3.405  15.160 -2.9705  3.2377  2.1893
 4815TIP3    H235937   4.777   3.543  15.186  3.0400  2.3225 -3.1108
 4816TIP3   OH235938   5.292   5.871   0.843  0.1256 -0.1619 -0.2347
 4816TIP3    H135939   5.314   5.957   0.806 -1.1635 -0.4999 -1.9539
 4816TIP3    H235940   5.349   5.810   0.796 -1.9962 -0.6738 -2.3185
 4817TIP3   OH235941   5.000   3.543   1.158 -0.0388  0.1966  0.4601
 4817TIP3    H135942   5.011   3.588   1.075 -0.1769  1.0260  0.8795
 4817TIP3    H235943   4.915   3.501   1.152  0.9340 -1.7585 -0.7248
 4818TIP3   OH235944   4.190   3.554  14.135  0.5567  0.2073  0.0454
 4818TIP3    H135945   4.114   3.498  14.147 -0.1308  1.0721 -0.2124
 4818TIP3    H235946   4.213   3.545  14.043 -1.0315  2.1518 -0.6041
 4819TIP3   OH235947   2.341   3.046   3.691  0.2594 -0.5463  0.3463
 4819TIP3    H135948   2.403   3.106   3.733 -0.3466  0.9037 -0.7456
 4819TIP3    H235949   2.255   3.082   3.712 -0.1148 -0.9395 -0.4720
 4820TIP3   OH235950   1.166   0.049   2.177 -0.0461 -0.0068 -0.0647
 4820TIP3    H135951   1.136   0.060   2.087 -0.6820 -2.5574 -0.2490
 4820TIP3    H235952   1.257   0.019   2.169 -0.9379 -3.0478 -0.1139
 4821TIP3   OH235953   4.627   5.685  16.318 -0.4993  0.3213  0.3886
 4821TIP3    H135954   4.672   5.691  16.234  0.2441 -0.5561  0.7130
 4821TIP3    H235955   4.555   5.624  16.303 -1.3316  1.3624 -0.0040
 4822TIP3   OH235956   4.732   6.759  16.745  0.5272 -0.4614 -0.3720
 4822TIP3    H135957   4.642   6.792  16.756 -0.0413 -2.2135  0.5006
 4822TIP3    H235958   4.724   6.686  16.683  0.8294 -2.5535  1.9365
 4823TIP3   OH235959   0.807   6.517   1.258  0.3357  0.4502 -0.0313
 4823TIP3    H135960   0.827   6.480   1.172  2.2954  1.3251 -0.0162
 4823TIP3    H235961   0.847   6.456   1.320  0.1116  0.5260  0.1883
 4824TIP3   OH235962   4.058   5.599  13.529 -0.0809 -0.5641  0.3729
 4824TIP3    H135963   4.096   5.513  13.545 -0.6995 -0.9690 -0.2324
 4824TIP3    H235964   4.095   5.626  13.445 -1.1688 -1.0074 -0.2695
 4825TIP3   OH235965   0.896   4.130   2.814  0.2088  0.1642 -0.1834
 4825TIP3    H135966   0.990   4.142   2.799  1.0845 -3.3726  1.4196
 4825TIP3    H235967   0.865   4.217   2.840  2.3034  2.1659 -3.5207
 4826TIP3   OH235968   1.524   0.845   2.459  0.2593 -0.5730  0.1400
 4826TIP3    H135969   1.609   0.884   2.438 -1.0277  2.3255 -0.1695
 4826TIP3    H235970   1.531   0.755   2.428  2.3478  0.2819 -2.2429
 4827TIP3   OH235971   0.504   6.393   3.578  0.4461  0.0800  0.2085
 4827TIP3    H135972   0.463   6.459   3.523 -0.0589 -1.2682 -1.1048
 4827TIP3    H235973   0.560   6.443   3.638  0.5341  1.6489 -1.1048
 4828TIP3   OH235974   3.932   1.698   5.894  0.1613  0.2802  0.0124
 4828TIP3    H135975   3.933   1.753   5.973  1.2804 -0.6061  0.6459
 4828TIP3    H235976   3.910   1.610   5.926 -2.2401  0.3912 -1.0638
 4829TIP3   OH235977   1.101   2.241   0.676  0.8212  0.3332 -0.4180
 4829TIP3    H135978   1.193   2.248   0.652  1.3724 -1.1550  1.1016
 4829TIP3    H235979   1.073   2.157   0.641  0.4347  0.1430  0.3289
 4830TIP3   OH235980   3.938   0.642   4.979  0.2046 -0.0436  0.0629
 4830TIP3    H135981   3.879   0.644   4.904  0.9375 -2.0135 -0.6187
 4830TIP3    H235982   3.893   0.589   5.044  0.2123  0.4339  0.4665
 4831TIP3   OH235983   3.781   3.117  10.680  0.3035 -0.4983  0.0357
 4831TIP3    H135984   3.854   3.171  10.711  0.4359 -0.9747  0.5849
 4831TIP3    H235985   3.814   3.073  10.602  1.2424 -2.0704  1.2574
 4832TIP3   OH235986   2.424   5.601  12.119  0.3242  0.7487 -0.1644
 4832TIP3    H135987   2.430   5.509  12.092  1.1600  0.3103  1.3321
 4832TIP3    H235988   2.495   5.644  12.073  0.3360  0.4940 -0.3872
 4833TIP3   OH235989   4.568   0.692  11.322 -0.1078  0.1332  0.5873
 4833TIP3    H135990   4.638   0.721  11.381  1.1561 -0.5073 -0.5252
 4833TIP3    H235991   4.605   0.704  11.234 -1.4482 -0.1442 -0.0342
 4834TIP3   OH235992   0.347   6.104   3.959  0.1160  0.8591  0.2418
 4834TIP3    H135993   0.285   6.141   4.022  1.0599  3.1108 -0.0821
 4834TIP3    H235994   0.431   6.101   4.005  0.7761  2.3441 -0.7930
 4835TIP3   OH235995   2.196   6.584  11.435 -0.7190  0.1760  0.0805
 4835TIP3    H135996   2.274   6.600  11.381  0.4522 -0.9192  1.3387
 4835TIP3    H235997   2.220   6.620  11.521 -0.6043 -2.2550  1.1360
 4836TIP3   OH235998   1.575   5.417   1.101  0.5025 -0.0590 -0.0440
 4836TIP3    H135999   1.585   5.498   1.050  0.0279 -0.4647 -0.7886
 4836TIP3    H236000   1.633   5.354   1.058 -1.0421 -0.8433 -1.0359
 4837TIP3   OH236001   1.779   5.397  16.090 -0.3270 -0.2521 -0.5468
 4837TIP3    H136002   1.754   5.353  16.009 -2.4331 -0.8058  0.3381
 4837TIP3    H236003   1.746   5.341  16.159  1.4678  0.1900  0.7459
 4838TIP3   OH236004   2.930   4.079  12.498 -0.5986 -0.0192  0.1248
 4838TIP3    H136005   2.848   4.035  12.520 -0.4031  0.3692  1.7529
 4838TIP3    H236006   2.983   4.012  12.455 -0.9984 -0.8569  0.9181
 4839TIP3   OH236007   5.320   0.494  13.320  0.0399 -0.2845  0.0335
 4839TIP3    H136008   5.342   0.418  13.374  2.3784  0.5396  0.3623
 4839TIP3    H236009   5.333   0.464  13.230 -0.2461 -0.6092  0.0981
 4840TIP3   OH236010   5.420   5.909  11.105  0.1290  0.0772 -0.1534
 4840TIP3    H136011   5.374   5.835  11.064 -0.1162  0.4173 -0.5015
 4840TIP3    H236012   5.476   5.868  11.171  0.3915 -0.4719 -0.7014
 4841TIP3   OH236013   0.777   0.160   3.200  1.4939 -0.1848 -0.3557
 4841TIP3    H136014   0.690   0.195   3.180  1.4446  0.0845  0.2933
 4841TIP3    H236015   0.813   0.222   3.264  1.0841 -1.7581  1.4714
 4842TIP3   OH236016   0.016   6.511   1.932  0.0778 -0.2258 -0.1598
 4842TIP3    H136017   0.099   6.555   1.913  0.3884 -0.1503  1.2753
 4842TIP3    H236018  -0.048   6.555   1.875  0.2171  2.6732  1.7302
 4843TIP3   OH236019   4.597   6.079  12.477 -0.0025  0.4591 -0.8020
 4843TIP3    H136020   4.580   5.985  12.479  1.5496  0.1596  0.5863
 4843TIP3    H236021   4.573   6.109  12.565 -0.3510  1.3562 -1.1883
 4844TIP3   OH236022   6.659   1.647   5.321 -0.6477  0.6515  0.5969
 4844TIP3    H136023   6.726   1.715   5.333 -0.3384  0.5775 -0.5546
 4844TIP3    H236024   6.699   1.585   5.259 -1.3079 -0.0569  0.8704
 4845TIP3   OH236025   2.953   4.118   4.261  0.0676 -1.0708 -0.2616
 4845TIP3    H136026   2.992   4.190   4.212  1.4122 -2.6097 -1.5687
 4845TIP3    H236027   2.989   4.126   4.349 -3.0859  2.2756  0.9663
 4846TIP3   OH236028   0.328   1.714   4.149  0.0408 -0.3390 -0.1747
 4846TIP3    H136029   0.246   1.675   4.117  0.7345 -1.0882 -1.0584
 4846TIP3    H236030   0.384   1.720   4.072  0.3559  1.4314  0.1520
 4847TIP3   OH236031   2.680   3.303   4.417 -0.4714 -0.1000  0.1223
 4847TIP3    H136032   2.680   3.378   4.476 -2.2458 -0.4973  0.6896
 4847TIP3    H236033   2.589   3.275   4.413 -0.1024 -1.2431 -1.3584
 4848TIP3   OH236034   3.236   5.521   2.321 -0.2510 -0.0108 -0.4384
 4848TIP3    H136035   3.228   5.520   2.416  0.4091 -0.9867 -0.3797
 4848TIP3    H236036   3.248   5.614   2.299  1.7082  0.0390  0.6290
 4849TIP3   OH236037   4.910   3.711   0.502  0.3451  0.0804 -0.4019
 4849TIP3    H136038   4.860   3.751   0.573  2.6906  4.3163 -0.7983
 4849TIP3    H236039   4.987   3.674   0.544  0.6300  0.5867 -0.4601
 4850TIP3   OH236040   4.091   0.477   0.181  0.2456  0.1969  0.4341
 4850TIP3    H136041   4.078   0.404   0.121  0.9756  0.6778 -0.3348
 4850TIP3    H236042   4.185   0.492   0.180  0.2851  0.1103  1.8440
 4851TIP3   OH236043   0.798   0.802   0.253  0.3679  0.0382 -0.2745
 4851TIP3    H136044   0.747   0.833   0.327  0.7104  2.5521 -1.0143
 4851TIP3    H236045   0.800   0.707   0.264  0.3382  0.2931  2.8462
 4852TIP3   OH236046   1.885   4.466   3.686 -0.3861 -0.2003  0.6504
 4852TIP3    H136047   1.956   4.528   3.699 -0.3401  1.1159 -4.0053
 4852TIP3    H236048   1.928   4.383   3.664 -0.1969  0.1956 -0.6011
 4853TIP3   OH236049   5.131   1.774  11.203  0.1720  0.6588  0.1760
 4853TIP3    H136050   5.217   1.747  11.169 -0.9212  1.0877 -3.3639
 4853TIP3    H236051   5.134   1.869  11.204 -0.4287  0.6951 -0.5511
 4854TIP3   OH236052   4.335   0.559  13.359  0.0702  0.3094  0.7342
 4854TIP3    H136053   4.315   0.617  13.285  0.2571 -0.2206  0.2652
 4854TIP3    H236054   4.349   0.619  13.432 -0.6196  0.8197  0.4680
 4855TIP3   OH236055   1.540   4.901   2.941  0.3509 -0.7141 -0.3726
 4855TIP3    H136056   1.616   4.907   2.883 -0.0475 -0.4499 -0.8838
 4855TIP3    H236057   1.503   4.990   2.940 -1.3463 -1.3648 -2.0833
 4856TIP3   OH236058   5.679   2.879   2.629  0.2074 -0.1809  0.5086
 4856TIP3    H136059   5.665   2.955   2.572  0.1663 -1.1079 -0.7368
 4856TIP3    H236060   5.771   2.886   2.655  0.0276  0.6585  0.9816
 4857TIP3   OH236061   5.864   4.957   3.033 -0.6369  0.4317  0.3211
 4857TIP3    H136062   5.883   4.966   3.127  0.3642  0.4859  0.1247
 4857TIP3    H236063   5.850   5.046   3.003  1.8095  0.7616 -0.1067
 4858TIP3   OH236064   5.605   5.606  14.839 -0.2481  0.2002  0.1777
 4858TIP3    H136065   5.529   5.549  14.851 -0.0722 -0.1379 -0.2638
 4858TIP3    H236066   5.595   5.640  14.750  0.0528  0.2484  0.1625
 4859TIP3   OH236067   3.021   4.052   3.790 -0.0093  0.4496 -0.5032
 4859TIP3    H136068   3.037   4.038   3.697 -0.5731  0.0752 -0.5501
 4859TIP3    H236069   2.990   4.142   3.796 -0.8067  0.2093 -0.8005
 4860TIP3   OH236070   1.431   3.909  13.051 -0.4344  0.5087  0.1867
 4860TIP3    H136071   1.439   3.895  12.957 -0.7195  0.3238  0.1886
 4860TIP3    H236072   1.342   3.943  13.063 -1.1158 -1.2806  0.5855
 4861TIP3   OH236073   5.765   3.951  16.191 -0.9951  0.1463 -0.5659
 4861TIP3    H136074   5.855   3.966  16.163 -0.6074  0.4292  0.7989
 4861TIP3    H236075   5.771   3.930  16.284 -2.4929  1.9844  0.0161
 4862TIP3   OH236076   3.796   4.674  16.892 -0.2992 -1.2216 -0.2133
 4862TIP3    H136077   3.855   4.653  16.964 -1.0436  1.5754  1.3582
 4862TIP3    H236078   3.715   4.702  16.935 -1.9771 -2.5573 -2.2606
 4863TIP3   OH236079   3.158   5.284   1.774 -0.4090  0.0163 -0.1858
 4863TIP3    H136080   3.227   5.344   1.801  0.0366 -0.6692  0.2509
 4863TIP3    H236081   3.114   5.260   1.855  1.8674 -3.1999  0.2837
 4864TIP3   OH236082   3.308   2.934  10.290 -0.2590 -0.4489 -0.0270
 4864TIP3    H136083   3.334   2.984  10.367 -1.2620  0.9216 -0.5257
 4864TIP3    H236084   3.212   2.939  10.290 -0.2863 -0.6709 -1.1780
 4865TIP3   OH236085   2.123   5.718  14.272  0.4015  0.5505 -0.3486
 4865TIP3    H136086   2.093   5.635  14.309  0.0433  0.5084 -0.7235
 4865TIP3    H236087   2.047   5.776  14.277  0.6284  0.8327 -0.1539
 4866TIP3   OH236088   6.525   6.145   0.159 -0.1337 -0.2886 -0.0036
 4866TIP3    H136089   6.507   6.237   0.139  1.0318 -0.2770 -1.1207
 4866TIP3    H236090   6.474   6.096   0.094 -1.2020 -0.4878  0.9402
 4867TIP3   OH236091   2.743   5.644   4.324 -0.2769 -0.0247 -0.1316
 4867TIP3    H136092   2.838   5.651   4.336 -0.2641  2.1106 -0.9572
 4867TIP3    H236093   2.715   5.734   4.309 -2.0959 -0.8765 -2.3744
 4868TIP3   OH236094   6.076   3.201  16.515  0.2976 -0.6739 -0.2314
 4868TIP3    H136095   6.098   3.292  16.498  0.4928 -1.0873 -2.6216
 4868TIP3    H236096   6.160   3.157  16.528  0.1746 -0.4560  1.5431
 4869TIP3   OH236097   4.630   1.265   0.479 -0.1074  0.0964  0.1830
 4869TIP3    H136098   4.554   1.206   0.478  1.0141 -1.4314 -1.4985
 4869TIP3    H236099   4.596   1.347   0.515 -2.1661 -1.0189  0.9494
 4870TIP3   OH236100   4.731   3.292   2.475  0.2963  0.6421 -0.0925
 4870TIP3    H136101   4.691   3.271   2.559 -2.2546 -0.6439 -1.5118
 4870TIP3    H236102   4.790   3.220   2.458  1.1365  1.1096  0.7301
 4871TIP3   OH236103   1.596   6.637   5.265  0.6118  0.5561  0.3360
 4871TIP3    H136104   1.577   6.728   5.246  2.1087  0.6310 -1.0444
 4871TIP3    H236105   1.552   6.588   5.196  2.3542  0.4942 -0.7878
 4872TIP3   OH236106   1.906   3.897   4.652 -0.2484 -0.0630  0.1193
 4872TIP3    H136107   1.981   3.940   4.692  0.3198  1.2338 -2.1720
 4872TIP3    H236108   1.839   3.965   4.648 -0.7420 -0.5441  0.0366
 4873TIP3   OH236109   2.840   0.208  15.190 -0.3106 -0.0863  0.1353
 4873TIP3    H136110   2.871   0.150  15.121  1.2853  1.1992 -0.3004
 4873TIP3    H236111   2.893   0.288  15.179 -1.4636  0.9213  1.5520
 4874TIP3   OH236112   4.779   5.174   5.899 -0.5684 -0.3145 -0.0729
 4874TIP3    H136113   4.739   5.144   5.981  1.9528 -0.1908  1.3104
 4874TIP3    H236114   4.817   5.259   5.920 -0.8150  0.2427 -1.7268
 4875TIP3   OH236115   4.329   5.631  16.574  0.0528 -0.2082  0.5025
 4875TIP3    H136116   4.310   5.700  16.638 -1.4087 -1.0812  1.0777
 4875TIP3    H236117   4.277   5.655  16.497 -0.8218 -0.8506  0.8638
 4876TIP3   OH236118   3.017   6.339   2.292 -0.4735  0.0820 -0.1912
 4876TIP3    H136119   3.107   6.364   2.313 -0.6970  0.8189 -0.0701
 4876TIP3    H236120   3.025   6.278   2.219 -0.0047  2.6906 -2.5030
 4877TIP3   OH236121   2.406   1.373   5.267  0.3379  0.0091  0.4253
 4877TIP3    H136122   2.448   1.447   5.311  0.0314  0.3432  0.1669
 4877TIP3    H236123   2.334   1.348   5.324  0.7093 -0.3828  0.7306
 4878TIP3   OH236124   2.858   4.136   6.357  0.4926 -0.3532  0.2652
 4878TIP3    H136125   2.915   4.194   6.408 -0.1751  0.2126  0.3983
 4878TIP3    H236126   2.906   4.119   6.276  1.8341 -1.7405  1.2930
 4879TIP3   OH236127   5.633   2.137   4.463 -0.5558  0.6490  0.0627
 4879TIP3    H136128   5.704   2.140   4.398  0.0756  1.4104  0.7630
 4879TIP3    H236129   5.568   2.077   4.425 -0.2111  1.0782 -1.2748
 4880TIP3   OH236130   4.514   2.542   1.066 -0.4350 -0.0501 -0.3550
 4880TIP3    H136131   4.595   2.497   1.090  1.0156  3.0747  1.2871
 4880TIP3    H236132   4.482   2.579   1.149 -2.6476  0.1712 -1.2440
 4881TIP3   OH236133   4.667   5.354   4.596 -0.1725 -0.0586 -0.1168
 4881TIP3    H136134   4.667   5.412   4.519 -1.5754  0.3254  0.1434
 4881TIP3    H236135   4.575   5.349   4.622  0.0834 -1.4826  0.5768
 4882TIP3   OH236136   0.366   5.482   5.862  0.4655  0.5243 -0.1007
 4882TIP3    H136137   0.436   5.474   5.927  1.0711  1.1157 -0.6640
 4882TIP3    H236138   0.341   5.574   5.864  1.4323  0.8594 -1.6397
 4883TIP3   OH236139   0.569   4.720  12.208  0.5535  0.0372  0.1338
 4883TIP3    H136140   0.587   4.681  12.294  1.0620 -0.8606 -0.3553
 4883TIP3    H236141   0.656   4.740  12.174  0.3801 -0.0594 -0.3619
 4884TIP3   OH236142   2.681   1.459  15.103 -0.3439  0.0344 -0.2649
 4884TIP3    H136143   2.711   1.371  15.128  1.5151  0.5612 -0.5090
 4884TIP3    H236144   2.694   1.463  15.009 -0.1788  0.6552 -0.2178
 4885TIP3   OH236145   1.381   0.711  12.115 -0.0365  0.0087 -0.0251
 4885TIP3    H136146   1.308   0.659  12.081  1.2145 -1.8692  0.0342
 4885TIP3    H236147   1.371   0.707  12.210  1.1380 -1.9088  0.0863
 4886TIP3   OH236148   3.055   5.356  16.726 -0.0361 -0.2106 -0.6101
 4886TIP3    H136149   3.032   5.405  16.647  1.4749  0.9195 -0.3840
 4886TIP3    H236150   3.129   5.404  16.764 -0.6238 -0.8151  1.4239
 4887TIP3   OH236151   1.118   5.449   2.028  0.0930 -0.1871  0.1250
 4887TIP3    H136152   1.149   5.513   1.963  1.8554 -0.8247  0.2924
 4887TIP3    H236153   1.190   5.441   2.090 -1.8314  1.0186  2.7065
 4888TIP3   OH236154   5.780   4.847   4.408 -0.4948  0.0573  0.2519
 4888TIP3    H136155   5.875   4.836   4.400 -0.4423  0.3960  0.3746
 4888TIP3    H236156   5.747   4.760   4.429 -0.1611  0.0294  0.6632
 4889TIP3   OH236157   1.343   4.866   4.182 -0.3462  0.0790 -0.3564
 4889TIP3    H136158   1.415   4.827   4.133 -0.1667  0.7957 -0.6798
 4889TIP3    H236159   1.267   4.811   4.161  0.0162 -0.4364 -0.3373
 4890TIP3   OH236160   0.223   5.891  14.876  0.3067 -0.2409 -0.5984
 4890TIP3    H136161   0.284   5.955  14.912  1.0345 -1.1390 -0.2016
 4890TIP3    H236162   0.158   5.878  14.946 -1.6876  2.3453 -1.8058
 4891TIP3   OH236163   0.523   2.302   2.388 -0.1205  0.6430 -0.0332
 4891TIP3    H136164   0.498   2.307   2.296  1.1881 -0.1073 -0.4513
 4891TIP3    H236165   0.463   2.238   2.426  0.0337  0.1489 -0.6162
 4892TIP3   OH236166   0.174   4.137   0.347 -0.1756 -0.8670  0.6333
 4892TIP3    H136167   0.263   4.157   0.321  0.1983 -3.6683 -0.6032
 4892TIP3    H236168   0.182   4.105   0.437  0.0368 -0.9000  0.6028
 4893TIP3   OH236169   1.542   1.754   0.625  0.0192 -0.1924 -0.0151
 4893TIP3    H136170   1.506   1.738   0.538  1.1242  4.0789 -1.5422
 4893TIP3    H236171   1.466   1.754   0.683 -0.9208 -1.7728 -1.1719
 4894TIP3   OH236172   3.255   3.002   0.478  0.1834 -0.3140  0.1461
 4894TIP3    H136173   3.185   2.946   0.445  0.6233 -1.2324  0.7299
 4894TIP3    H236174   3.255   2.988   0.573  0.5946  0.3388  0.2495
 4895TIP3   OH236175   5.242   2.531  13.232 -0.1902 -0.0025 -0.4492
 4895TIP3    H136176   5.247   2.535  13.328  0.3909 -2.4977 -0.3061
 4895TIP3    H236177   5.298   2.603  13.203  0.4201  0.2042  1.0953
 4896TIP3   OH236178   5.020   5.381  12.024 -0.2101  0.9023  0.0094
 4896TIP3    H136179   5.100   5.328  12.024 -1.2548 -0.7687 -0.0337
 4896TIP3    H236180   5.031   5.441  11.950  0.5971  0.0347 -0.6040
 4897TIP3   OH236181   6.712   2.583  11.623 -0.7495  0.0963  0.0687
 4897TIP3    H136182   6.643   2.561  11.561  0.1680 -0.5366 -0.7727
 4897TIP3    H236183   6.686   2.541  11.705 -0.5702 -1.5677 -0.6847
 4898TIP3   OH236184   6.018   0.350   4.580 -0.1480  0.1046  0.3662
 4898TIP3    H136185   5.995   0.259   4.563 -0.4944 -0.1001  1.8384
 4898TIP3    H236186   6.072   0.375   4.505 -0.9517 -0.9666 -0.6066
 4899TIP3   OH236187   4.595   3.481   0.933  0.4357  0.6651  0.1747
 4899TIP3    H136188   4.525   3.546   0.942 -0.0753  0.1192  0.1629
 4899TIP3    H236189   4.664   3.527   0.884  0.1790  1.2704  0.3658
 4900TIP3   OH236190   3.610   1.287  11.155  0.1970 -0.1198  0.0227
 4900TIP3    H136191   3.622   1.379  11.133 -0.5814  0.0282  0.1978
 4900TIP3    H236192   3.672   1.241  11.098 -0.0396  0.4427 -0.7066
 4901TIP3   OH236193   4.047   5.653   0.591 -0.1606 -0.2757  0.5641
 4901TIP3    H136194   4.040   5.558   0.603 -0.9668 -0.5451 -1.6157
 4901TIP3    H236195   3.959   5.686   0.609 -0.1983 -0.1152  0.1002
 4902TIP3   OH236196   1.212   5.646   1.846  0.0007 -0.1861 -0.0832
 4902TIP3    H136197   1.222   5.739   1.826 -0.9267  0.1138  0.7658
 4902TIP3    H236198   1.209   5.604   1.761 -1.4395  0.7841 -0.5606
 4903TIP3   OH236199   4.569   5.488  16.667  0.3206 -0.5831 -0.7228
 4903TIP3    H136200   4.476   5.508  16.669  0.4989  0.3158 -0.8944
 4903TIP3    H236201   4.609   5.564  16.625  1.5218  0.7324  2.4801
 4904TIP3   OH236202   0.700   6.559  13.037 -0.1666  0.1259  0.4657
 4904TIP3    H136203   0.675   6.594  12.952 -0.3715  2.9070  1.5585
 4904TIP3    H236204   0.622   6.571  13.092  0.5215  0.0708  1.4937
 4905TIP3   OH236205   6.060   6.180  16.386  0.7035  0.6673 -0.1757
 4905TIP3    H136206   6.150   6.207  16.366  1.6118 -3.1684 -2.2436
 4905TIP3    H236207   6.067   6.130  16.466  0.5407 -0.0665 -0.6120
 4906TIP3   OH236208   1.852   6.153   5.912 -0.0609  0.0391 -0.1526
 4906TIP3    H136209   1.891   6.084   5.858  2.4171  2.3658 -1.5568
 4906TIP3    H236210   1.887   6.137   6.000 -0.7419 -1.3175 -0.1028
 4907TIP3   OH236211   0.206   3.635   1.129  0.1991  0.2761 -0.1164
 4907TIP3    H136212   0.267   3.692   1.083  2.5334 -1.0215  1.2181
 4907TIP3    H236213   0.186   3.681   1.211  0.3551  0.1404 -0.0027
 4908TIP3   OH236214   5.357   1.824   2.351  0.8699  0.1497  0.3750
 4908TIP3    H136215   5.421   1.823   2.422 -2.4176  2.9627  3.8292
 4908TIP3    H236216   5.319   1.737   2.351  1.1045  0.0145  2.0060
 4909TIP3   OH236217   5.016   2.906   4.078 -0.0693  0.0944  0.6391
 4909TIP3    H136218   5.031   2.814   4.100 -1.1180 -0.2654 -0.0720
 4909TIP3    H236219   5.044   2.913   3.986  0.3205  0.5670  0.7933
 4910TIP3   OH236220   4.410   1.460   3.760  0.6859  0.2096 -0.1161
 4910TIP3    H136221   4.339   1.449   3.697  1.6228  2.2037 -1.6135
 4910TIP3    H236222   4.366   1.477   3.844 -0.6242  1.5303 -1.0281
 4911TIP3   OH236223   5.438   4.357  15.073 -0.4582 -0.2484  0.1686
 4911TIP3    H136224   5.442   4.293  15.003  1.3096 -0.7815  0.7178
 4911TIP3    H236225   5.506   4.421  15.053 -0.1328 -0.2366  1.2172
 4912TIP3   OH236226   0.932   0.086  10.994 -0.7327  0.2848  0.4050
 4912TIP3    H136227   0.855   0.074  11.050 -0.6351 -1.0941  0.2801
 4912TIP3    H236228   0.920   0.022  10.923  1.0809 -0.7970  1.0042
 4913TIP3   OH236229   2.943   6.031  15.032  0.1818 -0.0054 -0.1113
 4913TIP3    H136230   2.899   5.962  14.983  1.0762  0.6998 -1.9981
 4913TIP3    H236231   2.879   6.101  15.038 -0.5285 -0.7316  1.3084
 4914TIP3   OH236232   2.463   4.050   1.486 -0.6709 -0.1339 -0.0156
 4914TIP3    H136233   2.513   4.102   1.422  0.4493 -2.1425 -0.8599
 4914TIP3    H236234   2.430   4.115   1.548  2.0576  1.4523 -0.0438
 4915TIP3   OH236235   3.935   5.452   4.096  0.4344 -0.4335  0.2222
 4915TIP3    H136236   3.863   5.507   4.065  0.3004 -0.7036  0.0457
 4915TIP3    H236237   4.001   5.513   4.127 -0.8307 -0.1744  2.6609
 4916TIP3   OH236238   6.787   6.134  16.064 -0.2029  0.4477 -0.1264
 4916TIP3    H136239   6.833   6.170  16.140  0.4476 -1.0661  0.2353
 4916TIP3    H236240   6.846   6.150  15.990  0.1315  0.0405  0.0489
 4917TIP3   OH236241   4.465   1.891  13.015 -0.1041 -0.7413 -0.3167
 4917TIP3    H136242   4.524   1.950  13.061 -2.1916  0.4110  1.0300
 4917TIP3    H236243   4.503   1.883  12.927  1.9763 -0.0461  0.4418
 4918TIP3   OH236244   3.878   3.879  10.864  0.6964 -0.3876  0.1119
 4918TIP3    H136245   3.842   3.791  10.876  1.5423 -0.5727  1.5041
 4918TIP3    H236246   3.816   3.923  10.807 -0.4048 -1.4903  0.4226
 4919TIP3   OH236247   4.834   2.955  14.869 -0.6188  0.1725 -0.2223
 4919TIP3    H136248   4.875   2.887  14.921 -0.1869 -0.5452 -1.4746
 4919TIP3    H236249   4.759   2.912  14.828  0.4608  0.0270 -2.1356
 4920TIP3   OH236250   3.612   3.969  12.561  0.5250  0.0447  0.4676
 4920TIP3    H136251   3.646   4.015  12.638  0.5936 -1.6314  1.4977
 4920TIP3    H236252   3.688   3.924  12.524 -0.1397 -2.3769  1.8140
 4921TIP3   OH236253   3.308   2.516   1.056 -0.1396  0.0399 -0.0216
 4921TIP3    H136254   3.267   2.536   0.972 -0.6206 -0.0662  0.1805
 4921TIP3    H236255   3.373   2.448   1.035 -0.5683 -0.3089 -0.2395
 4922TIP3   OH236256   0.176   2.939   0.568 -0.2192  0.2498  0.1436
 4922TIP3    H136257   0.245   2.958   0.632  0.4141  1.9988 -0.9947
 4922TIP3    H236258   0.184   2.845   0.552  1.8934  0.3861  0.1153
 4923TIP3   OH236259   0.030   3.441   0.471  0.3666 -0.2618 -0.6220
 4923TIP3    H136260   0.003   3.412   0.384  2.1635 -2.3438 -0.5615
 4923TIP3    H236261   0.090   3.514   0.455 -2.9083  2.7172 -0.8281
 4924TIP3   OH236262   2.456   2.393  15.637 -0.1726 -0.1742 -0.1138
 4924TIP3    H136263   2.478   2.484  15.620  0.4769 -0.4163 -0.5819
 4924TIP3    H236264   2.538   2.352  15.664 -1.0633  0.1334  3.5480
 4925TIP3   OH236265   1.626   0.959  13.246  0.4936  0.4691  0.0398
 4925TIP3    H136266   1.638   0.899  13.171 -2.4427  0.2513 -0.3629
 4925TIP3    H236267   1.609   0.901  13.320 -0.3777  0.7549  0.0669
 4926TIP3   OH236268   6.546   6.385   4.526  0.2510  0.3290 -0.5093
 4926TIP3    H136269   6.554   6.343   4.612  0.6811 -0.2878 -0.8483
 4926TIP3    H236270   6.610   6.456   4.529 -1.6930  2.1831  0.7330
 4927TIP3   OH236271   3.638   4.558  15.735 -0.1011 -0.2073 -0.0614
 4927TIP3    H136272   3.714   4.506  15.708  0.1555 -0.1503  0.5531
 4927TIP3    H236273   3.602   4.511  15.809  1.2394  1.4276  1.7353
 4928TIP3   OH236274   6.581   0.630  16.750  0.1889 -0.3270  0.4079
 4928TIP3    H136275   6.489   0.645  16.771  0.3622  1.8912 -0.1440
 4928TIP3    H236276   6.625   0.630  16.836  0.0306  1.8225  0.5445
 4929TIP3   OH236277   4.780   5.864  12.048  0.0958 -0.1929 -0.1801
 4929TIP3    H136278   4.859   5.829  12.090 -1.5606 -0.7197  2.7708
 4929TIP3    H236279   4.733   5.786  12.018 -1.2315 -0.2941  1.9340
 4930TIP3   OH236280   3.317   4.988   3.016 -0.2193  0.4347  0.0787
 4930TIP3    H136281   3.290   5.050   2.948  1.4454  1.7850  0.5633
 4930TIP3    H236282   3.323   5.041   3.095  1.1840 -0.3448  0.5238
 4931TIP3   OH236283   3.314   3.431  12.928  0.0358 -0.0044  0.1743
 4931TIP3    H136284   3.272   3.362  12.980 -1.2177 -0.3763 -1.2551
 4931TIP3    H236285   3.255   3.506  12.937 -0.8679 -0.4571 -1.6638
 4932TIP3   OH236286   6.587   4.497  14.357  0.5306 -0.3308 -0.0077
 4932TIP3    H136287   6.585   4.584  14.397 -0.3828 -0.5419  0.4330
 4932TIP3    H236288   6.540   4.507  14.274 -0.8677 -0.7062  0.7118
 4933TIP3   OH236289   3.483   5.778   5.729  0.3244 -0.2250 -0.0209
 4933TIP3    H136290   3.540   5.711   5.768  0.9834  0.0881 -0.4397
 4933TIP3    H236291   3.398   5.762   5.770  0.9366 -0.0457  1.4109
 4934TIP3   OH236292   2.172   3.469   3.271  0.3190  0.4169 -0.4547
 4934TIP3    H136293   2.200   3.512   3.352  1.1500  0.5413 -0.7962
 4934TIP3    H236294   2.195   3.532   3.202  0.9641 -0.3060 -0.9083
 4935TIP3   OH236295   2.831   0.396  12.027 -0.3977 -0.0419 -0.6712
 4935TIP3    H136296   2.822   0.352  12.112  1.3805 -0.8270 -0.8406
 4935TIP3    H236297   2.748   0.378  11.982 -0.7376 -0.9842  0.2836
 4936TIP3   OH236298   5.866   1.671   4.222 -0.0068 -0.5426 -0.2538
 4936TIP3    H136299   5.831   1.711   4.302 -0.1369 -3.4774  1.3310
 4936TIP3    H236300   5.802   1.692   4.154 -0.2398  1.4807  0.5456
 4937TIP3   OH236301   2.799   5.996  11.746 -0.4428  0.3897  0.4348
 4937TIP3    H136302   2.735   6.017  11.678 -1.4995  1.6100  1.7368
 4937TIP3    H236303   2.832   6.081  11.775  0.6233 -0.1553  0.8727
 4938TIP3   OH236304   4.434   3.599   4.853  0.0738 -0.1785 -0.4801
 4938TIP3    H136305   4.361   3.658   4.869  0.5240  0.1733  0.4048
 4938TIP3    H236306   4.408   3.517   4.894 -0.1850 -0.3161 -0.9247
 4939TIP3   OH236307   6.354   1.396   2.407  0.0652 -0.0106 -0.1815
 4939TIP3    H136308   6.328   1.459   2.474 -0.6614  0.4580 -0.8843
 4939TIP3    H236309   6.323   1.312   2.439 -2.4063  0.5216 -0.9727
 4940TIP3   OH236310   4.806   0.932   3.224 -0.4091  0.1909 -1.3698
 4940TIP3    H136311   4.800   0.869   3.297 -0.6345  2.3350  0.5841
 4940TIP3    H236312   4.893   0.970   3.233 -1.2775  2.1455 -0.6833
 4941TIP3   OH236313   1.623   5.405  13.000  0.1635 -0.2799 -0.3244
 4941TIP3    H136314   1.629   5.475  12.936 -0.1210 -1.1479 -1.3200
 4941TIP3    H236315   1.621   5.450  13.085 -0.8847  0.9636 -0.9719
 4942TIP3   OH236316   3.580   2.244  14.692 -0.3788 -0.3269  0.5221
 4942TIP3    H136317   3.627   2.307  14.746  2.2526 -1.5274 -0.1736
 4942TIP3    H236318   3.504   2.218  14.744 -0.7733  2.3074  1.3886
 4943TIP3   OH236319   0.891   3.370   4.124  0.8037 -0.6598  0.4049
 4943TIP3    H136320   0.847   3.395   4.205  1.7366  0.9920  0.4466
 4943TIP3    H236321   0.877   3.445   4.066  2.1550 -0.8128 -0.1320
 4944TIP3   OH236322   4.801   3.040   0.547  0.2870  0.2510  0.7559
 4944TIP3    H136323   4.737   3.030   0.618 -1.2680  1.8669 -0.3311
 4944TIP3    H236324   4.772   2.979   0.479  0.5538  0.2090  0.6764
 4945TIP3   OH236325   1.535   6.088   5.292  0.1582  0.2951  0.5814
 4945TIP3    H136326   1.483   6.061   5.368  0.7888 -2.5566  0.1086
 4945TIP3    H236327   1.609   6.027   5.291 -0.6832 -0.9417 -3.2587
 4946TIP3   OH236328   3.774   5.556  13.513  0.5041  0.1678  0.7791
 4946TIP3    H136329   3.854   5.604  13.534  1.1357 -0.0428 -0.9204
 4946TIP3    H236330   3.703   5.608  13.550  1.2164  2.1257 -0.4606
 4947TIP3   OH236331   5.783   1.687   5.883 -0.1513  0.4534  0.3537
 4947TIP3    H136332   5.845   1.618   5.861 -0.2406  0.6831 -0.6947
 4947TIP3    H236333   5.751   1.664   5.970  2.5555  1.1729  1.6326
 4948TIP3   OH236334   3.593   2.131   1.970 -0.0134 -0.2602  0.1498
 4948TIP3    H136335   3.636   2.051   2.001  0.1388 -0.2387 -0.0059
 4948TIP3    H236336   3.617   2.198   2.034 -0.2481 -0.3674  0.3536
 4949TIP3   OH236337   4.082   3.570   3.500  0.3039  0.2557 -0.3583
 4949TIP3    H136338   4.135   3.496   3.473  0.2908 -0.3131  1.1069
 4949TIP3    H236339   4.052   3.548   3.588  1.0143  2.3695  0.4746
 4950TIP3   OH236340   0.983   2.930   5.304  1.1329  0.1364 -0.4429
 4950TIP3    H136341   0.936   3.006   5.339  1.0072 -0.3622  0.5083
 4950TIP3    H236342   1.075   2.958   5.301  1.5935 -0.5932  2.7819
 4951TIP3   OH236343   2.712   1.323  13.460  0.6816 -0.4379 -0.2692
 4951TIP3    H136344   2.729   1.231  13.482 -0.2555 -2.0237 -4.9827
 4951TIP3    H236345   2.779   1.345  13.396 -0.7185  1.2114 -1.2658
 4952TIP3   OH236346   6.683   1.722   4.759 -0.4406  0.2620  0.2131
 4952TIP3    H136347   6.692   1.748   4.850  1.8370  2.4394 -0.5038
 4952TIP3    H236348   6.637   1.795   4.717  0.9926  0.6285 -0.8257
 4953TIP3   OH236349   4.936   6.705  16.904  0.4971 -0.0504 -0.5678
 4953TIP3    H136350   4.958   6.612  16.898  1.7419  0.1020  1.0424
 4953TIP3    H236351   4.848   6.711  16.866 -0.3254 -2.1606  0.8122
 4954TIP3   OH236352   6.009   4.998  14.975 -0.5708 -0.4708  0.2392
 4954TIP3    H136353   6.026   4.932  15.041 -2.5855  1.7395  3.2548
 4954TIP3    H236354   6.095   5.024  14.943  0.6433 -0.7670  2.9973
 4955TIP3   OH236355   3.690   0.698   1.647 -0.0178 -0.0291  0.1606
 4955TIP3    H136356   3.782   0.673   1.657 -0.2069 -1.1057 -0.5834
 4955TIP3    H236357   3.683   0.783   1.690  0.7406 -1.1289  2.6626
 4956TIP3   OH236358   4.320   4.053   0.878 -0.4779  0.0881  0.3015
 4956TIP3    H136359   4.390   4.116   0.859 -0.8821 -0.4824 -4.3318
 4956TIP3    H236360   4.353   3.970   0.844 -2.3661 -0.7675  0.4461
 4957TIP3   OH236361   4.509   1.591  14.750  0.5708  0.2748  0.4728
 4957TIP3    H136362   4.421   1.623  14.730  0.3788  0.4816  1.5929
 4957TIP3    H236363   4.495   1.501  14.781  0.6226  0.6585  1.6595
 4958TIP3   OH236364   4.331   4.808   0.301 -0.6435 -0.2675  0.5567
 4958TIP3    H136365   4.360   4.789   0.212 -2.1704 -0.1911  0.0057
 4958TIP3    H236366   4.402   4.859   0.339  0.0443 -0.2987 -0.6258
 4959TIP3   OH236367   0.351   6.004   3.145  0.2305 -0.0269 -0.3964
 4959TIP3    H136368   0.347   5.915   3.110  0.0265 -0.3745  0.4981
 4959TIP3    H236369   0.309   5.999   3.230  2.1880  0.4462  0.6693
 4960TIP3   OH236370   2.479   1.301  12.692  0.5580 -0.3600 -0.4129
 4960TIP3    H136371   2.464   1.213  12.727  0.0749  0.1075  0.5947
 4960TIP3    H236372   2.562   1.328  12.731  0.5456 -0.2541 -0.4605
 4961TIP3   OH236373   5.227   3.660  13.194 -0.4170 -0.1432  0.0891
 4961TIP3    H136374   5.296   3.602  13.224 -1.1910 -1.0964  0.0762
 4961TIP3    H236375   5.241   3.742  13.241  0.2152 -0.6043  0.7065
 4962TIP3   OH236376   0.530   0.145   1.172 -0.5042 -0.4851  0.6659
 4962TIP3    H136377   0.555   0.054   1.157  2.2962  0.1156  1.1033
 4962TIP3    H236378   0.567   0.193   1.097 -0.9502  0.4453  1.0223
 4963TIP3   OH236379   0.976   5.287   2.305 -0.4004 -0.6369 -0.3311
 4963TIP3    H136380   1.027   5.262   2.382 -1.7224  1.1831  1.2363
 4963TIP3    H236381   1.013   5.371   2.277 -0.7811 -0.6388 -0.8715
 4964TIP3   OH236382   4.208   3.428  16.697  0.3019 -0.2872 -0.3187
 4964TIP3    H136383   4.123   3.447  16.736 -0.0834  1.4032 -1.8572
 4964TIP3    H236384   4.196   3.443  16.603  1.8347 -1.8146 -0.8215
 4965TIP3   OH236385   3.730   3.286  12.040 -0.3332  0.5698  0.1869
 4965TIP3    H136386   3.768   3.283  12.128  1.6165  1.6268 -0.5536
 4965TIP3    H236387   3.668   3.360  12.043 -1.4117 -0.3274  1.0374
 4966TIP3   OH236388   0.585   1.940  16.808  0.2452  0.0420 -0.5732
 4966TIP3    H136389   0.576   2.033  16.829  2.1576  0.0709  0.3182
 4966TIP3    H236390   0.593   1.938  16.712  0.1699  0.7799 -0.6003
 4967TIP3   OH236391   1.767   5.442   2.040 -0.6260  0.2987 -0.1234
 4967TIP3    H136392   1.672   5.441   2.032 -0.8066 -0.3414  1.7296
 4967TIP3    H236393   1.797   5.488   1.962 -2.2908 -1.6546 -2.0124
 4968TIP3   OH236394   2.170   6.101   1.192 -0.0168  0.2111  0.5282
 4968TIP3    H136395   2.203   6.022   1.150 -0.4163  0.5944 -0.5449
 4968TIP3    H236396   2.124   6.070   1.269 -0.1606 -0.6036  0.1248
 4969TIP3   OH236397   4.109   0.586   0.926  0.1219  0.0343 -0.0272
 4969TIP3    H136398   4.015   0.577   0.911  0.0909  0.3627 -0.0240
 4969TIP3    H236399   4.136   0.502   0.963 -0.1450 -0.1082 -0.1605
 4970TIP3   OH236400   1.264   4.129  14.525 -0.1252  0.4442 -0.0357
 4970TIP3    H136401   1.232   4.043  14.551  1.0423  0.3430  1.1970
 4970TIP3    H236402   1.312   4.114  14.444  0.3498 -0.1380  0.3484
 4971TIP3   OH236403   2.043   5.609   4.515  0.0950 -0.1858  0.5667
 4971TIP3    H136404   1.971   5.546   4.504  0.8676 -1.0706  0.4193
 4971TIP3    H236405   2.066   5.634   4.426 -0.2628  0.3787  0.6292
 4972TIP3   OH236406   4.012   3.646  12.615 -0.0290  0.6263 -0.5604
 4972TIP3    H136407   3.979   3.704  12.683 -0.5567  0.5815 -0.7739
 4972TIP3    H236408   3.959   3.567  12.624  2.2972 -0.8856  1.3828
 4973TIP3   OH236409   6.126   4.189   2.788 -0.1858 -0.3088  0.6239
 4973TIP3    H136410   6.134   4.094   2.794 -0.3186 -0.2540  1.8244
 4973TIP3    H236411   6.055   4.211   2.848 -0.7592  0.4715 -0.3104
 4974TIP3   OH236412   0.404   3.740  14.911  0.1421 -0.0557  0.1044
 4974TIP3    H136413   0.380   3.660  14.864  0.4239 -2.7543  4.1011
 4974TIP3    H236414   0.321   3.782  14.931  0.0245  2.3105 -4.0845
 4975TIP3   OH236415   4.865   2.032   4.601  0.0584  0.3276  0.5861
 4975TIP3    H136416   4.811   2.110   4.587 -0.3975 -0.0547  0.2152
 4975TIP3    H236417   4.952   2.058   4.571  0.1911  1.0723  1.5355
 4976TIP3   OH236418   4.404   3.499   4.117 -0.3812  0.4178 -0.7751
 4976TIP3    H136419   4.362   3.493   4.031 -0.0766  0.3190 -0.9159
 4976TIP3    H236420   4.455   3.419   4.125 -1.7394 -0.3866  0.2038
 4977TIP3   OH236421   6.192   6.529  13.961  0.2532 -0.4705 -0.0041
 4977TIP3    H136422   6.129   6.515  14.032 -0.1139 -1.7902 -0.5719
 4977TIP3    H236423   6.184   6.622  13.941 -0.0725 -0.1994  1.2662
 4978TIP3   OH236424   6.370   3.867   5.164 -0.1500  0.0429 -0.0763
 4978TIP3    H136425   6.412   3.931   5.105 -0.2770 -1.0339 -1.3871
 4978TIP3    H236426   6.291   3.912   5.195  0.5851  1.1070  0.3176
 4979TIP3   OH236427   5.466   5.421  13.633  0.2023 -0.1668  0.2413
 4979TIP3    H136428   5.545   5.476  13.637 -0.0122  0.2060 -0.4492
 4979TIP3    H236429   5.475   5.361  13.708 -0.1256  1.5624  1.7291
 4980TIP3   OH236430   3.575   0.286   3.945 -0.2268  0.3064 -0.0999
 4980TIP3    H136431   3.616   0.264   4.028 -1.0496 -1.8136 -0.2049
 4980TIP3    H236432   3.646   0.319   3.890  0.7747 -0.5326  0.6657
 4981TIP3   OH236433   0.205   0.245   5.806  0.3017  0.0963 -0.2796
 4981TIP3    H136434   0.115   0.214   5.820  0.2252  0.6540  0.5901
 4981TIP3    H236435   0.246   0.178   5.752 -0.5780 -0.2740 -0.5088
 4982TIP3   OH236436   2.019   2.507   0.423  0.1570 -0.1370 -0.9862
 4982TIP3    H136437   2.026   2.587   0.475 -0.5104 -0.7256  0.0506
 4982TIP3    H236438   2.070   2.442   0.471  0.8942 -0.2859 -1.9468
 4983TIP3   OH236439   2.187   0.004   5.006  0.3579  0.2389  0.0853
 4983TIP3    H136440   2.264   0.053   4.977  0.8612  0.1737  1.2930
 4983TIP3    H236441   2.142   0.064   5.065 -0.0404 -0.0662  0.0944
 4984TIP3   OH236442   5.800   3.650   1.875  0.0633  0.2334  0.2529
 4984TIP3    H136443   5.875   3.608   1.832  1.1051  2.1720  0.0651
 4984TIP3    H236444   5.811   3.630   1.968  0.8910  0.5532  0.2385
 4985TIP3   OH236445   4.479   6.641   2.752  0.3162  0.0595 -0.0587
 4985TIP3    H136446   4.476   6.641   2.848 -0.6965  0.1066 -0.0767
 4985TIP3    H236447   4.498   6.550   2.729 -0.7558 -0.2318  0.1702
 4986TIP3   OH236448   0.771   6.524  10.926 -0.2593 -0.4336 -0.2292
 4986TIP3    H136449   0.744   6.433  10.936 -2.7265 -0.0016 -2.0407
 4986TIP3    H236450   0.772   6.539  10.832  3.0370  0.6963 -0.1531
 4987TIP3   OH236451   4.412   3.428   3.848  0.2084  0.4469 -0.2304
 4987TIP3    H136452   4.476   3.366   3.814  0.8809 -0.4397  2.4140
 4987TIP3    H236453   4.328   3.386   3.834  0.3281  0.6703 -1.8069
 4988TIP3   OH236454   5.741   1.833   4.417  0.0201 -1.0611 -0.0884
 4988TIP3    H136455   5.808   1.900   4.431 -1.4288  0.7364 -1.1833
 4988TIP3    H236456   5.691   1.831   4.498  0.4463 -1.2561  0.1680
 4989TIP3   OH236457   5.808   2.861  10.379 -0.0896  0.4049  0.4263
 4989TIP3    H136458   5.821   2.902  10.465  0.7900 -1.9615  1.5193
 4989TIP3    H236459   5.897   2.842  10.349 -0.4421  0.0764 -0.4330
 4990TIP3   OH236460   1.692   2.280  14.293 -0.0446 -0.4908  0.5995
 4990TIP3    H136461   1.612   2.306  14.248 -0.8514  0.6289  2.5742
 4990TIP3    H236462   1.738   2.225  14.229 -1.3226  0.6022 -1.3776
 4991TIP3   OH236463   6.362   3.994   5.704 -0.1763 -0.3320 -0.2214
 4991TIP3    H136464   6.450   4.026   5.725 -0.2599  0.2595 -0.7549
 4991TIP3    H236465   6.368   3.967   5.613 -0.4282 -0.7444 -0.1199
 4992TIP3   OH236466   6.153   5.098  16.354  0.5909  0.4923 -0.2554
 4992TIP3    H136467   6.192   5.079  16.269 -2.0264  0.6315 -1.5854
 4992TIP3    H236468   6.073   5.046  16.356 -1.1154  2.9502  0.6553
 4993TIP3   OH236469   0.711   3.009   5.748 -0.2561  0.0516  0.3645
 4993TIP3    H136470   0.643   3.019   5.681  0.0404  1.8419  0.2833
 4993TIP3    H236471   0.710   3.092   5.796 -0.5122 -1.2069  2.6702
 4994TIP3   OH236472   0.393   0.185  13.369 -0.1758  0.0103 -0.3245
 4994TIP3    H136473   0.404   0.123  13.441 -1.3276  0.5327  0.3347
 4994TIP3    H236474   0.298   0.200  13.365  0.0174  1.1677 -0.9474
 4995TIP3   OH236475   4.306   6.169  15.728  0.1161  0.0265 -0.0087
 4995TIP3    H136476   4.382   6.189  15.673 -0.6128  1.4415 -0.5568
 4995TIP3    H236477   4.336   6.099  15.786  1.6774  0.2083 -0.5475
 4996TIP3   OH236478   6.493   3.214   1.417 -0.3534  0.2004  0.0523
 4996TIP3    H136479   6.423   3.162   1.376  0.2873  0.1067 -0.9632
 4996TIP3    H236480   6.534   3.260   1.344  1.5042 -0.7690  0.4332
 4997TIP3   OH236481   5.608   0.058   2.951 -0.7942  0.1961  0.1064
 4997TIP3    H136482   5.602   0.154   2.946  2.6632  0.4789 -1.0654
 4997TIP3    H236483   5.529   0.027   2.907 -1.7270  2.4815  0.0098
 4998TIP3   OH236484   0.123   0.392  14.284  0.1301 -0.5181  0.3335
 4998TIP3    H136485   0.063   0.426  14.350  1.4141  2.6423  0.0414
 4998TIP3    H236486   0.066   0.349  14.220 -1.9241  2.4532 -0.0046
 4999TIP3   OH236487   2.223   3.026  13.610 -0.1929 -0.0187  0.2693
 4999TIP3    H136488   2.193   2.938  13.632  2.4249 -0.9679  0.3133
 4999TIP3    H236489   2.264   3.017  13.524 -0.1624  1.2506  0.1263
 5000TIP3   OH236490   5.728   3.953  16.889  0.1786  0.9053 -0.2350
 5000TIP3    H136491   5.710   4.000  16.970 -0.4974 -2.7823  1.9935
 5000TIP3    H236492   5.655   3.975  16.831 -1.0518  1.2063  1.3807
 5001TIP3   OH236493   1.985   0.909   2.330 -0.0666 -0.2003 -0.0882
 5001TIP3    H136494   1.983   0.829   2.382  0.0248 -0.9046 -1.1257
 5001TIP3    H236495   2.077   0.924   2.311 -0.2604 -1.7591 -2.6650
 5002TIP3   OH236496   2.807   1.195   5.965 -0.5065 -0.3557  0.8088
 5002TIP3    H136497   2.801   1.164   5.875  1.3998 -0.7364  0.7691
 5002TIP3    H236498   2.760   1.129   6.016  0.4626 -1.4403  0.3386
 5003TIP3   OH236499   0.642   1.902   3.909  0.1556  0.0207 -0.7416
 5003TIP3    H136500   0.649   1.958   3.987  1.8032 -1.2979  0.1128
 5003TIP3    H236501   0.575   1.838   3.932 -0.8249  0.8436 -1.2325
 5004TIP3   OH236502   2.494   1.902  13.639 -0.0618  0.6299  0.0125
 5004TIP3    H136503   2.440   1.959  13.693  0.5974  0.2297  1.1158
 5004TIP3    H236504   2.531   1.838  13.700  1.4678  0.7494 -0.7401
 5005TIP3   OH236505   4.252   0.567   6.042 -0.5204 -0.2882 -0.2353
 5005TIP3    H136506   4.289   0.655   6.050 -0.9529 -0.2215  1.3443
 5005TIP3    H236507   4.321   0.509   6.075 -0.2796 -0.5516 -1.1654
 5006TIP3   OH236508   6.501   6.505  15.522 -0.0605 -0.4519  0.3948
 5006TIP3    H136509   6.469   6.575  15.578 -1.2657 -0.0683 -0.7369
 5006TIP3    H236510   6.580   6.541  15.481 -0.1525 -0.1020  0.5211
 5007TIP3   OH236511   0.760   2.973   0.140  0.6954 -0.1421 -0.1388
 5007TIP3    H136512   0.816   3.046   0.166 -1.5812  0.9700  2.1147
 5007TIP3    H236513   0.741   2.989   0.048  1.5976  1.1441 -0.1399
 5008TIP3   OH236514   0.328   5.593   6.179  0.3321  0.2365 -0.6427
 5008TIP3    H136515   0.279   5.624   6.255 -1.5433 -1.8445 -0.9110
 5008TIP3    H236516   0.337   5.498   6.192  1.4795  0.0799 -2.1841
 5009TIP3   OH236517   4.205   4.186   1.192  0.9520  0.0548  0.3141
 5009TIP3    H136518   4.113   4.161   1.198  0.4814  1.9192  1.6595
 5009TIP3    H236519   4.218   4.249   1.263  2.8579  1.0228 -0.7982
 5010TIP3   OH236520   5.561   4.687  15.835 -0.3385 -0.2025 -0.1895
 5010TIP3    H136521   5.578   4.724  15.749 -1.0353 -1.4911 -0.9104
 5010TIP3    H236522   5.602   4.600  15.833 -1.8640 -0.9748  0.1089
 5011TIP3   OH236523   0.641   3.359   6.477  0.6850 -0.1176 -0.1047
 5011TIP3    H136524   0.637   3.393   6.387 -0.2393 -0.5079 -0.2296
 5011TIP3    H236525   0.657   3.435   6.532 -0.4963  0.4002 -0.4510
 5012TIP3   OH236526   2.329   1.837   1.005 -0.0826 -0.2506  0.1344
 5012TIP3    H136527   2.419   1.868   1.007  0.1339 -0.8760  2.2336
 5012TIP3    H236528   2.295   1.867   0.920  2.2904 -0.6325 -1.0417
 5013TIP3   OH236529   5.702   6.268  16.239  0.1341 -0.7566 -0.0890
 5013TIP3    H136530   5.760   6.261  16.315 -4.0200  0.5660  3.6007
 5013TIP3    H236531   5.658   6.183  16.234  0.0056 -0.6607 -0.7601
 5014TIP3   OH236532   1.958   1.298   0.366 -0.2972 -0.2368 -0.0251
 5014TIP3    H136533   1.879   1.342   0.333 -0.0781 -1.0957 -1.8276
 5014TIP3    H236534   2.025   1.315   0.299  0.6276 -0.7435  0.7519
 5015TIP3   OH236535   2.984   5.044   6.187 -0.4382  0.1633 -0.1045
 5015TIP3    H136536   3.024   5.012   6.268 -1.0913 -0.1329  0.1071
 5015TIP3    H236537   3.051   5.100   6.148 -0.2848  0.6878  0.8756
 5016TIP3   OH236538   2.954   6.829  15.376 -0.4010 -0.3578  0.1847
 5016TIP3    H136539   3.005   6.904  15.344  1.2598 -0.7769  1.6614
 5016TIP3    H236540   2.910   6.861  15.454 -0.2966 -0.6933  0.3844
 5017TIP3   OH236541   1.209   3.559  14.034  0.5043  0.1950  0.7522
 5017TIP3    H136542   1.171   3.541  13.948 -0.9940  2.4245  0.8692
 5017TIP3    H236543   1.302   3.574  14.016  0.3723 -0.1743 -0.3421
 5018TIP3   OH236544   0.975   3.145   0.232 -0.5301 -0.1455 -0.8836
 5018TIP3    H136545   0.918   3.115   0.303 -0.3218 -2.6166 -1.6416
 5018TIP3    H236546   1.049   3.085   0.235  0.8922  1.5096 -1.4361
 5019TIP3   OH236547   2.408   6.318  12.701  0.2212  0.3860  0.1765
 5019TIP3    H136548   2.490   6.357  12.731  0.5462  0.9162 -1.3182
 5019TIP3    H236549   2.352   6.393  12.681 -0.6851  0.0326  1.2551
 5020TIP3   OH236550   0.376   6.255   1.318 -0.2864 -0.3582  0.2122
 5020TIP3    H136551   0.416   6.202   1.387 -0.2991 -1.6520 -0.7380
 5020TIP3    H236552   0.350   6.192   1.251 -0.7055  0.8175 -0.7754
 5021TIP3   OH236553   0.612   6.705  11.382  0.7271  0.1320  0.1705
 5021TIP3    H136554   0.534   6.653  11.363 -0.5566  2.2057 -0.6343
 5021TIP3    H236555   0.597   6.739  11.470 -0.0942  1.7796 -0.5584
 5022TIP3   OH236556   1.478   0.549   0.638 -0.9516  0.6194  0.0031
 5022TIP3    H136557   1.500   0.631   0.593 -0.8559  0.6847  0.1701
 5022TIP3    H236558   1.399   0.570   0.688 -0.3627  0.8988  0.8471
 5023TIP3   OH236559   3.410   0.838  16.448 -0.1514  0.6407  0.2488
 5023TIP3    H136560   3.335   0.790  16.413  0.4164  0.8062 -1.2375
 5023TIP3    H236561   3.417   0.916  16.393  0.5932  1.0762  0.9283
 5024TIP3   OH236562   6.627   1.229   0.081 -0.2433 -0.1128 -0.2901
 5024TIP3    H136563   6.582   1.158   0.127  1.3143 -0.4828  0.7304
 5024TIP3    H236564   6.631   1.199  -0.010 -1.0376 -0.5660 -0.1914
 5025TIP3   OH236565   5.446   5.174  15.885 -0.4867 -0.1291 -0.6666
 5025TIP3    H136566   5.533   5.166  15.924 -1.4126 -2.9858  1.1344
 5025TIP3    H236567   5.406   5.249  15.929  0.6365  0.4652 -0.6353
 5026TIP3   OH236568   1.831   5.961   3.626 -0.4607  0.1481 -0.8223
 5026TIP3    H136569   1.784   5.903   3.567 -0.5261 -1.2816  0.5716
 5026TIP3    H236570   1.894   5.905   3.671  0.5659  1.4602 -0.5340
 5027TIP3   OH236571   2.188   5.902  13.648 -0.1865  0.2292  0.3813
 5027TIP3    H136572   2.276   5.939  13.653 -0.6267  1.2031  1.5867
 5027TIP3    H236573   2.193   5.837  13.578  1.0098  1.5525 -0.8332
 5028TIP3   OH236574   0.166   1.572   2.764  0.3086  0.1605  0.6308
 5028TIP3    H136575   0.216   1.617   2.832  1.1561 -0.0811  0.1898
 5028TIP3    H236576   0.074   1.592   2.783  0.6338  1.6809  0.7236
 5029TIP3   OH236577   5.500   5.192  12.234 -0.1833 -0.0513  0.8353
 5029TIP3    H136578   5.470   5.102  12.242  0.5488 -0.4955 -0.9875
 5029TIP3    H236579   5.567   5.201  12.302 -0.2201 -0.8970  0.9897
 5030TIP3   OH236580   0.569   6.655  13.839  0.3096 -0.2958 -0.2760
 5030TIP3    H136581   0.493   6.707  13.864  1.3565  0.3702  1.7403
 5030TIP3    H236582   0.631   6.718  13.802  0.5322 -0.5569 -0.3599
 5031TIP3   OH236583   1.164   1.582  13.953 -0.4734  0.0487  0.0732
 5031TIP3    H136584   1.224   1.508  13.954  0.8991  1.0887  1.4146
 5031TIP3    H236585   1.141   1.594  14.045 -0.3781  1.4725 -0.0652
 5032TIP3   OH236586   5.116   3.356   0.904  0.0853  0.0071 -0.0875
 5032TIP3    H136587   5.048   3.389   0.845 -0.4617 -1.5116 -0.3530
 5032TIP3    H236588   5.122   3.263   0.884  2.2215  0.0785 -0.0131
 5033TIP3   OH236589   4.111   1.086   2.455 -0.0899  0.2171 -0.5422
 5033TIP3    H136590   4.095   1.105   2.548 -0.0443 -2.0607  0.0036
 5033TIP3    H236591   4.043   1.023   2.432  1.7988 -1.7884 -1.0580
 5034TIP3   OH236592   0.130   3.887   1.489  0.0038 -0.1582  0.3190
 5034TIP3    H136593   0.116   3.799   1.453 -0.3755 -0.0123  0.1008
 5034TIP3    H236594   0.054   3.902   1.546  0.1838 -0.0641  0.5341
 5035TIP3   OH236595   2.631   5.044  14.446  0.2421  0.0394 -0.2960
 5035TIP3    H136596   2.714   5.010  14.480  1.7893  1.8126 -1.9955
 5035TIP3    H236597   2.650   5.063  14.354 -2.3262 -0.2280 -0.9359
 5036TIP3   OH236598   3.195   2.995   4.208 -0.0329 -0.5376  0.0026
 5036TIP3    H136599   3.178   3.083   4.174  0.6944 -0.9095 -1.3879
 5036TIP3    H236600   3.108   2.961   4.229 -0.4838 -0.1428 -1.1518
 5037TIP3   OH236601   1.638   0.227   5.623 -0.4083  0.0952  0.3128
 5037TIP3    H136602   1.616   0.153   5.680  0.5888 -1.2545 -0.9938
 5037TIP3    H236603   1.663   0.187   5.540  0.3753  1.8999 -0.3674
 5038TIP3   OH236604   0.981   5.836   3.452  0.8902 -0.0692  0.0420
 5038TIP3    H136605   0.955   5.917   3.409  0.2238 -0.8530 -1.0557
 5038TIP3    H236606   0.904   5.808   3.501  1.0729 -0.1258  0.3026
 5039TIP3   OH236607   6.171   5.742  15.490 -0.0049 -0.1456  0.4537
 5039TIP3    H136608   6.244   5.755  15.549 -0.9495 -0.0826  1.6551
 5039TIP3    H236609   6.113   5.681  15.536 -1.4639  1.0358  0.2763
 5040TIP3   OH236610   1.613   1.592  12.239 -0.3089 -0.2381  0.1947
 5040TIP3    H136611   1.701   1.618  12.211  0.8732 -2.9469  1.0484
 5040TIP3    H236612   1.558   1.667  12.219  1.9797  1.1133 -1.4779
 5041TIP3   OH236613   0.278   1.891   4.562 -0.0242 -0.1354 -0.4735
 5041TIP3    H136614   0.291   1.894   4.467 -1.7114  0.4759 -0.7262
 5041TIP3    H236615   0.289   1.981   4.591 -2.6794  0.3416 -0.6372
 5042TIP3   OH236616   3.494   0.970  13.046  0.2516 -0.1896  0.0207
 5042TIP3    H136617   3.581   0.988  13.083  0.3033  0.8131 -0.5362
 5042TIP3    H236618   3.457   1.057  13.029 -0.2773 -0.6011 -1.0623
 5043TIP3   OH236619   4.232   0.658   6.597  0.1180 -0.4209 -0.5560
 5043TIP3    H136620   4.254   0.574   6.558 -1.7731 -0.2884 -2.0516
 5043TIP3    H236621   4.314   0.707   6.596  0.8097 -1.5488 -1.4857
 5044TIP3   OH236622   2.496   4.611   3.963  0.2910 -0.6696 -0.7624
 5044TIP3    H136623   2.427   4.674   3.984  0.1458  0.2932 -3.6335
 5044TIP3    H236624   2.495   4.549   4.036 -0.9800  1.4601  1.1468
 5045TIP3   OH236625   2.854   4.881  15.637 -0.0573 -0.1205  0.0997
 5045TIP3    H136626   2.875   4.820  15.708  1.5099 -1.2205 -1.2119
 5045TIP3    H236627   2.904   4.847  15.562  0.9811  2.8523 -0.6881
 5046TIP3   OH236628   6.424   1.577   0.225  0.1344  0.2030  0.0555
 5046TIP3    H136629   6.404   1.670   0.220 -1.0431 -0.1039 -2.2916
 5046TIP3    H236630   6.506   1.573   0.275 -0.5248  2.3383  1.4310
 5047TIP3   OH236631   2.421   3.241   5.898  0.3122  0.0299  0.7984
 5047TIP3    H136632   2.394   3.199   5.816  0.8000  0.1090  0.5959
 5047TIP3    H236633   2.460   3.171   5.949 -0.7517 -0.2070  1.3223
 5048TIP3   OH236634   6.670   5.909  16.441 -0.7553  0.1104 -0.4659
 5048TIP3    H136635   6.630   5.848  16.379 -0.6627 -1.6628  1.1363
 5048TIP3    H236636   6.711   5.853  16.507  1.5448  1.9058 -0.2602
 5049TIP3   OH236637   1.424   4.631   2.769  0.2091 -0.2657  0.4178
 5049TIP3    H136638   1.475   4.649   2.848 -0.2395  1.4724  0.3481
 5049TIP3    H236639   1.355   4.698   2.768 -0.2038 -0.6579 -1.0999
 5050TIP3   OH236640   0.116   0.356   3.555 -0.0927 -0.5669  0.1144
 5050TIP3    H136641   0.173   0.303   3.611 -0.0121 -0.3129  0.2712
 5050TIP3    H236642   0.176   0.400   3.495 -0.1020 -0.1178  0.4299
 5051TIP3   OH236643   6.769   4.072  10.700  0.1818 -0.7979  0.4883
 5051TIP3    H136644   6.703   4.135  10.673  0.2987 -0.8945 -0.0377
 5051TIP3    H236645   6.851   4.121  10.699  0.6512 -1.4442 -2.1164
 5052TIP3   OH236646   4.621   0.398  11.461  0.0096  0.0275 -0.2676
 5052TIP3    H136647   4.528   0.397  11.486 -0.6004 -3.6289 -2.0684
 5052TIP3    H236648   4.664   0.342  11.526  0.8693  1.0371  0.0635
 5053TIP3   OH236649   6.715   1.866   3.672 -0.3242 -0.0251  0.0088
 5053TIP3    H136650   6.654   1.926   3.631  1.8557  0.9229 -2.1047
 5053TIP3    H236651   6.751   1.815   3.599  2.7192  0.7654  0.8021
 5054TIP3   OH236652   6.258   1.694  16.783 -0.3131  0.5091 -0.0456
 5054TIP3    H136653   6.306   1.701  16.700  0.0799  0.1732  0.1542
 5054TIP3    H236654   6.249   1.600  16.798 -0.8721  0.5677  0.0146
 5055TIP3   OH236655   3.818   4.619  16.614  0.4478 -0.9370  0.4810
 5055TIP3    H136656   3.820   4.654  16.703 -0.6696  0.8507 -0.1414
 5055TIP3    H236657   3.759   4.543  16.619 -1.5187  0.5411  0.8746
 5056TIP3   OH236658   0.066   5.877   3.955 -0.2400  0.3875  0.8109
 5056TIP3    H136659   0.154   5.853   3.985 -0.0352 -0.8386 -0.6027
 5056TIP3    H236660   0.081   5.945   3.890 -0.1627 -0.8597 -0.5260
 5057TIP3   OH236661   1.178   4.961   4.837  0.3340 -0.0426 -0.2538
 5057TIP3    H136662   1.202   5.029   4.774  0.2943 -0.2547 -0.5008
 5057TIP3    H236663   1.124   4.900   4.787  0.8961 -0.5931 -0.2088
 5058TIP3   OH236664   3.268   6.209  10.994  0.0160 -0.1822  0.3181
 5058TIP3    H136665   3.275   6.216  11.089  0.8854 -1.0088  0.3266
 5058TIP3    H236666   3.356   6.228  10.962 -0.1487 -0.4059 -0.2871
 5059TIP3   OH236667   4.485   6.666   1.135 -0.4589 -0.0560  0.1310
 5059TIP3    H136668   4.501   6.618   1.054 -2.3269  0.8514 -0.8431
 5059TIP3    H236669   4.398   6.639   1.163 -0.3079  0.5059  1.2186
 5060TIP3   OH236670   1.962   2.998   0.494  0.6481  0.5382 -0.2680
 5060TIP3    H136671   1.994   3.033   0.411 -1.6996 -1.8846 -2.3956
 5060TIP3    H236672   1.874   3.035   0.503  1.1067  1.2978  1.5685
 5061TIP3   OH236673   3.785   5.612  14.557  0.2061 -0.3418 -0.2994
 5061TIP3    H136674   3.692   5.631  14.545  0.4664  2.1457  1.0061
 5061TIP3    H236675   3.787   5.523  14.592 -1.8484  0.2320  1.5085
 5062TIP3   OH236676   1.786   4.149  15.394  0.0504 -0.4547  0.6082
 5062TIP3    H136677   1.755   4.208  15.325 -1.2945 -1.0168  0.6964
 5062TIP3    H236678   1.712   4.090  15.410  1.1834 -1.8672  0.8624
 5063TIP3   OH236679   2.118   0.412   3.793  0.1454 -0.4334  0.2896
 5063TIP3    H136680   2.047   0.367   3.747 -0.1324  0.2094  0.0864
 5063TIP3    H236681   2.076   0.452   3.869  0.6214 -1.5849  1.1927
 5064TIP3   OH236682   4.018   6.253  16.749  0.4922  0.0712  0.0131
 5064TIP3    H136683   4.076   6.313  16.796  0.4409  0.6416 -0.6412
 5064TIP3    H236684   4.024   6.171  16.798  0.7356  0.5429  0.7889
 5065TIP3   OH236685   6.377   4.860  12.617 -0.1356  0.0894  0.1378
 5065TIP3    H136686   6.353   4.790  12.557 -0.3335 -0.6560  1.0573
 5065TIP3    H236687   6.312   4.929  12.601  1.4438  1.0960 -2.4296
 5066TIP3   OH236688   1.782   3.710   2.153 -0.2170  0.0497 -0.0661
 5066TIP3    H136689   1.745   3.787   2.109 -0.1894  0.0113 -0.1586
 5066TIP3    H236690   1.873   3.709   2.123  0.3199  1.0793  1.4276
 5067TIP3   OH236691   2.683   5.082   3.572  0.3428 -0.3283  0.4999
 5067TIP3    H136692   2.592   5.109   3.566  0.2172 -0.9020 -0.3549
 5067TIP3    H236693   2.727   5.128   3.501  0.4472 -1.1053  0.0543
 5068TIP3   OH236694   6.649   3.293   2.407 -0.1094  0.2164  0.0228
 5068TIP3    H136695   6.722   3.245   2.370 -0.2010 -0.3344  0.5347
 5068TIP3    H236696   6.685   3.333   2.487 -0.4795 -0.4254  0.5142
 5069TIP3   OH236697   6.600   3.172  10.616  0.3936 -0.6701 -0.3151
 5069TIP3    H136698   6.586   3.264  10.636  3.4249 -0.5898  2.2592
 5069TIP3    H236699   6.514   3.132  10.629 -0.7702  1.6176 -0.4768
 5070TIP3   OH236700   1.016   3.330   2.517 -0.3167  0.0903  1.0072
 5070TIP3    H136701   1.065   3.253   2.489 -0.8716  0.0246  0.1796
 5070TIP3    H236702   0.926   3.312   2.490 -0.3179  1.3737  0.0550
 5071TIP3   OH236703   4.759   3.425  12.345 -0.1536 -0.3135 -0.3442
 5071TIP3    H136704   4.701   3.350  12.331 -1.0515  0.3514 -0.3104
 5071TIP3    H236705   4.821   3.396  12.411  0.2543 -1.4165 -1.1775
 5072TIP3   OH236706   6.138   0.068  14.203 -0.0098 -0.7554 -0.3175
 5072TIP3    H136707   6.088  -0.013  14.201 -0.8642 -0.2297 -1.5615
 5072TIP3    H236708   6.222   0.044  14.242 -0.4871 -2.0933 -0.0836
 5073TIP3   OH236709   6.249   1.254   6.385 -0.3818  0.2323  0.4355
 5073TIP3    H136710   6.187   1.246   6.458 -2.5446  0.0669 -1.3350
 5073TIP3    H236711   6.293   1.338   6.401 -2.7370  1.5265  0.5843
 5074TIP3   OH236712   6.442   0.015   4.483 -0.1248 -0.0416  0.3124
 5074TIP3    H136713   6.406  -0.043   4.550  1.2206 -1.0572  0.1906
 5074TIP3    H236714   6.369   0.031   4.424 -0.8772 -0.5055  1.0842
 5075TIP3   OH236715   2.298   0.656   2.010  0.1043 -0.5656 -0.2032
 5075TIP3    H136716   2.276   0.594   2.080 -1.5353  0.0300 -0.1258
 5075TIP3    H236717   2.342   0.728   2.055  1.2195 -1.2557 -0.1631
 5076TIP3   OH236718   1.625   4.968   3.548  0.1548  0.4718  0.2961
 5076TIP3    H136719   1.569   5.045   3.549 -0.4213  0.0610  0.2939
 5076TIP3    H236720   1.686   4.983   3.475 -0.0060  0.8838  0.2473
 5077TIP3   OH236721   2.703   5.554  13.798 -0.1603 -0.4957 -0.6785
 5077TIP3    H136722   2.755   5.631  13.822  0.2417 -1.5651  2.3421
 5077TIP3    H236723   2.768   5.489  13.768  0.1525 -1.2234  1.4021
 5078TIP3   OH236724   4.856   3.800  13.817 -0.2167  0.0723  0.3111
 5078TIP3    H136725   4.904   3.787  13.898  0.3798  0.5584  0.0448
 5078TIP3    H236726   4.854   3.895  13.804  2.1796 -0.0339 -1.6540
 5079TIP3   OH236727   2.329   0.310  15.005  0.2271  0.2066 -0.4273
 5079TIP3    H136728   2.368   0.225  15.021 -0.1631 -0.1256 -1.1808
 5079TIP3    H236729   2.359   0.334  14.917 -0.8571  0.1580 -0.8235
 5080TIP3   OH236730   3.431   0.791  14.544 -1.0819  0.0625  0.1446
 5080TIP3    H136731   3.442   0.810  14.637 -1.5275  3.7202 -0.3980
 5080TIP3    H236732   3.345   0.828  14.522 -0.9067 -0.5465 -1.7596
 5081TIP3   OH236733   1.368   5.681  10.239 -0.0882 -0.3531  0.5406
 5081TIP3    H136734   1.445   5.729  10.208 -0.8891  0.0335 -0.9469
 5081TIP3    H236735   1.339   5.729  10.317 -0.2292  0.9298 -0.2834
 5082TIP3   OH236736   2.429   4.376  16.357  0.4552 -0.5857 -0.4129
 5082TIP3    H136737   2.425   4.316  16.282 -2.9784 -1.7523  0.5225
 5082TIP3    H236738   2.403   4.322  16.431 -0.0579  1.4393  0.9449
 5083TIP3   OH236739   1.819   6.733  14.984 -0.0480 -0.0818 -0.6019
 5083TIP3    H136740   1.776   6.766  15.063  0.0864 -2.4891  0.5686
 5083TIP3    H236741   1.748   6.706  14.927 -0.2019 -1.9617  0.3926
 5084TIP3   OH236742   3.922   2.215  12.731  0.0270  0.1169 -0.3033
 5084TIP3    H136743   3.943   2.127  12.761 -0.6235 -0.0492 -0.3105
 5084TIP3    H236744   3.997   2.242  12.678 -0.7069 -1.3075 -2.1689
 5085TIP3   OH236745   5.869   6.624  11.511  0.4130 -0.2150 -0.3499
 5085TIP3    H136746   5.865   6.591  11.421 -0.6639  1.6966 -1.0607
 5085TIP3    H236747   5.885   6.718  11.502  0.3513  0.0074  1.4627
 5086TIP3   OH236748   4.654   6.789   3.033 -0.8417  0.0148  0.1909
 5086TIP3    H136749   4.595   6.862   3.012  0.3059  0.6539 -0.8938
 5086TIP3    H236750   4.706   6.820   3.107 -0.3105  0.3341 -0.3107
 5087TIP3   OH236751   2.066   6.003  16.005 -0.3463 -0.3441 -0.1618
 5087TIP3    H136752   2.004   5.955  16.060  0.4329 -0.5937  0.5238
 5087TIP3    H236753   2.076   6.088  16.048 -0.7687 -0.0231 -0.6839
 5088TIP3   OH236754   2.071   6.159  11.802  0.4153 -0.3001  0.7715
 5088TIP3    H136755   2.030   6.111  11.730 -0.5427  1.8733 -0.2602
 5088TIP3    H236756   2.046   6.112  11.881  2.1102 -3.1987 -0.3016
 5089TIP3   OH236757   2.412   3.270  13.901 -0.1574  0.1787  0.4675
 5089TIP3    H136758   2.385   3.264  13.993 -0.4454 -2.1784  0.2897
 5089TIP3    H236759   2.330   3.264  13.852  0.2049 -2.6386  0.0304
 5090TIP3   OH236760   0.325   3.655   0.189  0.5294  0.6368 -0.1541
 5090TIP3    H136761   0.344   3.657   0.095 -0.8817  0.4323 -0.4744
 5090TIP3    H236762   0.269   3.731   0.204 -3.3657 -1.8471 -0.5330
 5091TIP3   OH236763   2.800   4.873  13.819 -0.2923 -0.2649  0.7525
 5091TIP3    H136764   2.799   4.963  13.851 -0.2207 -0.6520  1.8974
 5091TIP3    H236765   2.748   4.875  13.738  1.4244  1.1841 -0.3848
 5092TIP3   OH236766   4.992   6.695   4.646 -0.5097 -0.3507 -0.4406
 5092TIP3    H136767   5.026   6.670   4.732  0.9409  3.0634  0.1408
 5092TIP3    H236768   4.914   6.746   4.664  1.1759  2.6129 -0.7682
 5093TIP3   OH236769   2.442   5.375  11.354  0.1028 -0.6833 -0.0884
 5093TIP3    H136770   2.367   5.364  11.413 -0.9359 -1.7801 -1.5150
 5093TIP3    H236771   2.415   5.444  11.294  1.1473  0.4229  0.6744
 5094TIP3   OH236772   5.920   0.104   4.258 -0.1680  0.4807  0.0452
 5094TIP3    H136773   5.924   0.009   4.246  0.3714  0.6065 -0.8558
 5094TIP3    H236774   5.850   0.117   4.322 -1.6837 -0.3914 -1.3684
 5095TIP3   OH236775   5.419   4.466  13.382 -0.6280  0.2126 -0.2161
 5095TIP3    H136776   5.432   4.372  13.369 -1.9286  0.3330 -3.1833
 5095TIP3    H236777   5.411   4.475  13.477  2.3295 -2.2043  0.4355
 5096TIP3   OH236778   2.408   5.762  13.555 -0.2420 -0.1832 -0.4003
 5096TIP3    H136779   2.361   5.737  13.634  1.0655  1.2259  0.8795
 5096TIP3    H236780   2.477   5.821  13.585 -0.5643  1.5439 -2.7293
 5097TIP3   OH236781   2.959   1.436  15.862 -0.0316 -0.6471 -0.3689
 5097TIP3    H136782   3.053   1.420  15.859 -0.1085 -1.3088  0.3398
 5097TIP3    H236783   2.951   1.522  15.904  0.3104  0.3252 -2.1999
 5098TIP3   OH236784   5.132   4.486   1.405  0.2906  0.0031  0.1396
 5098TIP3    H136785   5.110   4.479   1.497  0.5571 -0.4551  0.1759
 5098TIP3    H236786   5.093   4.407   1.365 -0.7323  0.7230 -0.3302
 5099TIP3   OH236787   6.779   5.020   0.527 -0.4315 -0.1937 -0.8053
 5099TIP3    H136788   6.754   5.079   0.598  0.8852 -0.6620  0.0780
 5099TIP3    H236789   6.698   5.004   0.479 -1.4960 -0.4083  0.9910
 5100TIP3   OH236790   4.301   0.730  16.447  0.2788 -0.4410  0.1052
 5100TIP3    H136791   4.385   0.777  16.448 -0.0291  0.1539 -0.7125
 5100TIP3    H236792   4.325   0.638  16.455  1.2840 -0.5965 -3.0929
 5101TIP3   OH236793   0.209   5.760  12.000 -0.1152 -0.4937  0.7941
 5101TIP3    H136794   0.212   5.855  12.002  3.0146 -0.4765  1.0695
 5101TIP3    H236795   0.178   5.738  11.912  0.9374  0.8203  0.0625
 5102TIP3   OH236796   5.955   3.899   2.377 -0.1205 -0.4494  0.1218
 5102TIP3    H136797   5.960   3.992   2.357  2.3418 -1.0425 -2.9909
 5102TIP3    H236798   5.875   3.869   2.335  0.0051  0.0051 -0.4487
 5103TIP3   OH236799   3.658   1.982  12.503 -0.2522 -0.6645 -0.1462
 5103TIP3    H136800   3.584   1.957  12.449  0.3100 -0.4495 -1.0287
 5103TIP3    H236801   3.690   1.900  12.541 -0.6488 -0.8138 -0.1370
 5104TIP3   OH236802   5.105   3.781  16.448  0.0630 -0.3163  0.7353
 5104TIP3    H136803   5.040   3.852  16.452 -1.4857 -1.6608  0.6739
 5104TIP3    H236804   5.082   3.724  16.521  0.3391 -1.4953 -0.0640
 5105TIP3   OH236805   5.904   1.645   3.609 -0.2132  0.1337 -0.4907
 5105TIP3    H136806   5.837   1.580   3.629  0.8266 -0.4082  1.4463
 5105TIP3    H236807   5.955   1.606   3.537 -0.3719 -0.6321 -0.1948
 5106TIP3   OH236808   2.777   3.243   1.083  0.3549 -0.2134  0.2571
 5106TIP3    H136809   2.685   3.260   1.102  0.0183 -1.0203 -0.5961
 5106TIP3    H236810   2.819   3.237   1.169 -0.1800  1.1989  0.6343
 5107TIP3   OH236811   5.415   0.297  13.515 -0.0940  0.8952 -0.0113
 5107TIP3    H136812   5.497   0.334  13.481  0.2093  1.0596  0.8667
 5107TIP3    H236813   5.416   0.319  13.608  0.0901 -1.3235  0.5628
 5108TIP3   OH236814   4.903   3.921   3.495 -0.2502  0.5620  0.2052
 5108TIP3    H136815   4.949   3.998   3.464  0.3810 -0.5656 -1.8749
 5108TIP3    H236816   4.949   3.894   3.574  0.5869  1.3262 -0.0159
 5109TIP3   OH236817   3.575   2.341  12.255 -0.1641  0.1955 -0.1367
 5109TIP3    H136818   3.627   2.313  12.330 -0.7752 -0.1115  0.1772
 5109TIP3    H236819   3.634   2.397  12.205  0.2177  0.4852  0.6238
 5110TIP3   OH236820   1.354   3.536  16.874 -0.7308  0.1350  0.2894
 5110TIP3    H136821   1.425   3.539  16.938  0.3798 -2.0331 -0.7150
 5110TIP3    H236822   1.296   3.608  16.899  0.8173  0.7890  2.3110
 5111TIP3   OH236823   4.144   3.352  15.657 -0.1068  0.8827  0.3742
 5111TIP3    H136824   4.237   3.330  15.644 -0.3769 -0.4933  0.6148
 5111TIP3    H236825   4.143   3.448  15.663  1.8211  0.8851  3.7839
 5112TIP3   OH236826   5.241   3.705   2.319  0.7292 -0.0746 -0.4602
 5112TIP3    H136827   5.237   3.643   2.246 -1.0896 -1.7764  0.9909
 5112TIP3    H236828   5.307   3.669   2.378  1.7872  0.9960 -0.9420
 5113TIP3   OH236829   4.293   4.596   5.136 -0.0563  0.0243  0.4082
 5113TIP3    H136830   4.280   4.505   5.163 -0.2912 -0.0352  0.0999
 5113TIP3    H236831   4.380   4.597   5.096 -0.3447 -0.2209 -0.2385
 5114TIP3   OH236832   3.585   0.630   0.063  0.2302 -0.0360  0.4025
 5114TIP3    H136833   3.500   0.658   0.031  0.3448  1.4723  1.3508
 5114TIP3    H236834   3.640   0.625  -0.016  0.4680  3.4248  0.1991
 5115TIP3   OH236835   4.497   5.920  14.288  0.2773  0.1707  0.1989
 5115TIP3    H136836   4.569   5.962  14.241  1.3893 -0.0802  1.6162
 5115TIP3    H236837   4.479   5.979  14.362 -1.3257  0.4797 -0.4094
 5116TIP3   OH236838   3.392   6.188  11.752 -0.5044 -0.8941 -0.0779
 5116TIP3    H136839   3.449   6.125  11.796 -0.0677 -1.0489 -0.8581
 5116TIP3    H236840   3.447   6.266  11.740 -0.8370 -0.5979  0.2645
 5117TIP3   OH236841   2.203   4.048   4.478  0.1890 -0.5808  0.0718
 5117TIP3    H136842   2.245   4.120   4.430 -2.0374  0.6907 -0.0846
 5117TIP3    H236843   2.133   4.018   4.420 -0.6671 -1.0220  1.3002
 5118TIP3   OH236844   2.822   1.999   0.000  0.4094  0.1172 -0.2741
 5118TIP3    H136845   2.783   1.916  -0.026  1.0832  0.1931 -1.6059
 5118TIP3    H236846   2.881   1.977   0.072 -0.8047 -0.2442  0.6521
 5119TIP3   OH236847   1.388   1.696   2.493  0.0166  0.0246  0.5198
 5119TIP3    H136848   1.411   1.719   2.583 -0.9597 -0.6958  0.9703
 5119TIP3    H236849   1.458   1.636   2.466  1.4579  1.8582  0.0399
 5120TIP3   OH236850   6.426   4.822  11.290  0.0068  0.2012 -0.0020
 5120TIP3    H136851   6.483   4.747  11.308  0.4834  0.9722  2.0944
 5120TIP3    H236852   6.484   4.898  11.302 -0.9569  0.9506 -0.0204
 5121TIP3   OH236853   4.637   4.605  12.616  0.0786 -0.0108  0.7438
 5121TIP3    H136854   4.569   4.573  12.674 -1.9811 -2.3362 -2.5876
 5121TIP3    H236855   4.600   4.685  12.578  0.2598  0.0604  0.7166
 5122TIP3   OH236856   4.647   6.198  14.360 -0.0522  0.9917 -0.4386
 5122TIP3    H136857   4.630   6.204  14.266 -1.4430  0.5384 -0.2421
 5122TIP3    H236858   4.657   6.288  14.389  3.7809  1.0814 -1.5293
 5123TIP3   OH236859   4.418   3.738  10.450 -0.5776 -0.2473 -0.0399
 5123TIP3    H136860   4.435   3.668  10.387  0.8471  0.6793 -0.7598
 5123TIP3    H236861   4.480   3.807  10.426 -0.9097  0.6714  1.5695
 5124TIP3   OH236862   0.045   3.435   2.836 -0.0317  0.2764 -0.2429
 5124TIP3    H136863   0.126   3.386   2.850  0.3215  0.8910 -0.1126
 5124TIP3    H236864   0.039   3.493   2.912 -0.6704  0.1287 -0.1767
 5125TIP3   OH236865   1.254   1.502   3.588 -0.9593 -0.0102  0.2733
 5125TIP3    H136866   1.182   1.564   3.578  1.0790  2.2460 -1.6647
 5125TIP3    H236867   1.328   1.554   3.619  0.5655 -1.6664 -0.3532
 5126TIP3   OH236868   3.580   6.691   4.518  0.0243  0.1978  0.6567
 5126TIP3    H136869   3.542   6.639   4.589 -0.8747  0.4098  0.3428
 5126TIP3    H236870   3.663   6.647   4.498 -1.1956 -1.8220 -0.3526
 5127TIP3   OH236871   6.633   2.148  15.601  0.3735 -0.1599 -0.1830
 5127TIP3    H136872   6.600   2.201  15.673 -1.8178 -0.4902 -0.8837
 5127TIP3    H236873   6.686   2.209  15.549  2.6736 -0.0924  2.0071
 5128TIP3   OH236874   0.039   1.363  15.026 -0.0869  0.1134  0.1901
 5128TIP3    H136875   0.075   1.303  15.091  0.6634  0.8657  0.4866
 5128TIP3    H236876   0.088   1.444  15.038  0.9780 -0.1064 -2.1616
 5129TIP3   OH236877   6.262   2.773  16.440  0.3414  0.0116  0.2046
 5129TIP3    H136878   6.327   2.725  16.389  0.5497  1.0496 -0.5369
 5129TIP3    H236879   6.178   2.754  16.397  0.0436 -1.6478  1.3950
 5130TIP3   OH236880   6.430   2.891   5.969 -0.3343 -0.1615 -0.0275
 5130TIP3    H136881   6.357   2.896   5.907 -1.2274  1.1898  1.0808
 5130TIP3    H236882   6.402   2.829   6.035 -0.9150  1.0421  0.8950
 5131TIP3   OH236883   0.593   2.524   5.043 -0.2462  0.8174  0.1190
 5131TIP3    H136884   0.684   2.496   5.036 -0.3712 -0.0505  1.5827
 5131TIP3    H236885   0.595   2.618   5.028  1.1213  1.0623  1.6981
 5132TIP3   OH236886   1.807   4.423  16.371 -0.3210 -0.9054  0.4172
 5132TIP3    H136887   1.837   4.514  16.371 -2.7602 -0.0158 -0.6859
 5132TIP3    H236888   1.811   4.397  16.279 -2.4150 -0.8397  0.2528
 5133TIP3   OH236889   4.695   3.626  16.615 -0.6961  0.1732  0.2030
 5133TIP3    H136890   4.708   3.697  16.677 -1.1044  1.0798 -0.7242
 5133TIP3    H236891   4.626   3.572  16.653  0.4068 -0.3984  1.4728
 5134TIP3   OH236892   5.499   0.959   3.025  0.1746 -0.1023  0.1547
 5134TIP3    H136893   5.418   1.008   3.006  1.3389  1.5934 -0.7082
 5134TIP3    H236894   5.555   0.975   2.949  0.9533 -2.1446  0.2356
 5135TIP3   OH236895   5.359   1.691  11.038 -0.1461 -0.1209 -0.0067
 5135TIP3    H136896   5.360   1.731  10.951  2.0510  1.0798  0.4851
 5135TIP3    H236897   5.406   1.608  11.028 -2.1996 -1.3035 -0.4363
 5136TIP3   OH236898   4.626   3.915   0.995 -0.1394  0.8033  0.4240
 5136TIP3    H136899   4.579   3.966   1.062 -1.0070 -1.2968  1.4983
 5136TIP3    H236900   4.696   3.871   1.044 -1.3619 -1.5208  0.2179
 5137TIP3   OH236901   6.614   0.514   4.736  0.6712  0.1013  0.5971
 5137TIP3    H136902   6.655   0.583   4.685  1.4701 -0.6576  0.1893
 5137TIP3    H236903   6.551   0.474   4.675 -0.2838  0.8924  1.0424
 5138TIP3   OH236904   2.034   4.717  14.179  0.2391  0.4081  0.1849
 5138TIP3    H136905   2.018   4.772  14.256  1.9528  1.9091 -0.4644
 5138TIP3    H236906   2.025   4.776  14.105  0.7062 -0.5218 -0.6457
 5139TIP3   OH236907   6.143   0.853   3.400  0.6590  0.5028 -0.0884
 5139TIP3    H136908   6.069   0.800   3.427  1.9084 -0.5196  1.5606
 5139TIP3    H236909   6.105   0.939   3.379 -0.8141  0.5173  2.2998
 5140TIP3   OH236910   5.400   1.300   0.425  0.3689  0.2001 -0.0823
 5140TIP3    H136911   5.437   1.367   0.367  0.5145  0.3944  0.2287
 5140TIP3    H236912   5.333   1.347   0.475 -0.7404 -0.2847 -1.0602
 5141TIP3   OH236913   6.092   1.448  12.844  0.0637  0.1273  0.3839
 5141TIP3    H136914   6.092   1.380  12.911  0.7621  0.2143  0.4761
 5141TIP3    H236915   6.097   1.530  12.893 -1.5303  0.2987  0.3101
 5142TIP3   OH236916   0.114   6.211   4.423 -0.3305  0.2736 -0.0762
 5142TIP3    H136917   0.124   6.133   4.477 -0.2142  0.8613  0.7717
 5142TIP3    H236918   0.132   6.284   4.482  0.3056  0.9188 -1.0338
 5143TIP3   OH236919   4.785   5.778   2.191 -0.1679 -0.0030  0.0417
 5143TIP3    H136920   4.806   5.831   2.268  0.1212 -0.3777  0.2260
 5143TIP3    H236921   4.830   5.694   2.207 -1.0260 -0.4810 -0.0047
 5144TIP3   OH236922   1.505   6.692   0.468 -0.4332 -0.3074 -0.6602
 5144TIP3    H136923   1.558   6.751   0.414  0.3867 -0.2234  0.2000
 5144TIP3    H236924   1.498   6.736   0.553 -0.0063 -1.3040 -0.0761
 5145TIP3   OH236925   6.139   2.097   0.187  0.0535 -0.1745  0.0669
 5145TIP3    H136926   6.044   2.088   0.175  0.1414 -2.6409  0.7356
 5145TIP3    H236927   6.174   2.096   0.098 -0.4201 -1.7164 -0.1330
 5146TIP3   OH236928   2.807   1.167   4.926 -0.7130  0.2569  0.0591
 5146TIP3    H136929   2.869   1.223   4.973 -1.1389  1.0120 -0.2666
 5146TIP3    H236930   2.722   1.187   4.965 -1.0662  0.8408 -0.9765
 5147TIP3   OH236931   1.994   4.330  16.745  0.0568  0.1387  0.0264
 5147TIP3    H136932   1.953   4.263  16.690 -0.6659  1.9609 -1.7794
 5147TIP3    H236933   2.079   4.346  16.704 -0.3395  1.2502 -0.4297
 5148TIP3   OH236934   1.645   6.208   2.356  0.0120 -0.3404 -0.0305
 5148TIP3    H136935   1.706   6.251   2.416  0.5210  0.6733 -1.2374
 5148TIP3    H236936   1.700   6.174   2.286 -0.2716 -3.5458  1.1019
 5149TIP3   OH236937   2.034   5.661  11.529  0.1955  0.3581  0.4832
 5149TIP3    H136938   2.046   5.672  11.434 -1.4678  1.4237  0.3662
 5149TIP3    H236939   1.941   5.641  11.539  0.5929 -0.9884  1.8259
 5150TIP3   OH236940   4.726   0.565   6.527 -0.3680  0.0735 -0.0733
 5150TIP3    H136941   4.648   0.590   6.477 -1.5645 -1.2789  1.0211
 5150TIP3    H236942   4.746   0.476   6.498  0.6067  0.2987 -0.1298
 5151TIP3   OH236943   5.488   6.139   1.995  0.6334 -0.4172 -0.3332
 5151TIP3    H136944   5.514   6.226   1.965 -0.1815  0.1880  0.6862
 5151TIP3    H236945   5.538   6.124   2.075  3.0174 -2.1530 -1.9928
 5152TIP3   OH236946   1.819   0.580  13.782  0.3053 -0.4151 -0.6902
 5152TIP3    H136947   1.868   0.526  13.843  2.4023  1.8079 -0.2571
 5152TIP3    H236948   1.865   0.570  13.698  0.3789  0.2486 -0.7353
 5153TIP3   OH236949   1.023   0.612  15.316  0.1526 -0.4455 -0.1547
 5153TIP3    H136950   0.972   0.537  15.346  0.0872 -0.7904 -1.0933
 5153TIP3    H236951   0.960   0.669  15.273 -0.1137  1.0090  2.0285
 5154TIP3   OH236952   6.526   2.118   0.107 -0.1764 -0.1116  0.0732
 5154TIP3    H136953   6.545   2.028   0.083  1.0871 -0.0401  0.6994
 5154TIP3    H236954   6.438   2.115   0.146 -1.0637 -0.6708 -1.8470
 5155TIP3   OH236955   3.139   0.554  12.506  0.5216 -0.3566  0.3059
 5155TIP3    H136956   3.070   0.619  12.490 -0.6626 -0.7747  3.1108
 5155TIP3    H236957   3.209   0.604  12.549  0.2720 -0.6122  1.0298
 5156TIP3   OH236958   4.954   6.272   1.694  0.1287  0.4645  0.0689
 5156TIP3    H136959   5.001   6.345   1.653  1.5199 -1.7020 -2.5528
 5156TIP3    H236960   5.021   6.205   1.709 -1.3242 -0.9072  0.7809
 5157TIP3   OH236961   0.337   4.084  10.957 -0.4282 -0.3969  0.2437
 5157TIP3    H136962   0.358   4.148  10.889 -4.1321 -1.1874 -1.8818
 5157TIP3    H236963   0.272   4.127  11.012 -0.4714 -1.1917  0.8366
 5158TIP3   OH236964   6.515   3.942  15.805 -0.3417  0.0657  0.9159
 5158TIP3    H136965   6.602   3.955  15.767 -0.4137 -0.3550  0.5983
 5158TIP3    H236966   6.461   3.913  15.732 -1.0414  1.4478  0.8566
 5159TIP3   OH236967   5.321   3.570  13.838 -0.4665  0.7043  0.4145
 5159TIP3    H136968   5.236   3.608  13.860 -0.9239 -0.3785  0.5855
 5159TIP3    H236969   5.379   3.645  13.831 -1.4741  1.4804  0.1075
 5160TIP3   OH236970   4.266   0.119   1.760  0.0975  0.2802  0.2765
 5160TIP3    H136971   4.249   0.206   1.724  0.9417  1.0379  1.6174
 5160TIP3    H236972   4.194   0.065   1.727 -0.3084  1.4191 -0.7746
 5161TIP3   OH236973   0.728   5.169  12.675  0.0909 -0.1335 -0.3328
 5161TIP3    H136974   0.676   5.095  12.643  0.7442 -0.4550 -0.6675
 5161TIP3    H236975   0.818   5.136  12.677  0.5765  1.0498 -1.7330
 5162TIP3   OH236976   5.559   2.559  16.253 -0.4197 -0.1174  0.0496
 5162TIP3    H136977   5.473   2.573  16.293 -0.3523 -0.0617  0.1802
 5162TIP3    H236978   5.541   2.509  16.174 -0.3421 -2.3224  1.3639
 5163TIP3   OH236979   3.881   4.149  11.614  0.0407 -0.2276 -0.2776
 5163TIP3    H136980   3.903   4.117  11.701 -1.0735  0.3851  0.2537
 5163TIP3    H236981   3.962   4.140  11.564  0.8986  0.0450  1.0070
 5164TIP3   OH236982   4.783   0.739  16.207 -0.3482 -0.0187 -0.2587
 5164TIP3    H136983   4.831   0.798  16.149 -1.2002 -0.2992 -1.3063
 5164TIP3    H236984   4.741   0.796  16.271 -1.8973  0.6835 -1.7889
 5165TIP3   OH236985   1.703   0.418   2.691  0.3632  0.5184  0.0431
 5165TIP3    H136986   1.717   0.384   2.779 -0.9073 -0.0938  0.0302
 5165TIP3    H236987   1.611   0.442   2.688  0.1342 -0.4091 -1.4297
 5166TIP3   OH236988   3.210   0.545   4.963 -0.1376 -0.2437 -0.2057
 5166TIP3    H136989   3.282   0.484   4.947  1.5436  1.3288  1.0019
 5166TIP3    H236990   3.151   0.532   4.889  2.9530  0.6677 -3.0433
 5167TIP3   OH236991   5.658   4.869   2.707 -0.3990  0.0116 -0.5778
 5167TIP3    H136992   5.576   4.894   2.751 -0.7279 -3.0790  0.8271
 5167TIP3    H236993   5.718   4.941   2.727 -2.1134  1.2967  0.2713
 5168TIP3   OH236994   0.133   3.175  16.968  0.2370  0.5483  0.3902
 5168TIP3    H136995   0.092   3.181  17.055  1.2765  1.3325  0.8520
 5168TIP3    H236996   0.196   3.247  16.967  2.1535 -1.0524  0.0189
 5169TIP3   OH236997   1.813   6.824   1.232 -0.1479  0.0283  0.2975
 5169TIP3    H136998   1.775   6.736   1.231  1.7551 -0.8476 -0.8321
 5169TIP3    H236999   1.793   6.859   1.145 -0.3312  0.4607  0.5123
 5170TIP3   OH237000   0.674   0.344  11.550  0.3995  0.2303  0.1640
 5170TIP3    H137001   0.701   0.430  11.584 -1.7461  0.8775  0.3323
 5170TIP3    H237002   0.713   0.340  11.462  0.0746  1.6398 -0.0677
 5171TIP3   OH237003   2.200   1.365   4.281  0.0781  0.8748  0.1755
 5171TIP3    H137004   2.133   1.343   4.216 -1.8765  3.3915  1.1818
 5171TIP3    H237005   2.150   1.392   4.358  2.3047  0.9485  1.6716
 5172TIP3   OH237006   1.502   6.247   5.078  0.2094 -0.0186 -0.2387
 5172TIP3    H137007   1.546   6.205   5.152  0.8362  0.0561 -0.5655
 5172TIP3    H237008   1.424   6.193   5.063  0.2324 -0.2049  0.2832
 5173TIP3   OH237009   2.906   1.660   0.710  0.5083  0.3244  0.3401
 5173TIP3    H137010   2.891   1.570   0.682 -0.5175  0.1075  1.5156
 5173TIP3    H237011   2.822   1.689   0.745  1.3368  1.0488  1.8392
 5174TIP3   OH237012   4.856   5.575   1.350  0.1467 -0.0331  0.4091
 5174TIP3    H137013   4.851   5.613   1.438 -0.8498 -0.1655  0.4156
 5174TIP3    H237014   4.900   5.491   1.364 -0.8173 -0.4758  0.9417
 5175TIP3   OH237015   0.867   0.278   3.826  0.4318 -0.0140 -0.0053
 5175TIP3    H137016   0.799   0.336   3.793 -0.8117 -1.5145 -0.1629
 5175TIP3    H237017   0.842   0.261   3.917 -0.0180 -1.3934 -0.3589
 5176TIP3   OH237018   4.091   0.111   5.926  0.0362 -0.0990  0.3356
 5176TIP3    H137019   4.113   0.193   5.883  0.3282 -0.2993  0.0947
 5176TIP3    H237020   4.061   0.137   6.013  0.4695  0.2411  0.3869
 5177TIP3   OH237021   6.572   4.257  10.773  0.2547  0.3969 -0.4711
 5177TIP3    H137022   6.548   4.349  10.758  0.9773  0.4387 -1.4417
 5177TIP3    H237023   6.501   4.207  10.733  0.8978  0.5353 -1.8412
 5178TIP3   OH237024   3.972   6.456  16.544 -0.6936  0.3172 -0.0075
 5178TIP3    H137025   3.983   6.402  16.622  0.7000  0.5284 -0.0319
 5178TIP3    H237026   4.003   6.542  16.569 -2.3789  1.0052 -0.1437
 5179TIP3   OH237027   6.708   4.723   2.194  0.2856 -0.3348 -0.2452
 5179TIP3    H137028   6.613   4.736   2.197  0.3498  0.0574  0.3695
 5179TIP3    H237029   6.740   4.798   2.143  0.3568  0.1474  0.4897
 5180TIP3   OH237030   4.783   1.575  10.798 -0.4936  0.1319  0.0552
 5180TIP3    H137031   4.747   1.571  10.710 -0.9320 -0.9382  0.2670
 5180TIP3    H237032   4.717   1.624  10.848 -0.4522  0.3621 -0.1136
 5181TIP3   OH237033   5.583   6.336  17.052  0.6236 -0.1834  0.2020
 5181TIP3    H137034   5.515   6.381  17.102 -1.1949 -0.6859 -1.7079
 5181TIP3    H237035   5.562   6.243  17.060 -0.0586 -0.2570 -1.8622
 5182TIP3   OH237036   1.398   1.423   6.566  0.0664 -0.2992  0.8722
 5182TIP3    H137037   1.370   1.372   6.490 -1.3027  0.3950  0.8822
 5182TIP3    H237038   1.452   1.362   6.617  1.5265 -0.6032 -0.9190
 5183TIP3   OH237039   0.624   3.868  12.635 -0.1183 -0.4491  0.3492
 5183TIP3    H137040   0.596   3.797  12.693 -0.2343  1.2679  2.5596
 5183TIP3    H237041   0.545   3.893  12.587 -0.9070  0.2033  1.9034
 5184TIP3   OH237042   6.154   2.830  10.505 -0.2371  0.5870 -0.2327
 5184TIP3    H137043   6.140   2.825  10.411 -0.6340  1.3271 -0.2156
 5184TIP3    H237044   6.095   2.899  10.535 -0.8825 -0.3511  0.7103
 5185TIP3   OH237045   6.459   5.688   1.250  0.3163  0.0954  0.6308
 5185TIP3    H137046   6.436   5.684   1.157  0.0274 -0.3401  0.7153
 5185TIP3    H237047   6.538   5.634   1.258  0.1661 -0.1155  0.6893
 5186TIP3   OH237048   5.189   3.390   1.286  0.3564 -0.6351 -0.5376
 5186TIP3    H137049   5.126   3.447   1.242  0.9163 -0.4801 -1.1518
 5186TIP3    H237050   5.145   3.363   1.367 -1.3191 -2.1689 -1.8964
 5187TIP3   OH237051   2.573   1.758  14.295  0.0976 -0.2699  0.2746
 5187TIP3    H137052   2.641   1.825  14.300 -1.2985  1.2809 -0.5131
 5187TIP3    H237053   2.519   1.773  14.373  0.7196 -1.6210  1.0068
 5188TIP3   OH237054   3.033   2.190   5.114 -0.4753 -0.2491  0.1438
 5188TIP3    H137055   3.128   2.178   5.106 -0.0766  1.7556  1.2540
 5188TIP3    H237056   3.019   2.212   5.206 -1.9842 -0.1225 -0.0923
 5189TIP3   OH237057   6.088   5.235   5.249 -0.0909  0.2897  0.0042
 5189TIP3    H137058   6.021   5.298   5.273 -0.8181 -0.3254 -0.3887
 5189TIP3    H237059   6.088   5.171   5.319 -0.7471 -0.3524 -0.5690
 5190TIP3   OH237060   1.571   2.146  16.753  0.8490 -0.0916  0.4534
 5190TIP3    H137061   1.633   2.209  16.718  0.5035 -0.4052 -0.7708
 5190TIP3    H237062   1.504   2.138  16.685  0.2661 -0.8787  1.1030
 5191TIP3   OH237063   6.184   4.438  14.872 -0.4521  0.0102  0.0451
 5191TIP3    H137064   6.160   4.416  14.782  1.8012  0.5208 -0.7298
 5191TIP3    H237065   6.218   4.357  14.909 -0.1118  0.1207 -0.0204
 5192TIP3   OH237066   1.818   6.011   0.193  0.4417  0.2192 -0.1071
 5192TIP3    H137067   1.794   5.981   0.281  4.1837 -0.9510  0.7144
 5192TIP3    H237068   1.877   6.085   0.209  0.2330  0.7604 -1.7008
 5193TIP3   OH237069   3.622   4.994   0.683  0.2231 -0.2898 -0.1800
 5193TIP3    H137070   3.624   4.942   0.763 -1.4009  1.1038  0.8226
 5193TIP3    H237071   3.529   4.996   0.658  0.4632  0.8230 -1.0671
 5194TIP3   OH237072   6.696   3.881  12.647  0.2221 -0.2906 -0.5957
 5194TIP3    H137073   6.614   3.872  12.694  1.3805 -0.5797  1.5115
 5194TIP3    H237074   6.732   3.793  12.643  0.7673 -0.0668 -0.8353
 5195TIP3   OH237075   0.323   2.234  14.525  0.1675 -0.0964  0.1575
 5195TIP3    H137076   0.253   2.290  14.556 -0.2069  1.1654 -2.6489
 5195TIP3    H237077   0.291   2.199  14.441  1.3377 -2.6882  0.6774
 5196TIP3   OH237078   2.266   3.322   2.304 -0.3155  0.2265 -0.5814
 5196TIP3    H137079   2.221   3.351   2.384 -0.6499  0.2306 -0.7684
 5196TIP3    H237080   2.334   3.263   2.335  0.4188  1.2478 -0.1865
 5197TIP3   OH237081   0.531   4.452   0.631  0.2442 -0.3156  0.3152
 5197TIP3    H137082   0.556   4.469   0.541 -1.3419  0.8857  0.0587
 5197TIP3    H237083   0.601   4.491   0.684  0.8233 -0.4070 -0.3776
 5198TIP3   OH237084   3.851   0.226   2.008 -0.1870  0.9335 -0.6331
 5198TIP3    H137085   3.892   0.252   2.091  0.6446  1.7619 -1.2700
 5198TIP3    H237086   3.908   0.158   1.973 -0.9186  0.0945 -0.2059
 5199TIP3   OH237087   6.055   3.724  16.305  0.8570 -0.2630  0.1599
 5199TIP3    H137088   6.137   3.762  16.336  1.3086 -2.0542  1.2816
 5199TIP3    H237089   5.986   3.781  16.341  1.5387  0.4095  0.4241
 5200TIP3   OH237090   1.035   4.117   2.081 -0.4091 -0.0190  0.3617
 5200TIP3    H137091   1.087   4.127   2.160  1.0723 -0.8645 -0.4528
 5200TIP3    H237092   1.098   4.086   2.015 -1.3655  1.6543 -1.4295
 5201TIP3   OH237093   3.433   3.863   1.313  0.3250 -0.1419  0.2889
 5201TIP3    H137094   3.360   3.840   1.256 -0.2582 -0.0074  0.9672
 5201TIP3    H237095   3.426   3.958   1.324  1.0828 -0.0138 -0.2878
 5202TIP3   OH237096   2.557   2.255  14.470  0.1938  1.0984 -0.6550
 5202TIP3    H137097   2.508   2.328  14.432  0.4436  1.4320 -0.3444
 5202TIP3    H237098   2.490   2.193  14.497 -0.1661  2.1772  1.0674
 5203TIP3   OH237099   3.947   3.263   2.259 -0.6084 -0.0699 -0.0335
 5203TIP3    H137100   3.997   3.344   2.269 -1.3172  0.1643  2.3515
 5203TIP3    H237101   3.856   3.292   2.250 -0.6640 -0.5709 -1.2456
 5204TIP3   OH237102   3.994   6.709  15.253 -0.0578 -0.8187 -0.0435
 5204TIP3    H137103   3.926   6.770  15.280  0.7257  0.6514 -1.2506
 5204TIP3    H237104   3.966   6.624  15.288 -1.7489  0.0124  0.7080
 5205TIP3   OH237105   4.779   5.413  11.485 -0.5342 -1.0229  0.4691
 5205TIP3    H137106   4.825   5.462  11.416  1.5190 -1.5048  1.4198
 5205TIP3    H237107   4.743   5.481  11.542  0.3277 -0.6035  0.5330
 5206TIP3   OH237108   1.720   2.307  17.012  0.0364  0.1355 -0.0210
 5206TIP3    H137109   1.789   2.283  16.950 -0.3711 -2.0951  0.2859
 5206TIP3    H237110   1.641   2.316  16.958  0.1647  0.7346 -0.1205
 5207TIP3   OH237111   1.521   2.304   3.745 -0.0928  0.0924  0.0877
 5207TIP3    H137112   1.529   2.284   3.652 -0.2394  0.8385 -0.0893
 5207TIP3    H237113   1.554   2.393   3.754 -2.9036  1.2270  0.2265
 5208TIP3   OH237114   3.414   0.015  12.636 -0.0593  0.0275  0.4939
 5208TIP3    H137115   3.509   0.001  12.640 -0.3738 -2.3453  1.4700
 5208TIP3    H237116   3.377  -0.068  12.667 -2.4646  0.8198 -0.0940
 5209TIP3   OH237117   6.789   3.834  11.595 -0.1461 -0.2376  0.7073
 5209TIP3    H137118   6.768   3.815  11.687 -0.5193  0.9680  0.8910
 5209TIP3    H237119   6.727   3.781  11.545  0.0117 -0.8481  1.1393
 5210TIP3   OH237120   6.031   1.556   3.855 -0.6162 -0.3350 -0.8899
 5210TIP3    H137121   5.989   1.609   3.787 -0.5171  0.3661 -0.4179
 5210TIP3    H237122   6.104   1.512   3.810 -0.7553 -0.1411 -1.3083
 5211TIP3   OH237123   4.327   6.549  13.270  0.0980 -0.4997 -0.9229
 5211TIP3    H137124   4.339   6.454  13.278  2.3115 -0.1378  1.2327
 5211TIP3    H237125   4.414   6.583  13.250  0.3274  1.3507  2.5283
 5212TIP3   OH237126   4.833   3.807   6.528  0.3561  0.2900  0.6098
 5212TIP3    H137127   4.924   3.820   6.502 -0.1527  0.9156 -0.9902
 5212TIP3    H237128   4.824   3.713   6.538  0.7868  0.0556 -0.9000
 5213TIP3   OH237129   6.502   5.105   3.359  0.3303  0.1437 -0.2589
 5213TIP3    H137130   6.574   5.071   3.306 -0.0851  0.5435 -1.0961
 5213TIP3    H237131   6.527   5.195   3.380  0.4368  0.0268  0.1376
 5214TIP3   OH237132   1.590   4.891  12.866 -0.3786  0.0448 -0.2788
 5214TIP3    H137133   1.574   4.878  12.960  1.0079  0.6578  0.0722
 5214TIP3    H237134   1.646   4.969  12.862  0.7985 -0.8112 -1.5044
 5215TIP3   OH237135   2.018   5.661   4.002  0.3501 -0.0121 -0.4102
 5215TIP3    H137136   1.996   5.716   4.077  0.7542  0.3837 -0.5809
 5215TIP3    H237137   2.096   5.613   4.030  0.7741  0.4730 -0.7352
 5216TIP3   OH237138   6.500   6.626   4.864 -0.1279 -0.0886  0.4716
 5216TIP3    H137139   6.560   6.683   4.912 -0.1616 -0.2359  0.6894
 5216TIP3    H237140   6.450   6.581   4.932 -0.6393  0.1960  0.2886
 5217TIP3   OH237141   3.402   3.217  11.752  0.6688 -0.0005 -0.3295
 5217TIP3    H137142   3.401   3.127  11.718  0.6130 -0.4784  0.8954
 5217TIP3    H237143   3.419   3.271  11.675 -1.1462 -0.8905 -1.4221
 5218TIP3   OH237144   0.492   5.352  11.906 -0.1525 -0.5485  0.3668
 5218TIP3    H137145   0.531   5.384  11.825  0.6861 -2.1925  0.0687
 5218TIP3    H237146   0.409   5.399  11.913 -0.7729 -1.1273 -2.0418
 5219TIP3   OH237147   2.850   0.008  16.787 -0.2711 -0.1634  0.8936
 5219TIP3    H137148   2.879   0.064  16.858  1.4296 -1.9480  1.6906
 5219TIP3    H237149   2.918   0.015  16.721  0.3711 -1.7750  1.3216
 5220TIP3   OH237150   3.958   1.271   3.711  0.2564 -0.0107 -0.7895
 5220TIP3    H137151   3.971   1.354   3.756 -1.3082  0.6488 -1.4682
 5220TIP3    H237152   3.889   1.289   3.647 -0.0933 -1.8214 -0.9836
 5221TIP3   OH237153   6.666   1.786   4.253 -0.0465  0.2924  0.5600
 5221TIP3    H137154   6.750   1.805   4.295  1.3510 -0.0096 -1.8797
 5221TIP3    H237155   6.686   1.715   4.191 -0.9691  3.0934 -3.3007
 5222TIP3   OH237156   0.262   5.021  11.208 -0.2324  0.5421 -0.0944
 5222TIP3    H137157   0.210   4.989  11.282 -0.5388 -0.2146 -0.6223
 5222TIP3    H237158   0.353   5.012  11.236 -0.3126 -0.7151 -0.1733
 5223TIP3   OH237159   6.335   2.995  15.189 -0.3857 -0.4805  0.1971
 5223TIP3    H137160   6.380   3.077  15.211 -2.4139  0.9343 -0.6146
 5223TIP3    H237161   6.250   3.003  15.231 -0.3799 -2.5357  0.6722
 5224TIP3   OH237162   0.545   1.545  14.600  0.5147 -0.3676 -0.2446
 5224TIP3    H137163   0.502   1.610  14.657 -1.4861 -0.7595 -1.2044
 5224TIP3    H237164   0.552   1.467  14.655  0.1489 -0.2343 -0.0022
 5225TIP3   OH237165   6.645   5.750   5.240 -0.2911  0.3440  0.6134
 5225TIP3    H137166   6.660   5.800   5.159 -1.6309 -1.2510 -0.7081
 5225TIP3    H237167   6.718   5.688   5.244 -1.3071 -0.9924 -0.5833
 5226TIP3   OH237168   3.658   5.655   6.138 -0.3518 -0.5784  0.3671
 5226TIP3    H137169   3.583   5.620   6.091 -1.4113  1.8950  0.0226
 5226TIP3    H237170   3.630   5.656   6.230 -0.1521 -1.0157  0.4340
 5227TIP3   OH237171   5.770   2.867   4.686 -0.3059 -0.1360 -0.0765
 5227TIP3    H137172   5.862   2.891   4.675 -0.2718  0.7311  1.7700
 5227TIP3    H237173   5.733   2.937   4.740 -1.5802 -1.4491  0.8291
 5228TIP3   OH237174   2.964   1.442   4.340 -0.2868 -0.6557 -0.4403
 5228TIP3    H137175   3.034   1.378   4.353  0.6265  0.3088 -0.4893
 5228TIP3    H237176   2.933   1.463   4.428 -0.8523 -1.4415 -0.4464
 5229TIP3   OH237177   5.192   0.119   5.474 -0.6865  0.0594  0.1297
 5229TIP3    H137178   5.197   0.114   5.379 -0.3711 -0.0876  0.1520
 5229TIP3    H237179   5.212   0.030   5.504 -2.1821 -0.2488  0.2901
 5230TIP3   OH237180   2.030   2.843  10.589  0.1359 -0.1689 -0.1334
 5230TIP3    H137181   2.050   2.888  10.507 -0.0375 -0.3995 -0.3029
 5230TIP3    H237182   1.949   2.884  10.619  0.8558  0.7824  0.5680
 5231TIP3   OH237183   5.205   1.890  16.776  0.6113 -0.1474  0.3933
 5231TIP3    H137184   5.161   1.823  16.828  0.4146 -0.4889 -0.2061
 5231TIP3    H237185   5.134   1.946  16.745  0.8756  1.0536  1.8701
 5232TIP3   OH237186   1.213   4.830   1.702  0.5398 -0.0336  0.0844
 5232TIP3    H137187   1.224   4.901   1.765  1.0282 -1.5750  1.8392
 5232TIP3    H237188   1.123   4.800   1.714 -0.4886  1.7413 -2.3608
 5233TIP3   OH237189   3.322   2.544  12.739  0.4567 -0.7344  0.0497
 5233TIP3    H137190   3.354   2.622  12.694  2.6283 -1.8985 -0.6113
 5233TIP3    H237191   3.281   2.577  12.819 -3.8844  1.4574 -2.7290
 5234TIP3   OH237192   2.412   5.570   5.897 -0.2310 -0.1507  0.2209
 5234TIP3    H137193   2.459   5.490   5.919  0.2680  0.4045  1.2598
 5234TIP3    H237194   2.461   5.639   5.942 -1.3639  0.5894  0.3508
 5235TIP3   OH237195   6.293   5.502   1.694  0.4974  0.2059  0.1229
 5235TIP3    H137196   6.366   5.545   1.738  0.5351  0.6852 -0.3856
 5235TIP3    H237197   6.295   5.538   1.605 -1.5128  1.6875  0.6140
 5236TIP3   OH237198   2.541   3.726  10.440 -0.3922 -0.0903  0.4214
 5236TIP3    H137199   2.501   3.645  10.408  0.7984 -0.2620 -0.7434
 5236TIP3    H237200   2.478   3.794  10.417 -0.8548 -0.5554  0.2855
 5237TIP3   OH237201   6.429   1.358  15.225  0.1924  0.1991  0.5733
 5237TIP3    H137202   6.497   1.400  15.173  2.7376 -2.7497  1.2366
 5237TIP3    H237203   6.374   1.313  15.161  0.3377  0.5709  0.1859
 5238TIP3   OH237204   1.735   1.885   2.983  0.0242  0.8574  0.0873
 5238TIP3    H137205   1.761   1.798   2.953  1.2305  1.3751 -0.4319
 5238TIP3    H237206   1.644   1.874   3.012  0.0539 -0.4968 -0.2560
 5239TIP3   OH237207   3.322   3.119  13.770  0.0669  0.4810  0.7032
 5239TIP3    H137208   3.322   3.055  13.699  0.6416  2.0680 -0.8078
 5239TIP3    H237209   3.240   3.104  13.816 -1.5766  0.9963 -1.8645
 5240TIP3   OH237210   1.145   3.613   4.103 -0.0495 -0.3966  0.6406
 5240TIP3    H137211   1.172   3.672   4.033 -2.5802  0.0706 -0.0473
 5240TIP3    H237212   1.130   3.529   4.059  0.7870 -0.8108  1.1138
 5241TIP3   OH237213   3.243   2.705   3.159 -0.4537 -0.1777 -0.5615
 5241TIP3    H137214   3.255   2.655   3.239 -2.7840 -0.5146 -0.3426
 5241TIP3    H237215   3.309   2.774   3.163  0.4597 -1.0870  0.8851
 5242TIP3   OH237216   0.663   0.348   1.637 -0.0570  0.3067 -0.0172
 5242TIP3    H137217   0.663   0.442   1.658 -2.3165  0.0173  1.6105
 5242TIP3    H237218   0.632   0.344   1.547  1.8664  1.1635 -0.7806
 5243TIP3   OH237219   2.339   5.282  12.676  0.4911 -0.0995 -0.2323
 5243TIP3    H137220   2.397   5.226  12.625 -0.5026  0.3654 -1.9899
 5243TIP3    H237221   2.390   5.362  12.692  1.3525 -0.8505  0.8941
 5244TIP3   OH237222   2.202   6.239  12.366 -0.0671 -0.1222  0.1854
 5244TIP3    H137223   2.244   6.177  12.426 -0.7889 -0.4785  0.3285
 5244TIP3    H237224   2.266   6.251  12.296  1.0149  0.6949  1.2606
 5245TIP3   OH237225   2.761   3.216   6.564 -0.2758  1.1200  0.1865
 5245TIP3    H137226   2.799   3.146   6.511 -0.9598  0.5605  0.4156
 5245TIP3    H237227   2.676   3.232   6.524 -0.2221  1.6525  0.2858
 5246TIP3   OH237228   4.462   3.072  12.178  0.3250 -0.0694  0.0592
 5246TIP3    H137229   4.455   3.021  12.259  0.5145  0.3336  0.3387
 5246TIP3    H237230   4.516   3.018  12.120  0.8057 -0.0476  0.4710
 5247TIP3   OH237231   4.615   4.347   4.845 -0.1173 -0.2931 -0.0579
 5247TIP3    H137232   4.706   4.368   4.825 -0.1487  0.6412  0.7539
 5247TIP3    H237233   4.574   4.338   4.759  0.1259  2.0357 -0.4826
 5248TIP3   OH237234   1.669   2.399   3.426  0.2015  0.1640 -0.2231
 5248TIP3    H137235   1.668   2.479   3.479 -0.4760  0.3201 -0.4659
 5248TIP3    H237236   1.754   2.401   3.382  0.3625  0.5381  0.0953
 5249TIP3   OH237237   3.935   4.398  14.694  0.8880  0.0460  0.5284
 5249TIP3    H137238   3.924   4.315  14.647 -1.2175 -0.1509  1.2427
 5249TIP3    H237239   3.889   4.384  14.777 -3.4089  3.1735 -0.9380
 5250TIP3   OH237240   1.110   4.873   3.678  0.0080 -0.2536 -0.3673
 5250TIP3    H137241   1.155   4.806   3.729  1.8577  1.1502 -0.0479
 5250TIP3    H237242   1.018   4.847   3.680  0.2791 -1.3040  2.0154
 5251TIP3   OH237243   5.271   6.552   4.151  0.2985  0.1065  0.3442
 5251TIP3    H137244   5.316   6.631   4.121  1.0281 -0.7804 -1.0250
 5251TIP3    H237245   5.339   6.501   4.195  0.4546 -0.8309 -0.9314
 5252TIP3   OH237246   6.412   4.009   1.885  0.0228  0.2724 -0.7545
 5252TIP3    H137247   6.369   3.923   1.878  0.4324 -0.0048  0.1023
 5252TIP3    H237248   6.440   4.029   1.795  1.3286 -1.2229 -0.7179
 5253TIP3   OH237249   5.032   1.224   1.083  0.5749 -0.0902 -0.1318
 5253TIP3    H137250   4.959   1.283   1.102  1.5273  1.3206 -0.7030
 5253TIP3    H237251   5.019   1.199   0.991  1.1305  0.6821 -0.4355
 5254TIP3   OH237252   5.756   1.869  12.505  0.0695 -0.0719 -0.0624
 5254TIP3    H137253   5.770   1.955  12.545 -1.0957 -0.5418  1.4457
 5254TIP3    H237254   5.663   1.868  12.482  0.2537 -0.6330 -0.8438
 5255TIP3   OH237255   4.293   0.089   3.761 -0.2195 -0.0096  0.3787
 5255TIP3    H137256   4.270   0.002   3.793  1.1753  0.2886  2.3909
 5255TIP3    H237257   4.211   0.139   3.766 -0.6669 -0.7717  0.7649
 5256TIP3   OH237258   1.240   5.281  11.951 -0.3018  0.1659 -0.0934
 5256TIP3    H137259   1.233   5.196  11.994 -0.2693 -0.1014 -0.6024
 5256TIP3    H237260   1.150   5.310  11.939 -0.3017  0.4414  0.5308
 5257TIP3   OH237261   2.255   3.156   2.766  0.1617 -0.7146 -0.8755
 5257TIP3    H137262   2.179   3.133   2.713 -0.1356 -1.0876 -0.3095
 5257TIP3    H237263   2.256   3.089   2.835  0.6472 -0.3525 -0.5283
 5258TIP3   OH237264   2.518   3.467   0.931  0.1714  0.3979 -0.3489
 5258TIP3    H137265   2.558   3.489   0.846  1.9521 -1.6299 -0.1148
 5258TIP3    H237266   2.465   3.390   0.913  0.5901 -0.0644  0.3987
 5259TIP3   OH237267   3.145   0.002   4.151  0.0757 -0.6463  0.6220
 5259TIP3    H137268   3.110  -0.061   4.213  1.7422 -2.0944  0.1703
 5259TIP3    H237269   3.152  -0.046   4.068 -0.0633  0.5897 -0.1343
 5260TIP3   OH237270   3.246   4.896   0.992  0.2014  0.0378  0.1314
 5260TIP3    H137271   3.306   4.848   0.935 -0.8088 -0.6817 -0.3703
 5260TIP3    H237272   3.187   4.941   0.931 -2.3021 -2.4827  0.4556
 5261TIP3   OH237273   6.678   3.016  12.567  0.2088  0.1311  0.1352
 5261TIP3    H137274   6.723   3.099  12.583  1.4295 -0.6794  1.0960
 5261TIP3    H237275   6.623   3.033  12.491  2.9056  0.9198 -1.7607
 5262TIP3   OH237276   2.289   6.527   4.160  0.4340 -0.1500 -0.1340
 5262TIP3    H137277   2.245   6.476   4.227  2.5294  0.2868  1.6861
 5262TIP3    H237278   2.261   6.617   4.175 -2.1750 -0.4074 -2.4760
 5263TIP3   OH237279   3.527   1.609  12.960 -0.1778 -0.3056  0.7084
 5263TIP3    H137280   3.615   1.571  12.964  0.4033  1.0293  1.2162
 5263TIP3    H237281   3.521   1.647  12.872  0.0625  0.2844  0.9408
 5264TIP3   OH237282   2.363   3.283  16.823  0.4219  0.2098  0.6088
 5264TIP3    H137283   2.370   3.243  16.736 -0.4193  0.1424  0.5669
 5264TIP3    H237284   2.384   3.375  16.810 -1.3626  0.5768  0.0015
 5265TIP3   OH237285   1.425   1.510   2.811 -0.0973  0.1244 -0.5592
 5265TIP3    H137286   1.333   1.490   2.796 -0.1178 -0.4062  0.2130
 5265TIP3    H237287   1.469   1.425   2.802  0.1998  0.2286 -0.0816
 5266TIP3   OH237288   5.305   1.146   0.776  0.0846  0.2415 -0.1354
 5266TIP3    H137289   5.269   1.177   0.859  0.9744  0.1158  0.3104
 5266TIP3    H237290   5.232   1.101   0.734  0.1453 -1.6011  1.5570
 5267TIP3   OH237291   3.808   4.394  11.127 -0.7377 -0.0509  0.6104
 5267TIP3    H137292   3.787   4.402  11.221  0.7244  0.6888  0.9035
 5267TIP3    H237293   3.744   4.450  11.084 -0.3841  0.9371  1.3293
 5268TIP3   OH237294   1.691   2.828   2.882 -0.1185  0.5432  1.1416
 5268TIP3    H137295   1.764   2.887   2.902 -0.6423  2.0300 -1.0161
 5268TIP3    H237296   1.731   2.754   2.837  0.1540  0.9437  0.7271
 5269TIP3   OH237297   4.138   6.239   2.259  0.3906 -0.0454  0.9436
 5269TIP3    H137298   4.136   6.334   2.265 -0.9522  0.0430 -0.2208
 5269TIP3    H237299   4.159   6.209   2.347  0.3658  1.3096  1.4282
 5270TIP3   OH237300   4.218   1.221   6.197 -0.1286  0.0494  0.0456
 5270TIP3    H137301   4.210   1.303   6.245  1.3004  0.1711  0.1272
 5270TIP3    H237302   4.143   1.169   6.225 -0.3507  0.8318  0.9608
 5271TIP3   OH237303   5.497   4.125  10.967  0.2099 -0.5733 -0.0226
 5271TIP3    H137304   5.408   4.149  10.942  0.2431 -1.4916 -1.1065
 5271TIP3    H237305   5.504   4.150  11.059 -0.7934  0.5295 -0.2213
 5272TIP3   OH237306   0.758   2.888   0.978 -0.4131 -0.3154 -0.1527
 5272TIP3    H137307   0.783   2.975   1.008 -0.5795 -0.3458  0.0841
 5272TIP3    H237308   0.826   2.863   0.916  0.4426 -0.6014  0.8629
 5273TIP3   OH237309   4.353   6.819  13.732  0.6439  0.2283 -0.3046
 5273TIP3    H137310   4.387   6.740  13.692 -0.1160 -0.9839  1.3257
 5273TIP3    H237311   4.397   6.824  13.817  0.3892  1.3520 -0.2152
 5274TIP3   OH237312   4.690   6.438   3.639  0.1713  0.2630 -0.6017
 5274TIP3    H137313   4.734   6.355   3.658 -2.5973 -1.1457  0.2890
 5274TIP3    H237314   4.680   6.440   3.544  0.9579 -0.0379 -0.6908
 5275TIP3   OH237315   1.114   1.375   4.446 -0.1243  0.1880 -0.1334
 5275TIP3    H137316   1.109   1.285   4.479  1.6513  0.5198  1.2205
 5275TIP3    H237317   1.093   1.368   4.353 -0.7399 -1.5180  0.1028
 5276TIP3   OH237318   6.770   5.171  12.411  0.2127 -0.5071 -0.3556
 5276TIP3    H137319   6.858   5.200  12.387 -0.1738 -0.5207 -1.9253
 5276TIP3    H237320   6.736   5.132  12.330 -1.5872  0.3870 -0.0642
 5277TIP3   OH237321   2.585   1.259   1.098  0.1304 -0.3871  0.0132
 5277TIP3    H137322   2.576   1.195   1.027 -0.9445 -1.0129  0.6850
 5277TIP3    H237323   2.662   1.230   1.146 -0.1601 -0.9987  0.1227
 5278TIP3   OH237324   2.266   5.386   3.659 -0.0259  0.5462 -0.2785
 5278TIP3    H137325   2.266   5.474   3.695 -0.1052  0.2398  0.4882
 5278TIP3    H237326   2.200   5.339   3.710  2.2732 -0.8452  1.6317
 5279TIP3   OH237327   2.146   2.796   1.081 -0.3803 -0.1018  0.1415
 5279TIP3    H137328   2.193   2.798   1.164 -0.4992  1.7660  0.2033
 5279TIP3    H237329   2.064   2.751   1.100 -0.3352  0.1667  0.9884
 5280TIP3   OH237330   2.724   6.759  17.020 -0.6589 -0.1781  0.4363
 5280TIP3    H137331   2.746   6.851  17.005  1.2622 -0.6191  0.2898
 5280TIP3    H237332   2.657   6.739  16.954  0.5309  0.5411 -1.0409
 5281TIP3   OH237333   4.992   4.925  14.804  0.4666 -0.2735 -0.2218
 5281TIP3    H137334   5.069   4.880  14.768  1.8564  0.7118  1.3563
 5281TIP3    H237335   4.977   4.999  14.746  2.3380  0.9837  0.7905
 5282TIP3   OH237336   4.400   1.017   2.670 -0.2645 -0.6303 -0.0291
 5282TIP3    H137337   4.446   0.938   2.644  2.9450  1.6071 -1.9409
 5282TIP3    H237338   4.433   1.035   2.759 -1.0474 -1.4229  0.4321
 5283TIP3   OH237339   2.151   3.465  13.317 -0.3136 -0.0949  0.7236
 5283TIP3    H137340   2.132   3.487  13.225 -1.0946 -2.0400  0.3601
 5283TIP3    H237341   2.128   3.543  13.366  0.0601  0.9681 -0.7324
 5284TIP3   OH237342   4.744   1.987   0.211  0.0872  0.1766  0.0675
 5284TIP3    H137343   4.801   2.060   0.186  1.8506 -0.4819  1.8830
 5284TIP3    H237344   4.723   1.943   0.128 -2.0019  3.2833 -1.2664
 5285TIP3   OH237345   3.380   5.206   4.224  0.2804  0.3488  0.4060
 5285TIP3    H137346   3.435   5.274   4.262 -0.6410  1.2885  0.1317
 5285TIP3    H237347   3.341   5.161   4.299 -2.1091  2.6676  0.6980
 5286TIP3   OH237348   0.875   3.544   1.327 -0.1035  0.3189  0.7098
 5286TIP3    H137349   0.854   3.508   1.240 -0.3354 -1.7560  1.5778
 5286TIP3    H237350   0.798   3.597   1.349 -0.1786  0.6169 -0.2242
 5287TIP3   OH237351   5.714   0.515  12.184  0.2479 -0.3981 -0.3533
 5287TIP3    H137352   5.725   0.453  12.112 -1.3641 -1.9430  0.6358
 5287TIP3    H237353   5.627   0.495  12.220  0.7904  0.6303  1.7110
 5288TIP3   OH237354   3.001   1.406  12.021 -0.0997  0.0758  0.1430
 5288TIP3    H137355   2.968   1.476  11.965  0.2664 -0.8864 -1.3417
 5288TIP3    H237356   2.923   1.373  12.066 -0.3106  1.2368  0.6624
 5289TIP3   OH237357   0.403   4.733  13.386  0.1307 -0.5678 -0.0334
 5289TIP3    H137358   0.404   4.661  13.450 -0.0537 -1.1493 -0.6635
 5289TIP3    H237359   0.380   4.690  13.303 -0.3869  0.2899 -0.3440
 5290TIP3   OH237360   5.624   2.256  16.128 -0.5069 -0.2587 -0.0471
 5290TIP3    H137361   5.557   2.268  16.196 -0.0067 -0.1112  0.4271
 5290TIP3    H237362   5.583   2.289  16.048 -0.4060  1.3901  0.5544
 5291TIP3   OH237363   0.119   1.294  15.701  0.1681 -0.4397 -0.3266
 5291TIP3    H137364   0.198   1.318  15.749 -0.2241 -1.4870  0.9044
 5291TIP3    H237365   0.049   1.299  15.767 -0.8563  0.6779 -1.4384
 5292TIP3   OH237366   0.046   4.304   3.130  0.2555 -0.1186  0.5074
 5292TIP3    H137367   0.135   4.339   3.127  0.7683 -1.0763  2.8231
 5292TIP3    H237368   0.021   4.308   3.222 -2.0354 -0.1022 -0.0464
 5293TIP3   OH237369   4.097   4.386  11.372 -0.3186 -0.1404 -0.6450
 5293TIP3    H137370   4.145   4.303  11.363 -0.7314 -0.5493  0.6179
 5293TIP3    H237371   4.010   4.368  11.335  0.5492  0.7188 -3.2987
 5294TIP3   OH237372   3.403   1.145   5.464 -0.4950 -0.9164 -0.2394
 5294TIP3    H137373   3.374   1.221   5.515  0.6045 -0.7592  0.1873
 5294TIP3    H237374   3.399   1.072   5.526  0.2097 -0.8515 -0.1140
 5295TIP3   OH237375   3.610   1.486  15.804 -0.0982  0.6003  0.1411
 5295TIP3    H137376   3.669   1.524  15.870  2.3155 -2.0147 -0.3000
 5295TIP3    H237377   3.657   1.496  15.721 -1.7161  1.1411 -0.7536
 5296TIP3   OH237378   1.267   0.280   3.395 -0.1469  0.1693 -0.0595
 5296TIP3    H137379   1.227   0.194   3.406  0.2276 -0.0325 -0.2724
 5296TIP3    H237380   1.212   0.323   3.329  0.7230 -0.5823 -1.3159
 5297TIP3   OH237381   3.304   1.865   5.109  0.7248 -0.0628 -0.3488
 5297TIP3    H137382   3.279   1.889   5.019 -0.5745  1.2786  0.3282
 5297TIP3    H237383   3.237   1.802   5.137 -0.1282  1.1254  0.3759
 5298TIP3   OH237384   6.545   4.049  16.957 -0.1039  0.0233  0.6325
 5298TIP3    H137385   6.608   4.119  16.941  0.0847 -0.5689 -1.5333
 5298TIP3    H237386   6.598   3.969  16.958 -0.5037 -0.2524  1.6490
 5299TIP3   OH237387   2.083   0.611   3.312  0.1010  0.2011  0.0349
 5299TIP3    H137388   2.060   0.691   3.360 -2.0913 -1.4852  2.0236
 5299TIP3    H237389   2.173   0.592   3.339  0.7918  2.0958 -0.7372
 5300TIP3   OH237390   1.053   2.278  13.850 -0.5462  0.2879  0.0275
 5300TIP3    H137391   1.053   2.242  13.761 -1.3513  0.0915  0.0982
 5300TIP3    H237392   0.999   2.216  13.900 -0.0994  0.3997  0.6502
 5301TIP3   OH237393   3.326   3.408  12.329  0.1730  0.2579  0.6174
 5301TIP3    H137394   3.376   3.334  12.363  0.9166  0.4345 -0.0784
 5301TIP3    H237395   3.248   3.412  12.385  1.6562  0.9437  2.7325
 5302TIP3   OH237396   1.439   5.175  14.425  0.6335 -0.2337 -0.2557
 5302TIP3    H137397   1.529   5.191  14.453  1.0590 -1.3842 -0.9070
 5302TIP3    H237398   1.389   5.167  14.506  0.7210  2.2419  0.1333
 5303TIP3   OH237399   0.717   2.199   3.242  0.0340  0.0564  0.1445
 5303TIP3    H137400   0.653   2.260   3.278 -2.0446 -1.8094 -0.1367
 5303TIP3    H237401   0.679   2.170   3.159  1.1048 -1.3258  0.0931
 5304TIP3   OH237402   4.546   6.378   6.532 -0.0156 -0.0421  0.5662
 5304TIP3    H137403   4.571   6.310   6.594 -1.2809  1.1849  2.5508
 5304TIP3    H237404   4.555   6.460   6.581  1.1450  1.2528 -1.6320
 5305TIP3   OH237405   3.929   0.465  14.357 -0.2006  0.1577 -0.3409
 5305TIP3    H137406   3.863   0.433  14.419 -1.1279  2.8473  0.2290
 5305TIP3    H237407   3.880   0.520  14.296  1.3297  1.4104 -0.5197
 5306TIP3   OH237408   6.522   3.558   3.838 -0.1006  0.0503 -0.0208
 5306TIP3    H137409   6.449   3.516   3.883 -0.5526  1.5552  0.7125
 5306TIP3    H237410   6.530   3.511   3.755 -0.7981 -1.2276  0.6125
 5307TIP3   OH237411   6.523   2.556  13.315  0.2287 -0.1720 -0.0982
 5307TIP3    H137412   6.523   2.522  13.405 -1.0769 -1.4383 -0.5219
 5307TIP3    H237413   6.433   2.541  13.285  1.0004 -1.1104 -2.0797
 5308TIP3   OH237414   1.029   1.842  15.060  0.1827 -0.3517 -0.0172
 5308TIP3    H137415   1.038   1.855  15.154  0.0261  2.1038 -0.2809
 5308TIP3    H237416   1.116   1.812  15.032  1.4001  2.3321  0.4877
 5309TIP3   OH237417   2.333   3.401  16.130  0.0500 -0.5818  0.0131
 5309TIP3    H137418   2.425   3.423  16.144  0.2856 -1.5370  0.0191
 5309TIP3    H237419   2.294   3.402  16.217 -0.2635  1.0945 -0.1043
 5310TIP3   OH237420   0.678   5.456  10.327 -0.2709  0.5504 -0.5941
 5310TIP3    H137421   0.637   5.495  10.250 -0.9718  2.9177  0.8738
 5310TIP3    H237422   0.608   5.405  10.368  0.3962 -1.6705 -2.0051
 5311TIP3   OH237423   1.474   4.795   0.286 -0.3955 -0.3104  0.8563
 5311TIP3    H137424   1.469   4.859   0.215 -1.7127 -1.9454 -0.6180
 5311TIP3    H237425   1.565   4.764   0.285 -1.0604 -2.7121 -2.4872
 5312TIP3   OH237426   3.034   5.315  11.637 -0.1019  0.2646 -0.3177
 5312TIP3    H137427   3.004   5.402  11.662  1.6167  0.5801  0.8765
 5312TIP3    H237428   2.974   5.255  11.680  0.3496  0.8635  1.2052
 5313TIP3   OH237429   6.843   2.630  15.039  0.1161 -0.1306 -0.0421
 5313TIP3    H137430   6.828   2.681  15.119 -1.5821  0.4736 -0.7226
 5313TIP3    H237431   6.779   2.559  15.044 -0.5600  0.3780 -1.2495
 5314TIP3   OH237432   0.472   3.348   3.378 -0.1677  0.2174 -0.3945
 5314TIP3    H137433   0.398   3.381   3.429 -1.6386 -0.4617 -2.0013
 5314TIP3    H237434   0.465   3.393   3.294 -0.0559 -1.4386 -1.3272
 5315TIP3   OH237435   2.160   1.655   1.139 -0.1575  0.1209  0.2179
 5315TIP3    H137436   2.234   1.708   1.110 -0.5487  0.3838 -0.3276
 5315TIP3    H237437   2.149   1.678   1.232  0.7580 -0.3111  0.4422
 5316TIP3   OH237438   1.482   4.234  12.589 -0.0312  0.1552  0.2466
 5316TIP3    H137439   1.507   4.183  12.511  1.8160  0.8802  0.3275
 5316TIP3    H237440   1.447   4.316  12.554 -1.8138 -0.5918  0.1535
 5317TIP3   OH237441   5.799   3.918  15.044  0.3118  0.3424  0.0404
 5317TIP3    H137442   5.806   3.895  15.136 -2.4959 -0.9696  0.0264
 5317TIP3    H237443   5.759   4.005  15.044  0.9853  0.6549  0.0524
 5318TIP3   OH237444   3.300   0.606   0.648  0.1118 -0.3526  0.1554
 5318TIP3    H137445   3.286   0.574   0.559  0.8083 -0.2675  0.0115
 5318TIP3    H237446   3.388   0.575   0.672  0.8448  1.4723 -0.0150
 5319TIP3   OH237447   4.880   0.041  12.799 -0.0862 -0.3993 -0.1560
 5319TIP3    H137448   4.861  -0.039  12.749  0.5966  0.7457 -2.3526
 5319TIP3    H237449   4.804   0.097  12.784 -0.8187 -0.7733  1.8338
 5320TIP3   OH237450   1.513   6.052   4.835  1.0201 -0.2783 -0.0312
 5320TIP3    H137451   1.533   6.033   4.927  0.4900 -0.3960  0.0648
 5320TIP3    H237452   1.594   6.089   4.800  0.7718  1.1948  0.8831
 5321TIP3   OH237453   5.183   1.341  14.646 -0.1934  0.2072 -0.3219
 5321TIP3    H137454   5.170   1.247  14.640  0.9335 -0.1197  1.5110
 5321TIP3    H237455   5.112   1.372  14.702  0.1847  0.2373  0.1441
 5322TIP3   OH237456   1.352   6.620   2.968 -0.4106  0.0761 -0.2817
 5322TIP3    H137457   1.321   6.706   2.942  0.8572  0.3819 -0.8400
 5322TIP3    H237458   1.416   6.637   3.037 -0.6672 -0.4683  0.0970
 5323TIP3   OH237459   1.164   0.913   3.709 -0.4199 -0.5554 -0.5818
 5323TIP3    H137460   1.204   0.846   3.654  1.2785  0.3453 -0.5071
 5323TIP3    H237461   1.223   0.920   3.785  0.0517  1.7286 -1.0844
 5324TIP3   OH237462   5.386   1.032   3.406 -0.1220 -0.4240  0.8965
 5324TIP3    H137463   5.353   1.021   3.495 -0.4957 -0.8192  0.7107
 5324TIP3    H237464   5.427   0.948   3.385 -0.1268 -0.3659  0.6542
 5325TIP3   OH237465   6.749   4.601  11.230 -0.0215 -0.0586  0.0004
 5325TIP3    H137466   6.803   4.659  11.177 -1.8136  2.1616  0.4304
 5325TIP3    H237467   6.810   4.538  11.268  1.8846  0.9596 -1.2393
 5326TIP3   OH237468   5.268   6.453  14.773 -0.0518 -0.0891 -0.5815
 5326TIP3    H137469   5.316   6.445  14.691 -0.1385 -1.9846 -0.4844
 5326TIP3    H237470   5.314   6.522  14.821  2.0572 -1.2440 -0.8356
 5327TIP3   OH237471   5.626   2.298  13.903  0.1450  0.2454 -0.3421
 5327TIP3    H137472   5.551   2.270  13.955  1.6487  0.3080  1.9942
 5327TIP3    H237473   5.616   2.251  13.820 -2.3897  0.1897 -0.0883
 5328TIP3   OH237474   5.552   3.428   3.259 -0.3811  0.0073 -0.5021
 5328TIP3    H137475   5.616   3.480   3.307 -2.1892  1.0922  0.8251
 5328TIP3    H237476   5.544   3.472   3.174 -0.5655  0.8162 -0.0696
 5329TIP3   OH237477   3.695   1.634   3.297  0.1137  0.0449 -0.2606
 5329TIP3    H137478   3.697   1.672   3.385 -0.0649 -0.5822  0.0121
 5329TIP3    H237479   3.788   1.621   3.275  0.1264 -0.7997  0.2697
 5330TIP3   OH237480   2.644   1.377  10.796 -0.3144  0.4009 -0.3215
 5330TIP3    H137481   2.622   1.338  10.712  1.5305  0.2431 -0.7532
 5330TIP3    H237482   2.575   1.442  10.811 -1.9450 -1.1301 -0.8353
 5331TIP3   OH237483   6.335   0.502   6.028  0.1660 -0.0721 -0.3381
 5331TIP3    H137484   6.354   0.427   5.971 -0.4262 -0.0159 -0.6164
 5331TIP3    H237485   6.411   0.509   6.085 -0.0939 -1.3384  0.1879
 5332TIP3   OH237486   2.596   3.815   2.766 -0.1225  0.3755 -0.3796
 5332TIP3    H137487   2.569   3.868   2.691  0.3132 -0.8301 -1.4313
 5332TIP3    H237488   2.666   3.759   2.732 -0.6319 -0.9454  0.6324
 5333TIP3   OH237489   4.743   4.287   0.460  0.1468 -0.3594  0.2087
 5333TIP3    H137490   4.756   4.360   0.520  0.7319 -0.7653  0.5886
 5333TIP3    H237491   4.734   4.210   0.517 -0.2951 -0.6137 -0.1906
 5334TIP3   OH237492   1.886   0.760  12.686  0.6873  0.7528  0.0000
 5334TIP3    H137493   1.835   0.786  12.610  1.2077 -0.4569 -0.7941
 5334TIP3    H237494   1.891   0.664  12.680  1.3550  0.6937  1.1524
 5335TIP3   OH237495   1.978   4.925   1.767  0.8577 -0.0379 -0.0008
 5335TIP3    H137496   2.037   4.963   1.701  0.3195 -0.6743 -0.8694
 5335TIP3    H237497   2.012   4.956   1.851  0.1818  2.7761 -0.6650
 5336TIP3   OH237498   5.025   0.008  10.817  0.4346 -0.3578 -0.2265
 5336TIP3    H137499   4.980   0.045  10.741  2.9805 -0.2902 -1.8480
 5336TIP3    H237500   5.044   0.084  10.873 -0.0415 -0.1774 -0.3047
 5337TIP3   OH237501   5.825   0.327  12.736 -0.1827  0.3021 -0.0242
 5337TIP3    H137502   5.872   0.353  12.657  0.5491  0.2603  0.3869
 5337TIP3    H237503   5.890   0.280  12.789 -1.0844 -1.0898 -0.0953
 5338TIP3   OH237504   1.060   0.451   3.542  0.5787  0.0596 -0.0017
 5338TIP3    H137505   1.149   0.430   3.511  0.5408 -0.2541  0.1011
 5338TIP3    H237506   1.005   0.382   3.505  0.6071 -0.6223  1.1942
 5339TIP3   OH237507   6.560   2.178   5.150  0.0228 -0.1618 -0.3215
 5339TIP3    H137508   6.576   2.265   5.188  3.0083 -0.6513 -0.2698
 5339TIP3    H237509   6.546   2.121   5.225  2.2524 -0.4421 -0.0605
 5340TIP3   OH237510   1.061   2.031  16.060 -0.0004 -0.2179 -0.0350
 5340TIP3    H137511   0.984   2.086  16.046  0.5284  0.2243 -1.3525
 5340TIP3    H237512   1.135   2.092  16.062  0.4367 -0.7383  0.0534
 5341TIP3   OH237513   3.178   1.940   1.493 -0.4818 -0.2530 -0.3897
 5341TIP3    H137514   3.170   1.849   1.465  1.4252 -0.0884 -1.6854
 5341TIP3    H237515   3.206   1.936   1.584 -0.5952 -0.9410 -0.3863
 5342TIP3   OH237516   5.194   0.946   4.324 -0.0463 -0.0072  0.9733
 5342TIP3    H137517   5.278   0.943   4.371 -0.3487  0.9475  1.6120
 5342TIP3    H237518   5.194   1.031   4.280 -1.6927  1.1818  3.0346
 5343TIP3   OH237519   5.629   1.033   0.358 -0.4114 -0.2365 -0.3446
 5343TIP3    H137520   5.696   1.077   0.411  0.6921 -1.7218 -0.4654
 5343TIP3    H237521   5.571   0.992   0.422 -1.1631  0.9054 -0.2459
 5344TIP3   OH237522   4.578   1.804   3.169 -0.2696  0.2297 -0.2394
 5344TIP3    H137523   4.652   1.862   3.152 -0.3998 -0.0617 -2.0724
 5344TIP3    H237524   4.530   1.846   3.240  1.3876  0.6534  0.6766
 5345TIP3   OH237525   1.823   4.886  15.849  0.2238 -0.3673 -0.1149
 5345TIP3    H137526   1.899   4.845  15.807  0.3734  0.5374 -0.7552
 5345TIP3    H237527   1.750   4.826  15.831  0.4792 -0.4706 -0.8278
 5346TIP3   OH237528   0.551   3.582   1.668  0.1988 -0.3789 -0.1653
 5346TIP3    H137529   0.510   3.591   1.583 -1.7288 -2.7441  0.4034
 5346TIP3    H237530   0.533   3.665   1.713 -0.9490 -0.0529 -1.1842
 5347TIP3   OH237531   0.828   6.370  14.708 -0.0901 -0.2310  0.5479
 5347TIP3    H137532   0.780   6.300  14.751 -0.8651 -2.0682 -2.9669
 5347TIP3    H237533   0.760   6.430  14.677  0.3704  0.5382  0.9995
 5348TIP3   OH237534   1.044   6.404  10.846 -0.2201  0.1258  0.0013
 5348TIP3    H137535   1.138   6.392  10.849 -0.0202  1.4370 -0.2250
 5348TIP3    H237536   1.026   6.472  10.911 -1.0332 -0.2614  0.1960
 5349TIP3   OH237537   0.116   1.668   1.911  0.0010 -0.0296 -0.3090
 5349TIP3    H137538   0.179   1.618   1.963 -1.1769 -2.3885 -1.0072
 5349TIP3    H237539   0.167   1.705   1.839  0.6993 -1.4872 -0.5886
 5350TIP3   OH237540   3.818   0.776   4.508  0.0473 -0.0196 -0.8309
 5350TIP3    H137541   3.856   0.693   4.481 -0.7018 -0.3636 -0.8663
 5350TIP3    H237542   3.893   0.834   4.522  0.4775  0.1464 -3.4753
 5351TIP3   OH237543   5.087   5.098   2.095  0.1472 -0.0400  0.1790
 5351TIP3    H137544   5.157   5.130   2.038 -0.2362  1.0091  0.2669
 5351TIP3    H237545   5.043   5.031   2.044 -0.2410  0.9367 -0.8180
 5352TIP3   OH237546   0.161   5.092  11.856 -0.5773 -0.5069 -0.1443
 5352TIP3    H137547   0.155   5.169  11.913 -0.5961 -0.8481  0.3258
 5352TIP3    H237548   0.129   5.020  11.910 -0.2248 -0.9061 -0.4572
 5353TIP3   OH237549   6.772   2.594   1.226  0.0855  1.0369 -0.5088
 5353TIP3    H137550   6.723   2.632   1.299 -0.8793  0.7810 -1.0031
 5353TIP3    H237551   6.832   2.663   1.199 -1.3240  2.0834 -1.0972
 5354TIP3   OH237552   0.348   6.432  15.771  0.1800  0.3110 -0.4372
 5354TIP3    H137553   0.301   6.359  15.811 -0.5876  0.2816 -1.3522
 5354TIP3    H237554   0.305   6.444  15.686  2.6211 -0.5739 -1.8988
 5355TIP3   OH237555   4.119   4.620   2.180 -0.7709  0.3476 -0.0767
 5355TIP3    H137556   4.170   4.685   2.131 -0.8695 -0.8675 -1.8986
 5355TIP3    H237557   4.180   4.547   2.193 -1.6016 -0.5402 -1.0280
 5356TIP3   OH237558   5.772   3.799  15.296 -0.9274 -0.5585  0.1285
 5356TIP3    H137559   5.700   3.851  15.332 -1.9108 -0.7071 -1.5132
 5356TIP3    H237560   5.729   3.724  15.256  0.0695 -0.3054 -1.4991
 5357TIP3   OH237561   2.698   5.158   0.665  0.3475 -0.3938 -0.6307
 5357TIP3    H137562   2.688   5.087   0.728  1.6118 -0.6712 -0.7089
 5357TIP3    H237563   2.695   5.238   0.717  0.9067 -0.6016 -0.2620
 5358TIP3   OH237564   6.418   5.598   5.732 -0.5347 -0.5001 -0.4664
 5358TIP3    H137565   6.473   5.661   5.684 -2.1063  0.4598 -1.0883
 5358TIP3    H237566   6.422   5.627   5.823 -0.4571 -0.1076 -0.5929
 5359TIP3   OH237567   1.929   4.135   1.229 -0.2671 -0.3927 -0.1522
 5359TIP3    H137568   1.926   4.064   1.294  1.9824  0.0300  0.5084
 5359TIP3    H237569   1.959   4.092   1.149  3.8528  0.0672  0.9207
 5360TIP3   OH237570   2.979   6.618   1.227 -0.7378  0.3352 -0.0007
 5360TIP3    H137571   2.992   6.600   1.320  0.6233  1.8179  0.1384
 5360TIP3    H237572   3.063   6.652   1.197 -0.3848 -2.3224 -2.3862
 5361TIP3   OH237573   4.252   1.893  11.721 -0.1187  0.0850  0.2183
 5361TIP3    H137574   4.276   1.862  11.808 -0.3269 -0.3845  0.1153
 5361TIP3    H237575   4.235   1.813  11.671  0.2438  0.3412 -0.3233
 5362TIP3   OH237576   0.435   6.810  17.126 -0.4769  0.3985  0.1535
 5362TIP3    H137577   0.446   6.734  17.183  1.3927  0.5187  0.0142
 5362TIP3    H237578   0.341   6.813  17.107 -0.8638 -0.7078  1.7423
 5363TIP3   OH237579   4.481   2.413   2.767  0.6305 -0.0279  0.4194
 5363TIP3    H137580   4.443   2.347   2.825  0.6837 -0.8896 -0.4924
 5363TIP3    H237581   4.509   2.364   2.690  1.1795  0.9877 -0.0545
 5364TIP3   OH237582   5.529   3.215   0.408 -0.1952  0.0556  0.5723
 5364TIP3    H137583   5.588   3.287   0.434  1.0419 -0.5100 -0.5686
 5364TIP3    H237584   5.581   3.163   0.347 -1.0601 -1.8567  1.4080
 5365TIP3   OH237585   0.592   6.080   7.053  0.0917 -0.5331 -0.6865
 5365TIP3    H137586   0.659   6.099   6.988 -0.0897 -0.0365 -0.7334
 5365TIP3    H237587   0.519   6.046   7.003 -0.1135  0.0172 -0.7667
 5366TIP3   OH237588   6.574   1.783  15.009 -0.2392 -0.3852  0.0454
 5366TIP3    H137589   6.605   1.812  14.923  1.1137 -2.4242 -0.2014
 5366TIP3    H237590   6.579   1.862  15.064  0.3703  0.5750 -1.3281
 5367TIP3   OH237591   4.969   0.714   3.892  0.4446  0.5203  0.0650
 5367TIP3    H137592   5.041   0.651   3.900  1.5786  1.5539 -1.4876
 5367TIP3    H237593   4.942   0.731   3.982  1.2318 -0.8915  0.6055
 5368TIP3   OH237594   5.507   1.280  13.152  0.9847  0.4675  0.2103
 5368TIP3    H137595   5.516   1.335  13.230  0.1353  0.0492  0.6162
 5368TIP3    H237596   5.428   1.312  13.109  1.6135  0.8920 -0.6540
 5369TIP3   OH237597   2.994   3.463  13.271  0.7961  0.4216 -0.0807
 5369TIP3    H137598   3.002   3.380  13.224 -0.7568 -1.0242  2.0256
 5369TIP3    H237599   3.017   3.442  13.362 -0.0065  2.2113  0.5953
 5370TIP3   OH237600   1.892   3.744   4.936 -0.3772  0.5823 -0.0146
 5370TIP3    H137601   1.846   3.717   4.856  2.0435  2.2453 -2.1146
 5370TIP3    H237602   1.855   3.830   4.957  0.1074  0.8789 -0.3462
 5371TIP3   OH237603   2.346   4.931  11.675  0.0334 -0.5032  0.2955
 5371TIP3    H137604   2.344   4.849  11.724  1.6074  0.4538  2.1176
 5371TIP3    H237605   2.297   4.993  11.729 -0.5951 -0.0717 -0.7404
 5372TIP3   OH237606   4.437   3.604  11.968 -0.0880 -1.0073 -0.5850
 5372TIP3    H137607   4.379   3.661  12.019  0.2766  1.1430 -2.4328
 5372TIP3    H237608   4.465   3.536  12.031 -0.6779  0.7318  1.6978
 5373TIP3   OH237609   3.407   3.789   3.301  0.2511 -1.0275 -0.8638
 5373TIP3    H137610   3.502   3.797   3.307  0.1741 -1.0444  0.9193
 5373TIP3    H237611   3.390   3.695   3.310 -0.0142 -0.8417  0.8852
 5374TIP3   OH237612   5.633   1.170   1.342  0.5352 -0.1816 -0.5155
 5374TIP3    H137613   5.661   1.088   1.300 -1.8916 -0.6555 -1.3563
 5374TIP3    H237614   5.626   1.233   1.271 -0.5876 -0.1139 -0.3555
 5375TIP3   OH237615   3.957   0.150   3.485  0.1074  0.2506 -0.2483
 5375TIP3    H137616   3.966   0.118   3.575 -0.8705  0.0992 -0.1948
 5375TIP3    H237617   3.900   0.227   3.493 -0.7921 -0.3384 -0.8420
 5376TIP3   OH237618   0.139   2.050   0.674  0.5045 -0.4012 -0.3102
 5376TIP3    H137619   0.216   2.087   0.631  0.1930 -0.2017 -0.6947
 5376TIP3    H237620   0.168   1.964   0.704  1.1181 -0.0067  0.2512
 5377TIP3   OH237621   3.535   4.354  12.637  0.5240 -0.1111  0.2765
 5377TIP3    H137622   3.540   4.281  12.699  0.5115 -1.1026 -0.8572
 5377TIP3    H237623   3.610   4.340  12.579  0.8753  1.1398  0.4052
 5378TIP3   OH237624   4.659   6.249  15.977 -0.0211  0.0107  0.5589
 5378TIP3    H137625   4.603   6.293  16.041 -0.4130 -0.5779  0.6249
 5378TIP3    H237626   4.659   6.157  16.003  0.4147 -0.1128  0.1473
 5379TIP3   OH237627   2.492   6.636  13.366 -0.4336  0.5858 -0.0675
 5379TIP3    H137628   2.567   6.614  13.421 -0.2303  0.0234 -0.5739
 5379TIP3    H237629   2.448   6.707  13.414  1.6460  2.4865 -0.8443
 5380TIP3   OH237630   2.143   2.321   0.563  0.6518 -0.9124  0.1634
 5380TIP3    H137631   2.194   2.286   0.637 -0.8543 -3.0183  0.2912
 5380TIP3    H237632   2.057   2.282   0.573 -0.2123  0.4077 -1.5893
 5381TIP3   OH237633   5.620   5.110   2.357  0.0285  0.8450 -0.2395
 5381TIP3    H137634   5.686   5.163   2.312  1.5248  0.6067  1.5414
 5381TIP3    H237635   5.552   5.172   2.382 -0.3749  1.1305 -1.9335
 5382TIP3   OH237636   5.474   4.899  10.977  0.4905 -0.2123  0.2341
 5382TIP3    H137637   5.542   4.885  11.043 -0.0276 -0.7540  0.6587
 5382TIP3    H237638   5.523   4.915  10.896  1.1286  0.3131  0.7123
 5383TIP3   OH237639   0.988   2.750   0.913 -0.2407 -0.0459 -0.1066
 5383TIP3    H137640   1.067   2.733   0.860  1.0534 -1.3056  2.1022
 5383TIP3    H237641   1.021   2.797   0.990 -2.0517  1.5135 -0.2094
 5384TIP3   OH237642   0.262   4.318  13.571 -0.2334 -0.2087  0.1240
 5384TIP3    H137643   0.190   4.304  13.510 -0.1872  0.0249  0.0142
 5384TIP3    H237644   0.306   4.233  13.575 -1.1140 -0.6437  0.9772
 5385TIP3   OH237645   3.021   1.558   4.829  0.4529  0.2263 -0.2013
 5385TIP3    H137646   2.980   1.560   4.742  0.6102 -1.3045 -0.3441
 5385TIP3    H237647   3.037   1.465   4.845  1.1297  0.5574  1.1475
 5386TIP3   OH237648   3.935   4.779  11.799 -0.4965  0.3422 -0.3459
 5386TIP3    H137649   4.005   4.794  11.735 -1.3702 -0.0135 -1.4135
 5386TIP3    H237650   3.977   4.730  11.869  0.7781  1.7814 -0.0360
 5387TIP3   OH237651   0.606   3.011  10.834  0.2295  0.1407 -0.3673
 5387TIP3    H137652   0.596   3.106  10.845 -1.6426  0.1212 -1.3789
 5387TIP3    H237653   0.681   3.002  10.775 -0.1438  1.0519 -1.0058
 5388TIP3   OH237654   4.613   0.947  13.145 -0.2505  0.7582  0.1517
 5388TIP3    H137655   4.693   0.983  13.106  1.2011 -2.2442  0.0665
 5388TIP3    H237656   4.622   0.965  13.239  1.0307 -0.2727  0.2639
 5389TIP3   OH237657   5.357   5.700  11.409 -0.7502 -0.0283  0.2070
 5389TIP3    H137658   5.353   5.715  11.315  0.2448  0.7410  0.2725
 5389TIP3    H237659   5.372   5.606  11.418  1.7604  0.2371 -0.4988
 5390TIP3   OH237660   1.228   3.447   6.254 -0.0203  0.5301 -0.1927
 5390TIP3    H137661   1.190   3.402   6.178  1.1859 -2.1843  0.7003
 5390TIP3    H237662   1.284   3.515   6.216 -0.8452  0.4444 -1.6542
 5391TIP3   OH237663   3.979   2.039   0.403  0.4439 -0.2327  0.4629
 5391TIP3    H137664   3.902   1.988   0.428  0.9750 -2.5049 -2.0704
 5391TIP3    H237665   4.043   2.021   0.473 -0.1631 -1.2370  0.7872
 5392TIP3   OH237666   4.587   5.999   2.994 -0.4044  0.6760  0.3890
 5392TIP3    H137667   4.545   6.035   2.916 -0.0590  2.2857  0.9190
 5392TIP3    H237668   4.584   6.070   3.058  1.7897  0.3410  0.9399
 5393TIP3   OH237669   5.007   1.953   2.543 -0.4163 -0.0200 -0.8383
 5393TIP3    H137670   4.942   1.905   2.492 -0.8266  0.1113 -0.4460
 5393TIP3    H237671   5.004   1.913   2.629  0.5366 -0.4807 -1.0067
 5394TIP3   OH237672   2.157   0.654  16.612  0.1328 -0.2377  0.2016
 5394TIP3    H137673   2.143   0.740  16.652  2.3901  0.7832 -1.0068
 5394TIP3    H237674   2.070   0.615  16.606 -0.9738  2.0495  0.5849
 5395TIP3   OH237675   1.714   6.532   3.357  0.6443 -0.2765 -0.6226
 5395TIP3    H137676   1.627   6.562   3.384  1.1661  1.8895 -1.1547
 5395TIP3    H237677   1.774   6.597   3.393  1.9427 -1.1285 -1.1814
 5396TIP3   OH237678   4.910   6.314   0.020  0.0033  0.2234  0.3151
 5396TIP3    H137679   4.987   6.340  -0.030  0.4583 -0.7028  0.5135
 5396TIP3    H237680   4.850   6.388   0.013  0.5970  0.6375 -0.4939
 5397TIP3   OH237681   5.018   6.516  13.563 -0.0470  0.4374 -0.2224
 5397TIP3    H137682   5.078   6.567  13.508  0.0053 -0.2846 -0.8498
 5397TIP3    H237683   4.948   6.489  13.504  0.6233 -1.3739 -0.2661
 5398TIP3   OH237684   3.703   5.840   4.713  0.2280 -0.3535  0.2805
 5398TIP3    H137685   3.770   5.778   4.687 -0.1028 -1.3228  1.6398
 5398TIP3    H237686   3.635   5.787   4.755 -0.7960  0.7440  0.0952
 5399TIP3   OH237687   0.270   1.057  11.930  0.2479  0.1455 -0.3930
 5399TIP3    H137688   0.228   1.136  11.966  0.0850 -1.0510  2.2643
 5399TIP3    H237689   0.214   1.032  11.856 -0.5128  1.6910 -0.3811
 5400TIP3   OH237690   4.226   1.410   3.012  0.3805 -0.2974 -0.0431
 5400TIP3    H137691   4.188   1.487   2.969  1.6201  0.3099 -0.1107
 5400TIP3    H237692   4.321   1.421   3.001  0.5613 -2.4367 -1.0683
 5401TIP3   OH237693   1.262   1.815  15.739  0.0654 -0.0289  0.1723
 5401TIP3    H137694   1.325   1.846  15.804 -1.0468 -0.7787  1.6913
 5401TIP3    H237695   1.262   1.881  15.670  1.5207  0.6414  0.7910
 5402TIP3   OH237696   0.172   4.757  14.237 -0.0339 -0.7491 -0.0186
 5402TIP3    H137697   0.115   4.825  14.275 -0.1020 -0.6677 -0.2638
 5402TIP3    H237698   0.241   4.806  14.192 -0.2413 -0.8361 -0.4406
 5403TIP3   OH237699   0.543   5.426   6.078  0.5055  0.0977 -0.3300
 5403TIP3    H137700   0.614   5.484   6.106  1.1157 -0.6688 -0.2185
 5403TIP3    H237701   0.494   5.408   6.159  0.0479  0.7937 -0.4450
 5404TIP3   OH237702   2.497   2.270  11.804  0.4127 -0.4174  0.3462
 5404TIP3    H137703   2.539   2.253  11.719 -0.7841 -0.8460 -0.1785
 5404TIP3    H237704   2.404   2.269  11.785  0.1295  2.5531  1.0906
 5405TIP3   OH237705   4.950   4.300   3.569 -0.2178 -0.1993  0.3685
 5405TIP3    H137706   4.872   4.245   3.562 -0.5109  0.3654 -1.6926
 5405TIP3    H237707   4.921   4.385   3.537  0.7529  0.6030  1.5340
 5406TIP3   OH237708   2.042   6.781  15.134 -0.1811  0.5916 -0.1492
 5406TIP3    H137709   2.092   6.700  15.139  0.6486  1.1183  0.3871
 5406TIP3    H237710   1.997   6.777  15.050 -0.6907 -0.7178  0.1624
 5407TIP3   OH237711   5.116   0.178  13.003  0.1308 -0.6620 -0.3549
 5407TIP3    H137712   5.131   0.196  13.096 -1.8875 -1.6452  0.2292
 5407TIP3    H237713   5.157   0.093  12.988  1.1215 -0.1542 -0.5783
 5408TIP3   OH237714   1.818   6.294  14.027  0.4771  0.2708  0.3260
 5408TIP3    H137715   1.894   6.259  14.073  0.0848  1.2706  1.8010
 5408TIP3    H237716   1.765   6.216  14.007  0.7459 -0.2332  1.4550
 5409TIP3   OH237717   0.492   3.054  14.739 -0.4823 -0.1301 -0.3382
 5409TIP3    H137718   0.574   3.073  14.784 -1.0189 -1.2523  1.2170
 5409TIP3    H237719   0.424   3.080  14.801 -1.2826 -0.3933 -1.0819
 5410TIP3   OH237720   0.629   6.036   2.576  1.1588  0.3053 -0.1743
 5410TIP3    H137721   0.629   6.026   2.671  0.4242  0.2209 -0.1821
 5410TIP3    H237722   0.538   6.055   2.553  0.6527 -2.7646 -1.1629
 5411TIP3   OH237723   2.391   2.680   6.378  0.1469 -0.5418 -0.1082
 5411TIP3    H137724   2.475   2.699   6.419 -0.0980 -3.6287  2.2143
 5411TIP3    H237725   2.326   2.713   6.440 -0.2676 -1.3912 -0.0653
 5412TIP3   OH237726   0.288   5.676  16.271 -0.3045 -0.0196  0.1470
 5412TIP3    H137727   0.306   5.724  16.191  1.8136 -0.0460  0.5555
 5412TIP3    H237728   0.305   5.585  16.249  0.6755  0.0164  0.7087
 5413TIP3   OH237729   2.474   0.087  14.631 -0.1405 -0.5847 -0.2175
 5413TIP3    H137730   2.480   0.035  14.551  0.3655  1.2995 -1.4649
 5413TIP3    H237731   2.450   0.174  14.601 -1.5782 -0.2092  1.8624
 5414TIP3   OH237732   0.887   2.138  11.534  0.4510  0.1574 -0.0013
 5414TIP3    H137733   0.903   2.211  11.474  2.9886 -0.1810  0.1618
 5414TIP3    H237734   0.967   2.086  11.531 -1.2837 -2.7149 -0.1678
 5415TIP3   OH237735   3.300   6.561  13.526  0.2717  0.4013  0.0573
 5415TIP3    H137736   3.331   6.634  13.579  1.3649 -0.2373  0.3313
 5415TIP3    H237737   3.210   6.546  13.555  0.0857  1.5334  0.0951
 5416TIP3   OH237738   3.316   1.012   1.963 -0.0041 -0.0410  0.2147
 5416TIP3    H137739   3.280   1.096   1.990 -0.9177 -0.2516 -0.3200
 5416TIP3    H237740   3.366   1.031   1.884 -1.8909 -0.2827 -1.1115
 5417TIP3   OH237741   4.198   5.854   4.842  0.2726 -0.2470  0.7127
 5417TIP3    H137742   4.137   5.904   4.788 -0.5622 -2.9946 -1.0825
 5417TIP3    H237743   4.142   5.803   4.900  0.9441 -0.9546  0.7501
 5418TIP3   OH237744   1.342   1.297   0.294 -0.0555 -0.0993  0.3804
 5418TIP3    H137745   1.416   1.353   0.315  0.8174 -0.5281 -1.3565
 5418TIP3    H237746   1.308   1.269   0.380 -0.4147  2.8417  1.2903
 5419TIP3   OH237747   4.282   3.460   6.052  0.3296  0.5477  0.3870
 5419TIP3    H137748   4.350   3.399   6.027 -0.2281  0.1288 -0.1338
 5419TIP3    H237749   4.287   3.465   6.147 -0.4720 -1.3394  0.5667
 5420TIP3   OH237750   2.381   5.726  15.838  0.4967 -0.0873 -0.1519
 5420TIP3    H137751   2.325   5.677  15.778  1.0496  0.0850 -0.8200
 5420TIP3    H237752   2.333   5.725  15.921 -0.7037  0.4232 -0.8008
 5421TIP3   OH237753   0.973   0.936  15.129 -0.1692  0.2022  0.1142
 5421TIP3    H137754   0.903   0.957  15.067 -1.6880 -2.1870  0.8887
 5421TIP3    H237755   0.933   0.947  15.215  0.7895 -0.0197  0.6056
 5422TIP3   OH237756   6.418   3.729   4.412 -0.2217 -0.7078 -0.2935
 5422TIP3    H137757   6.453   3.746   4.325 -1.1724 -0.6994 -0.6853
 5422TIP3    H237758   6.462   3.792   4.469 -0.6327  0.2509 -1.0100
 5423TIP3   OH237759   0.972   4.273  11.676 -0.3017  0.1611  0.4483
 5423TIP3    H137760   1.042   4.287  11.612 -1.8979  1.0479 -1.2086
 5423TIP3    H237761   1.004   4.312  11.757  0.2996  2.5092 -0.8450
 5424TIP3   OH237762   2.395   4.085  15.157 -0.3188  0.0603 -0.1176
 5424TIP3    H137763   2.418   4.001  15.119  0.5261  0.8803 -1.5250
 5424TIP3    H237764   2.468   4.107  15.214 -0.2595  0.0995 -0.2085
 5425TIP3   OH237765   3.304   5.311  14.815  0.0164  0.1651 -0.3293
 5425TIP3    H137766   3.356   5.245  14.860  0.0162 -1.2357 -2.2388
 5425TIP3    H237767   3.317   5.292  14.722 -0.3280  2.6152 -0.9470
 5426TIP3   OH237768   1.843   1.637   1.133 -0.0478 -0.3635 -0.3094
 5426TIP3    H137769   1.870   1.728   1.118  0.9685 -0.5757  0.0990
 5426TIP3    H237770   1.836   1.599   1.046  0.2497 -0.0845 -0.4588
 5427TIP3   OH237771   4.139   0.441  13.072 -0.0847 -0.6593  0.2301
 5427TIP3    H137772   4.092   0.507  13.123  0.4405 -1.8274  2.3748
 5427TIP3    H237773   4.229   0.473  13.069 -0.5017  0.5049 -2.0048
 5428TIP3   OH237774   0.375   4.004  14.702 -0.1645 -0.2457 -0.0776
 5428TIP3    H137775   0.283   4.030  14.699  0.2501  1.3096 -0.3702
 5428TIP3    H237776   0.387   3.968  14.790 -1.0277 -0.3852 -0.0070
 5429TIP3   OH237777   0.902   3.126   5.015 -0.6722 -0.4139 -0.4438
 5429TIP3    H137778   0.902   3.188   5.089 -1.3406 -1.1573  0.1954
 5429TIP3    H237779   0.993   3.095   5.010 -0.7992 -1.0304  0.6602
 5430TIP3   OH237780   5.844   4.479   3.642 -0.0553 -0.4698 -0.4505
 5430TIP3    H137781   5.877   4.450   3.727  1.5840  2.1931 -0.0544
 5430TIP3    H237782   5.774   4.541   3.663 -0.9193 -1.1875 -1.1370
 5431TIP3   OH237783   2.834   0.422  16.219  0.4252  0.4464  0.4713
 5431TIP3    H137784   2.883   0.470  16.286 -0.1740  0.5313  0.8568
 5431TIP3    H237785   2.894   0.416  16.145  0.5827  1.6051  0.4873
 5432TIP3   OH237786   6.618   1.032   2.139  0.3492  0.3394  0.3184
 5432TIP3    H137787   6.615   1.126   2.122  0.9111  0.3516  0.2813
 5432TIP3    H237788   6.682   0.999   2.076 -2.0127 -0.5145 -1.7786
 5433TIP3   OH237789   1.796   3.072   0.929 -0.2133 -0.4437 -0.1640
 5433TIP3    H137790   1.752   3.037   1.007  1.5343 -1.3792  0.4467
 5433TIP3    H237791   1.840   3.151   0.959  1.6913 -1.5841  0.2371
 5434TIP3   OH237792   5.830   0.216   5.551  0.1252  0.1924 -0.4946
 5434TIP3    H137793   5.776   0.195   5.628  0.0521  0.6053 -0.4345
 5434TIP3    H237794   5.774   0.269   5.495  0.4810  0.6653 -0.4115
 5435TIP3   OH237795   0.693   0.523   5.768 -0.2195 -0.1442  0.0342
 5435TIP3    H137796   0.785   0.500   5.760 -0.2824 -0.3813 -0.0258
 5435TIP3    H237797   0.676   0.585   5.697 -0.5200 -1.4130 -1.0397
 5436TIP3   OH237798   3.607   0.218  10.786  0.4257 -0.3083  0.0358
 5436TIP3    H137799   3.599   0.240  10.693  1.7318 -0.9458 -0.2602
 5436TIP3    H237800   3.533   0.161  10.805  1.1202 -1.6215 -1.0840
 5437TIP3   OH237801   0.528   0.077   3.901 -0.1956  0.3407 -0.1313
 5437TIP3    H137802   0.546   0.114   3.988  0.3482 -0.5169  0.1385
 5437TIP3    H237803   0.504  -0.014   3.919  0.2577  0.0611 -0.9067
 5438TIP3   OH237804   4.770   4.477   1.620 -0.2304 -0.0361  0.1233
 5438TIP3    H137805   4.743   4.385   1.622 -0.9855  0.1673 -0.2720
 5438TIP3    H237806   4.857   4.477   1.658 -0.2357 -0.9150  0.1624
 5439TIP3   OH237807   1.427   0.580  16.514 -0.0332  0.7048 -0.4712
 5439TIP3    H137808   1.390   0.583  16.426 -1.0721 -0.2158 -0.0879
 5439TIP3    H237809   1.517   0.549  16.501 -0.7087 -1.1324 -1.0950
 5440TIP3   OH237810   6.114   4.724  13.585  0.3600 -0.2663 -0.3342
 5440TIP3    H137811   6.075   4.728  13.498  1.0946  1.4433 -0.6323
 5440TIP3    H237812   6.124   4.816  13.611  3.2718 -0.6162  0.0949
 5441TIP3   OH237813   6.697   2.908  11.707  0.1583 -0.1213 -0.0808
 5441TIP3    H137814   6.745   2.990  11.703  0.1371 -0.1348 -0.8902
 5441TIP3    H237815   6.756   2.847  11.751  1.8521 -0.7433 -2.9457
 5442TIP3   OH237816   4.029   1.290   1.585 -0.0118 -0.1806  0.2489
 5442TIP3    H137817   4.098   1.303   1.521 -1.0259  0.2629 -0.7822
 5442TIP3    H237818   4.004   1.378   1.612  0.8706 -0.3671  1.8046
 5443TIP3   OH237819   5.853   1.600  14.577 -0.0101  0.6762  0.6735
 5443TIP3    H137820   5.803   1.680  14.592 -0.8310  0.3620 -0.2522
 5443TIP3    H237821   5.936   1.630  14.539 -0.3622  1.0799  0.2220
 5444TIP3   OH237822   2.192   2.912  10.358  0.0763  0.2199 -0.1893
 5444TIP3    H137823   2.282   2.941  10.350  0.1741 -0.3230 -1.1938
 5444TIP3    H237824   2.145   2.958  10.288 -0.4560  0.5773  0.3839
 5445TIP3   OH237825   1.649   4.574   5.824  0.1646 -0.1927  0.4258
 5445TIP3    H137826   1.660   4.503   5.887  0.4664  0.0895  0.6967
 5445TIP3    H237827   1.718   4.636   5.846 -0.0775  0.1714  0.1689
 5446TIP3   OH237828   0.057   3.169  15.759 -0.0372 -0.0269  0.3823
 5446TIP3    H137829  -0.010   3.216  15.810 -1.3822  1.0126 -2.1517
 5446TIP3    H237830   0.113   3.239  15.725  0.2707 -0.6175 -0.3277
 5447TIP3   OH237831   4.281   0.162  16.289  0.1441  0.5700  0.3023
 5447TIP3    H137832   4.186   0.169  16.282 -0.1764 -3.0392 -0.7542
 5447TIP3    H237833   4.313   0.182  16.200  0.2670  0.5910  0.3508
 5448TIP3   OH237834   3.807   2.845   4.883 -0.2115 -0.4396 -0.1286
 5448TIP3    H137835   3.853   2.796   4.815 -0.4323 -0.0472 -0.5673
 5448TIP3    H237836   3.807   2.787   4.959  0.5331 -0.6561 -0.2915
 5449TIP3   OH237837   1.425   6.146  12.447 -0.3179  0.3292  0.3695
 5449TIP3    H137838   1.448   6.175  12.359  1.4163 -1.9361 -0.0242
 5449TIP3    H237839   1.507   6.152  12.496  0.6489 -4.6092 -0.0735
 5450TIP3   OH237840   5.152   6.153  10.971  0.0085  0.0350  0.1046
 5450TIP3    H137841   5.058   6.133  10.970  0.1935 -1.4934  3.1420
 5450TIP3    H237842   5.189   6.092  10.907 -1.0008  0.5595 -1.0305
 5451TIP3   OH237843   0.776   4.320  12.741 -0.0910  0.2834 -0.0266
 5451TIP3    H137844   0.795   4.391  12.803  2.2376 -1.0590  0.9158
 5451TIP3    H237845   0.696   4.280  12.775 -0.2688  1.1395  0.6245
 5452TIP3   OH237846   5.955   5.605  14.578 -0.0646  0.0516 -0.3495
 5452TIP3    H137847   5.966   5.682  14.633  0.4140  0.6785 -1.3100
 5452TIP3    H237848   5.919   5.539  14.637  1.8561  0.2123  1.1146
 5453TIP3   OH237849   6.808   1.064   1.674 -0.0161  0.1218 -0.1336
 5453TIP3    H137850   6.763   0.983   1.698  0.8955 -0.4416 -0.2671
 5453TIP3    H237851   6.897   1.052   1.707 -0.1024  1.4603  0.6600
 5454TIP3   OH237852   0.114   2.713  16.444  0.1776  0.8034 -0.2759
 5454TIP3    H137853   0.111   2.693  16.538  1.0599  0.1620 -0.3642
 5454TIP3    H237854   0.024   2.703  16.414  0.1596 -0.6864  0.1864
 5455TIP3   OH237855   2.430   6.792  16.434  0.5158  0.3935  0.2459
 5455TIP3    H137856   2.512   6.786  16.483 -0.2528  0.9228  1.6563
 5455TIP3    H237857   2.362   6.763  16.496 -0.3717 -0.0504 -0.8933
 5456TIP3   OH237858   1.503   1.786   2.094  0.3165  0.0860 -0.0716
 5456TIP3    H137859   1.437   1.825   2.036 -1.0525 -1.3475  0.4427
 5456TIP3    H237860   1.535   1.709   2.046  0.3098 -0.2289  0.4148
 5457TIP3   OH237861   0.661   3.950   1.365 -0.4791  0.2017  0.1429
 5457TIP3    H137862   0.612   3.966   1.445 -0.1586  0.3765  0.3097
 5457TIP3    H237863   0.751   3.975   1.387  0.0309 -1.7173  0.3553
 5458TIP3   OH237864   3.505   5.376  13.265  0.1499 -0.3354  0.9195
 5458TIP3    H137865   3.446   5.398  13.337  1.8916  0.4993  2.1666
 5458TIP3    H237866   3.565   5.451  13.259 -1.8677  1.2647 -3.6601
 5459TIP3   OH237867   2.562   2.767  16.142  0.1899  0.1318  0.3061
 5459TIP3    H137868   2.570   2.848  16.092  3.6963  0.9346  1.8095
 5459TIP3    H237869   2.545   2.700  16.076 -0.5178  1.7722 -1.2742
 5460TIP3   OH237870   3.925   4.163   1.205  0.3060  0.2045  0.0374
 5460TIP3    H137871   3.941   4.202   1.291  0.6591  1.8614 -0.7453
 5460TIP3    H237872   3.830   4.152   1.201  0.2270  0.7125  0.3865
 5461TIP3   OH237873   0.849   1.609  15.200 -0.1271 -0.1524 -0.5959
 5461TIP3    H137874   0.843   1.694  15.244  0.2109 -0.1773 -0.4988
 5461TIP3    H237875   0.774   1.560  15.234 -0.4336  0.1702 -0.7937
 5462TIP3   OH237876   0.107   0.257  10.296  0.2279 -0.4621  0.5941
 5462TIP3    H137877   0.099   0.351  10.310 -0.5512 -0.6108  1.2427
 5462TIP3    H237878   0.090   0.244  10.203 -0.2247 -0.0211  0.6162
 5463TIP3   OH237879   6.372   4.203  14.843 -0.1325  0.7192  0.0679
 5463TIP3    H137880   6.392   4.156  14.924 -1.6058  1.3132  0.8067
 5463TIP3    H237881   6.422   4.156  14.775 -1.1861 -1.6476  0.8317
 5464TIP3   OH237882   4.177   1.793   1.332  0.6120 -0.2663 -0.8286
 5464TIP3    H137883   4.099   1.794   1.387 -0.4659  0.9235 -2.3061
 5464TIP3    H237884   4.248   1.822   1.390 -0.2981  0.0256  0.1624
 5465TIP3   OH237885   3.220   0.613  16.098  0.4260  0.0496 -0.0920
 5465TIP3    H137886   3.289   0.553  16.069  2.0093  1.2172  1.1141
 5465TIP3    H237887   3.199   0.665  16.020 -0.3379 -1.4143 -0.9117
 5466TIP3   OH237888   4.175   0.180  13.068 -0.7086 -0.6084 -0.0144
 5466TIP3    H137889   4.122   0.131  13.005 -0.6940 -0.4228 -0.1697
 5466TIP3    H237890   4.121   0.256  13.091 -1.0960 -1.1366  0.8687
 5467TIP3   OH237891   4.616   3.157   5.071 -0.3300  0.3772  0.8240
 5467TIP3    H137892   4.604   3.180   4.979 -2.3197  0.7758  1.1475
 5467TIP3    H237893   4.708   3.179   5.089  0.4492 -0.7952 -1.3350
 5468TIP3   OH237894   4.364   1.752   4.876 -0.0788 -0.6201 -0.0018
 5468TIP3    H137895   4.362   1.659   4.853 -0.9446 -0.8343  0.8671
 5468TIP3    H237896   4.345   1.754   4.970 -1.7219  0.5187 -0.3144
 5469TIP3   OH237897   4.509   5.872   5.864  0.1007  0.1234  0.5208
 5469TIP3    H137898   4.547   5.785   5.854 -0.7605 -0.3977  1.5322
 5469TIP3    H237899   4.434   5.859   5.922 -0.7105  1.3636 -0.1942
 5470TIP3   OH237900   0.582   3.608   5.967 -0.2245  0.2735  0.5228
 5470TIP3    H137901   0.670   3.646   5.972 -0.4471  0.7822  0.6830
 5470TIP3    H237902   0.547   3.616   6.055  0.0084 -1.0364  0.7574
 5471TIP3   OH237903   5.328   4.555   6.368 -0.5386  0.2391 -0.4936
 5471TIP3    H137904   5.373   4.637   6.348 -3.1331  1.8428 -0.2024
 5471TIP3    H237905   5.367   4.527   6.451 -0.6722  2.0595  0.2378
 5472TIP3   OH237906   5.750   1.180   0.116  0.8218 -0.4218 -0.5687
 5472TIP3    H137907   5.726   1.149   0.203  2.8020 -0.6076 -0.0359
 5472TIP3    H237908   5.667   1.207   0.077 -0.4326 -2.4801  0.4777
 5473TIP3   OH237909   4.310   4.039   2.711  0.4884 -0.1160  0.1486
 5473TIP3    H137910   4.253   3.965   2.732 -1.2294  1.1151  0.1108
 5473TIP3    H237911   4.314   4.041   2.616  1.3043 -0.6872  0.1616
 5474TIP3   OH237912   1.521   4.852   3.960  0.3416  0.1971  0.4336
 5474TIP3    H137913   1.538   4.787   3.892  2.3695  1.5938 -0.4666
 5474TIP3    H237914   1.459   4.913   3.921 -1.0424 -0.7518  1.0489
 5475TIP3   OH237915   4.203   0.397  16.688  0.4778 -0.2988  0.0010
 5475TIP3    H137916   4.248   0.348  16.757 -2.1155 -1.6532  0.8667
 5475TIP3    H237917   4.193   0.485  16.724 -0.9904 -1.0284  1.5047
 5476TIP3   OH237918   3.666   6.725   0.419  0.6734  0.5083  0.1399
 5476TIP3    H137919   3.734   6.658   0.426  0.6737  0.4827 -0.0950
 5476TIP3    H237920   3.655   6.738   0.325 -0.9722 -0.8761  0.0875
 5477TIP3   OH237921   2.017   2.094  11.773  0.1925 -0.1638 -0.2967
 5477TIP3    H137922   1.993   2.009  11.810 -1.6053 -0.2071 -1.4739
 5477TIP3    H237923   1.997   2.157  11.843 -1.9172 -0.3772 -0.6427
 5478TIP3   OH237924   4.578   3.029  15.913  0.4246 -0.2378  0.0582
 5478TIP3    H137925   4.624   2.948  15.937  0.9110  0.0023 -0.0593
 5478TIP3    H237926   4.544   3.062  15.996  1.2808  0.0822  0.2967
 5479TIP3   OH237927   5.842   6.312  13.171 -0.9564 -0.9722 -0.2907
 5479TIP3    H137928   5.862   6.311  13.264  0.5393 -2.7470 -0.5773
 5479TIP3    H237929   5.928   6.312  13.128 -1.6159 -0.0904 -1.6862
 5480TIP3   OH237930   1.771   5.723   3.439 -0.1271 -0.2389  0.7006
 5480TIP3    H137931   1.847   5.750   3.389 -0.8226 -0.6840 -0.6541
 5480TIP3    H237932   1.806   5.665   3.507  0.7426 -0.3508  0.1669
 5481TIP3   OH237933   4.378   5.109   4.733  0.2560 -0.4966 -0.3011
 5481TIP3    H137934   4.367   5.019   4.764  2.4197 -0.7910 -0.2569
 5481TIP3    H237935   4.365   5.103   4.638  1.0314 -0.9915 -0.3841
 5482TIP3   OH237936   1.757   1.938   2.016  0.3250 -0.1789  0.1191
 5482TIP3    H137937   1.667   1.916   2.038  0.6368 -0.9778  0.6324
 5482TIP3    H237938   1.778   2.012   2.072  0.8172 -1.6273  1.9412
 5483TIP3   OH237939   0.696   0.070   5.945  0.4307  0.2426  0.5406
 5483TIP3    H137940   0.658   0.094   6.030 -2.2905 -1.5906 -0.0138
 5483TIP3    H237941   0.667   0.139   5.885 -2.6113 -1.2399  0.0740
 5484TIP3   OH237942   6.677   2.599   6.122 -0.2594 -0.2957 -0.2507
 5484TIP3    H137943   6.659   2.684   6.161 -2.3874  0.2564 -2.2101
 5484TIP3    H237944   6.592   2.556   6.117  0.1622 -1.0267 -2.6029
 5485TIP3   OH237945   3.206   0.895   1.417 -0.4874 -0.4285 -0.3509
 5485TIP3    H137946   3.184   0.914   1.326 -0.8265 -2.1136 -0.6651
 5485TIP3    H237947   3.192   0.800   1.425 -0.9316 -0.2304  1.5867
 5486TIP3   OH237948   1.462   1.895  16.208  0.3507  0.1853 -0.0985
 5486TIP3    H137949   1.508   1.843  16.142 -1.5401 -0.4039 -1.0303
 5486TIP3    H237950   1.422   1.830  16.265 -0.3691  0.6423 -0.0702
 5487TIP3   OH237951   5.147   1.740   0.731 -0.5468 -0.0267 -0.2427
 5487TIP3    H137952   5.204   1.685   0.677  1.8796  0.0243  2.0563
 5487TIP3    H237953   5.129   1.687   0.809  0.5245  1.7679  1.3067
 5488TIP3   OH237954   1.040   2.636  11.121 -0.1842  0.1878 -0.1388
 5488TIP3    H137955   1.130   2.610  11.142 -0.0587  1.9876  1.9097
 5488TIP3    H237956   1.049   2.723  11.083 -1.0858  0.9851  1.3638
 5489TIP3   OH237957   2.977   0.907  13.655 -0.2560  0.3945  0.3021
 5489TIP3    H137958   2.995   0.975  13.720  1.0560  0.0381  0.3567
 5489TIP3    H237959   3.035   0.835  13.681 -0.2375 -0.0211 -0.8449
 5490TIP3   OH237960   4.363   4.915  15.468  0.3227  0.1386 -0.2518
 5490TIP3    H137961   4.323   4.957  15.392 -1.0410 -0.9800 -0.1700
 5490TIP3    H237962   4.305   4.936  15.541  0.3286 -0.7864  0.0329
 5491TIP3   OH237963   5.351   0.845   3.664  0.5192 -0.6656 -0.6108
 5491TIP3    H137964   5.430   0.877   3.707  1.1541 -0.1016 -2.1281
 5491TIP3    H237965   5.383   0.788   3.594 -0.3652  0.0950 -1.6745
 5492TIP3   OH237966   5.848   1.997  11.471  0.2588  0.8296 -0.1114
 5492TIP3    H137967   5.802   1.930  11.522 -0.4189  0.7134 -0.8437
 5492TIP3    H237968   5.887   2.055  11.536 -0.6674  0.7456  0.5343
 5493TIP3   OH237969   0.347   0.295  11.700  0.1035  0.1006 -0.1977
 5493TIP3    H137970   0.414   0.260  11.760 -0.7447  1.6203  1.7671
 5493TIP3    H237971   0.377   0.269  11.613  3.3983  0.8926  0.5474
 5494TIP3   OH237972   5.760   1.010   1.931 -0.1548  0.0264  0.4660
 5494TIP3    H137973   5.817   1.065   1.877  0.7578 -1.4533 -0.1146
 5494TIP3    H237974   5.797   1.017   2.019 -0.3427  0.7063  0.5021
 5495TIP3   OH237975   6.132   3.938   2.971  0.6703 -0.6464 -0.4519
 5495TIP3    H137976   6.060   3.911   3.028 -0.4956  1.2127 -0.9448
 5495TIP3    H237977   6.166   3.857   2.934 -2.3816 -1.4826 -1.6459
 5496TIP3   OH237978   1.470   5.443   2.734 -0.3771 -0.1558 -0.0902
 5496TIP3    H137979   1.510   5.498   2.667 -0.3760  0.2116  0.2087
 5496TIP3    H237980   1.394   5.404   2.690 -0.6436  0.4428 -0.1732
 5497TIP3   OH237981   2.858   6.069   6.106  0.5347 -0.1417 -0.4013
 5497TIP3    H137982   2.828   5.979   6.095 -1.1640 -0.0259  2.3398
 5497TIP3    H237983   2.913   6.067   6.185  1.1774  1.0838 -0.7852
 5498TIP3   OH237984   6.464   2.720  15.170  0.6209  0.1804  0.7263
 5498TIP3    H137985   6.478   2.696  15.262  1.1567 -0.6342  0.4463
 5498TIP3    H237986   6.465   2.815  15.170 -0.7338  0.2269  1.7652
 5499TIP3   OH237987   6.187   3.029   2.362  0.0591  0.0581 -0.3935
 5499TIP3    H137988   6.132   2.966   2.315 -4.1684  2.9144  0.1285
 5499TIP3    H237989   6.258   3.049   2.302  0.4689 -3.5932 -1.3524
 5500TIP3   OH237990   4.125   2.865  14.157  0.2360  0.0478  0.1046
 5500TIP3    H137991   4.052   2.836  14.101 -0.6110 -0.2389  1.2994
 5500TIP3    H237992   4.122   2.960  14.153 -0.3180  0.0428  0.2569
 5501TIP3   OH237993   3.116   3.649   4.480  0.1975  0.3998 -0.2796
 5501TIP3    H137994   3.061   3.617   4.408  1.5237  1.1070 -1.6729
 5501TIP3    H237995   3.158   3.570   4.515 -0.9571 -0.0313  0.1991
 5502TIP3   OH237996   0.575   5.112   5.641  0.4316 -0.3975  0.0836
 5502TIP3    H137997   0.526   5.183   5.682  0.9879  0.5005 -0.7585
 5502TIP3    H237998   0.652   5.155   5.604 -0.6979 -0.8685 -3.1099
 5503TIP3   OH237999   1.427   2.489  12.064 -0.5176 -0.1595 -0.0003
 5503TIP3    H138000   1.372   2.468  11.988 -0.9713  2.3029 -0.4133
 5503TIP3    H238001   1.413   2.582  12.080  0.7258 -0.2740  2.2084
 5504TIP3   OH238002   5.326   6.110   0.104 -0.4848  0.3151  0.5293
 5504TIP3    H138003   5.378   6.102   0.185  0.4279  0.3927 -0.0327
 5504TIP3    H238004   5.239   6.134   0.134 -0.4449 -0.7505  1.5628
 5505TIP3   OH238005   4.988   1.643  15.577  0.3182 -0.2300 -0.1766
 5505TIP3    H138006   5.084   1.641  15.573  0.3953  2.0562 -0.8165
 5505TIP3    H238007   4.961   1.565  15.528  1.8524  0.4470 -2.2743
 5506TIP3   OH238008   3.180   2.828  12.502 -0.5452 -0.7957 -0.1886
 5506TIP3    H138009   3.266   2.787  12.507 -0.0785  0.2965  2.2878
 5506TIP3    H238010   3.193   2.904  12.445 -0.2056 -1.3324 -0.8361
 5507TIP3   OH238011   0.141   3.001   3.952  0.2650 -0.0282  0.4416
 5507TIP3    H138012   0.215   3.058   3.932  0.4233  0.2031  1.5971
 5507TIP3    H238013   0.117   3.024   4.042 -0.2787 -1.1141  0.5911
 5508TIP3   OH238014   1.265   4.113  14.191 -0.0211  0.1433 -0.2880
 5508TIP3    H138015   1.247   4.112  14.097 -0.3523  4.2057 -0.4383
 5508TIP3    H238016   1.179   4.098  14.231 -0.4369  1.2202 -0.7315
 5509TIP3   OH238017   1.976   0.250  16.567  0.7166  0.2930 -0.3378
 5509TIP3    H138018   1.983   0.211  16.654  0.5904 -1.2396 -0.9834
 5509TIP3    H238019   1.897   0.304  16.571  0.2454 -0.4126  0.2671
 5510TIP3   OH238020   6.006   5.590  15.659  0.0549  0.1561 -0.2607
 5510TIP3    H138021   6.046   5.566  15.743  0.0358 -1.8185 -0.7864
 5510TIP3    H238022   5.929   5.643  15.684 -1.4041 -2.4243  1.1573
 5511TIP3   OH238023   3.792   1.938   4.922  0.2123 -0.2032  0.5865
 5511TIP3    H138024   3.702   1.932   4.955 -0.0356  2.0975  0.4755
 5511TIP3    H238025   3.841   1.877   4.977 -1.0791 -0.0983  1.9266
 5512TIP3   OH238026   0.284   5.347  11.129  0.2785 -0.7663 -0.7032
 5512TIP3    H138027   0.229   5.270  11.115 -0.2349 -0.9314  1.7027
 5512TIP3    H238028   0.371   5.311  11.146  0.1111 -0.8239  0.0797
 5513TIP3   OH238029   5.570   0.084   2.250 -0.2489  0.1712  0.1416
 5513TIP3    H138030   5.661   0.113   2.248  0.2187 -0.9561  2.3020
 5513TIP3    H238031   5.548   0.077   2.343 -1.8079 -1.7248 -0.2790
 5514TIP3   OH238032   0.509   4.980  13.332 -0.5994  0.0689  0.4843
 5514TIP3    H138033   0.497   4.944  13.244  2.1401 -0.9269  0.4416
 5514TIP3    H238034   0.497   4.905  13.391 -0.1914  0.2281  0.7783
 5515TIP3   OH238035   3.413   6.349  14.456 -0.0955  0.4139  0.1062
 5515TIP3    H138036   3.468   6.423  14.482 -0.3184 -0.5666  3.9984
 5515TIP3    H238037   3.325   6.374  14.486 -0.4395 -0.8297  0.1797
 5516TIP3   OH238038   2.825   1.201  16.277 -0.2216 -0.2404 -0.2314
 5516TIP3    H138039   2.751   1.156  16.237 -0.0975 -1.2948  0.6762
 5516TIP3    H238040   2.897   1.139  16.272 -0.3628 -0.6997  2.1618
 5517TIP3   OH238041   5.772   6.227  11.737 -0.2874 -0.1757  0.4478
 5517TIP3    H138042   5.711   6.202  11.667 -0.3222 -0.8540  0.7116
 5517TIP3    H238043   5.857   6.230  11.694  0.0667 -2.7823  0.7770
 5518TIP3   OH238044   5.850   0.859  12.544  0.0152 -0.4350 -0.1035
 5518TIP3    H138045   5.779   0.910  12.584  0.3776 -1.1021  1.4883
 5518TIP3    H238046   5.812   0.772  12.530 -0.1208 -0.1948 -1.3042
 5519TIP3   OH238047   1.745   1.000   2.420 -0.4898  0.1133 -0.0096
 5519TIP3    H138048   1.765   1.088   2.449  0.6559 -0.3107  0.5360
 5519TIP3    H238049   1.823   0.972   2.372 -0.7420 -0.6792  0.0244
 5520TIP3   OH238050   6.561   0.766  12.756 -0.2707 -0.2299 -0.2936
 5520TIP3    H138051   6.621   0.808  12.695  1.1894 -0.3350  0.9999
 5520TIP3    H238052   6.480   0.752  12.706  0.9323 -0.5223 -2.2367
 5521TIP3   OH238053   3.123   6.487  11.984 -0.6160  1.0001  0.5950
 5521TIP3    H138054   3.110   6.578  12.008  0.0910  1.6507 -1.3034
 5521TIP3    H238055   3.085   6.480  11.896 -0.1859 -0.4099  0.4971
 5522TIP3   OH238056   1.920   1.718   5.546 -0.2407 -0.1996 -0.2958
 5522TIP3    H138057   1.958   1.795   5.504 -0.6461  0.4058  0.4313
 5522TIP3    H238058   1.922   1.650   5.478  0.8459  0.2166 -0.6929
 5523TIP3   OH238059   2.817   0.913   6.066  0.0951 -0.7094  0.2278
 5523TIP3    H138060   2.890   0.929   6.007  0.3274 -0.2206  0.6357
 5523TIP3    H238061   2.844   0.954   6.149  0.0642 -1.9427  0.8702
 5524TIP3   OH238062   3.674   2.551  14.213  0.3791 -0.2604 -0.2288
 5524TIP3    H138063   3.656   2.488  14.283  1.6605  0.7152  1.0154
 5524TIP3    H238064   3.757   2.521  14.175  0.4580  0.0905 -0.3327
 5525TIP3   OH238065   3.449   3.586  16.206 -0.4219  0.1927  0.2738
 5525TIP3    H138066   3.428   3.608  16.297  1.2204  0.3751  0.6463
 5525TIP3    H238067   3.469   3.492  16.208 -2.4355 -0.3109 -0.3458
 5526TIP3   OH238068   0.112   6.548  11.119 -0.2023 -0.3987 -0.0248
 5526TIP3    H138069   0.066   6.531  11.037  1.0521 -2.8946 -0.3102
 5526TIP3    H238070   0.138   6.461  11.151  2.8124  0.7208  0.9588
 5527TIP3   OH238071   0.113   3.489  12.548  0.0541 -0.0695 -0.2056
 5527TIP3    H138072   0.138   3.486  12.455  0.1697 -1.1695 -0.1553
 5527TIP3    H238073   0.190   3.525  12.592  0.6408 -1.0748 -0.3585
 5528TIP3   OH238074   6.063   0.976  14.411 -0.2652  0.5520  0.6498
 5528TIP3    H138075   6.086   0.989  14.319  0.5354  0.2312  0.7932
 5528TIP3    H238076   6.128   1.027  14.460 -0.9662  1.0996  1.0337
 5529TIP3   OH238077   0.198   5.401   4.820 -0.8254 -0.3816  0.0023
 5529TIP3    H138078   0.291   5.405   4.801 -0.5723  0.3572  1.3074
 5529TIP3    H238079   0.191   5.339   4.893 -0.8371  2.3651  2.5332
 5530TIP3   OH238080   0.289   3.962   5.535  0.4098 -0.6463 -0.1885
 5530TIP3    H138081   0.365   4.018   5.544 -1.2521  1.9340 -1.1924
 5530TIP3    H238082   0.298   3.922   5.448  0.6895 -0.5320 -0.2132
 5531TIP3   OH238083   2.366   0.103  16.692 -0.4499 -0.3413 -0.2973
 5531TIP3    H138084   2.449   0.143  16.667 -0.7476  0.2527 -0.3688
 5531TIP3    H238085   2.300   0.152  16.642 -0.6989 -2.2487 -1.9724
 5532TIP3   OH238086   1.687   0.665   4.469 -0.5366  0.0236 -0.6198
 5532TIP3    H138087   1.740   0.738   4.501  0.5323 -1.1825  0.4859
 5532TIP3    H238088   1.729   0.587   4.505 -1.9601 -1.1182 -1.3079
 5533TIP3   OH238089   4.786   1.279  15.907  0.2752 -0.2727  0.2380
 5533TIP3    H138090   4.861   1.338  15.905 -0.8390  1.2350  1.1973
 5533TIP3    H238091   4.724   1.317  15.845  0.3339 -1.6133 -0.6975
 5534TIP3   OH238092   2.301   1.942   4.240  0.1578  0.5675  0.1320
 5534TIP3    H138093   2.396   1.948   4.236  0.4286  0.7984  3.6725
 5534TIP3    H238094   2.277   1.991   4.319 -2.5030 -2.3875  1.3949
 5535TIP3   OH238095   3.286   0.196  12.481  0.2431  0.0719  0.1435
 5535TIP3    H138096   3.351   0.260  12.510  1.2779 -0.5837 -0.6488
 5535TIP3    H238097   3.315   0.113  12.518  0.0851 -0.3006 -0.5479
 5536TIP3   OH238098   2.912   5.151   0.012  0.1433  0.4597  0.4101
 5536TIP3    H138099   2.861   5.183   0.087  0.4615  0.2664  0.7125
 5536TIP3    H238100   2.887   5.209  -0.060  0.1255  0.8965  0.7606
 5537TIP3   OH238101   6.440   1.567   3.371 -0.2113 -0.4626  0.3169
 5537TIP3    H138102   6.525   1.537   3.339 -0.0032 -0.2387  0.6531
 5537TIP3    H238103   6.406   1.492   3.421 -0.5657 -0.8356 -0.4606
 5538TIP3   OH238104   2.235   6.526   1.948 -0.4924 -0.1003 -0.3681
 5538TIP3    H138105   2.270   6.494   1.865  0.9796  0.4790 -0.0135
 5538TIP3    H238106   2.145   6.551   1.929 -0.1369  0.1404 -1.8318
 5539TIP3   OH238107   6.557   0.243   3.990 -0.3069 -0.2496 -0.0581
 5539TIP3    H138108   6.563   0.337   4.007 -1.2622 -0.4552  1.6730
 5539TIP3    H238109   6.511   0.236   3.906  0.3320  0.8189 -0.5152
 5540TIP3   OH238110   1.186   5.591   5.241 -0.9794  0.3360 -0.4158
 5540TIP3    H138111   1.198   5.527   5.172  2.2873 -2.6424  2.5102
 5540TIP3    H238112   1.094   5.582   5.267 -1.4854 -0.5916 -2.3862
 5541TIP3   OH238113   5.712   5.116   5.366  0.2323  0.3995 -0.1131
 5541TIP3    H138114   5.779   5.052   5.387  0.3056 -0.6108 -3.0290
 5541TIP3    H238115   5.648   5.068   5.313 -0.5748  2.3181 -0.9982
 5542TIP3   OH238116   3.340   4.711  11.521 -0.2800  0.0907  0.0343
 5542TIP3    H138117   3.402   4.640  11.541  0.6776  0.5892 -1.0934
 5542TIP3    H238118   3.395   4.786  11.499 -1.2912  0.9391  0.3273
 5543TIP3   OH238119   3.748   3.386   1.993  0.0273  0.2089  0.2237
 5543TIP3    H138120   3.696   3.397   1.913 -1.4908 -0.4487  1.0587
 5543TIP3    H238121   3.835   3.416   1.969 -0.4070  0.1616 -1.6384
 5544TIP3   OH238122   6.683   4.479  12.526  0.2801  0.4416  0.0381
 5544TIP3    H138123   6.755   4.513  12.579  0.0636  0.9812 -0.0088
 5544TIP3    H238124   6.607   4.531  12.554  0.0772  0.4255 -0.4842
 5545TIP3   OH238125   3.207   0.733   4.059 -0.2079  0.1537 -0.6734
 5545TIP3    H138126   3.287   0.719   4.008  1.4051  0.0539  1.7018
 5545TIP3    H238127   3.226   0.695   4.144 -2.2621  1.4312  0.4450
 5546TIP3   OH238128   3.598   1.227   0.406 -0.0191 -0.2494  0.3624
 5546TIP3    H138129   3.594   1.157   0.470  1.5610 -0.2896  0.4541
 5546TIP3    H238130   3.662   1.198   0.341 -2.0969 -0.5390 -1.6929
 5547TIP3   OH238131   4.610   1.717   1.737  0.0074 -0.0199 -0.0009
 5547TIP3    H138132   4.617   1.628   1.701 -0.6046 -0.1553  0.1981
 5547TIP3    H238133   4.536   1.712   1.799  1.5582 -0.0265  1.9539
 5548TIP3   OH238134   0.173   1.429   3.095  0.9308 -0.4042 -0.2613
 5548TIP3    H138135   0.233   1.479   3.149 -0.6772  1.1288  0.1809
 5548TIP3    H238136   0.225   1.403   3.019  2.3097  0.2827  0.4200
 5549TIP3   OH238137   6.687   3.017  12.077 -0.3432 -0.1794  0.3775
 5549TIP3    H138138   6.755   3.079  12.105 -1.4124  0.9176  0.6581
 5549TIP3    H238139   6.691   3.019  11.981  1.6610 -2.0509  0.3353
 5550TIP3   OH238140   0.628   1.665  12.143 -0.1767 -0.4291 -0.1381
 5550TIP3    H138141   0.670   1.679  12.228 -0.3919 -0.7938  0.0273
 5550TIP3    H238142   0.570   1.591  12.156  2.1925 -2.6786 -1.4199
 5551TIP3   OH238143   1.790   0.261  15.636 -0.1944 -0.3972 -0.0714
 5551TIP3    H138144   1.705   0.218  15.623 -1.8056  2.1567  1.1284
 5551TIP3    H238145   1.825   0.221  15.716  0.8690 -2.9587 -1.6863
 5552TIP3   OH238146   2.333   1.160  16.626  0.3814 -0.1067 -0.4337
 5552TIP3    H138147   2.332   1.070  16.593 -0.6843  0.1942 -1.2945
 5552TIP3    H238148   2.314   1.152  16.719  1.3539 -0.8406 -0.2896
 5553TIP3   OH238149   2.694   0.800   2.867 -0.0244  0.4596  0.3525
 5553TIP3    H138150   2.630   0.744   2.824 -0.3410  1.9938 -1.2411
 5553TIP3    H238151   2.664   0.804   2.958 -2.1249  1.0390 -0.3237
 5554TIP3   OH238152   1.406   0.413  14.069  0.0439  0.0539 -0.2074
 5554TIP3    H138153   1.493   0.448  14.087 -0.1114 -0.3299  1.4545
 5554TIP3    H238154   1.366   0.403  14.156 -0.8681 -1.8094 -0.8016
 5555TIP3   OH238155   0.320   3.755  10.349  0.5560  0.0963  0.4012
 5555TIP3    H138156   0.351   3.757  10.440 -0.5687 -0.5790  0.8108
 5555TIP3    H238157   0.226   3.740  10.356  0.6560 -1.3073 -0.9172
 5556TIP3   OH238158   6.711   1.406  14.789 -0.1924  0.1962  0.0984
 5556TIP3    H138159   6.626   1.412  14.832 -0.4379  0.2003 -0.3901
 5556TIP3    H238160   6.769   1.370  14.856 -0.5201  0.4247  0.5091
 5557TIP3   OH238161   4.733   4.639   0.025 -0.2311  0.0366 -0.4480
 5557TIP3    H138162   4.779   4.664   0.105 -0.4009  0.3143 -0.4349
 5557TIP3    H238163   4.759   4.705  -0.040 -0.2738 -0.0541 -0.5582
 5558TIP3   OH238164   0.031   4.394   4.565 -0.2716  0.3720  0.3831
 5558TIP3    H138165  -0.057   4.399   4.604 -0.4625  2.7185 -0.2056
 5558TIP3    H238166   0.066   4.483   4.573  0.9973  0.1450 -1.7788
 5559TIP3   OH238167   2.762   3.127  16.192  0.0345 -0.2666  0.3173
 5559TIP3    H138168   2.762   3.064  16.120 -0.1444  1.3031 -1.1522
 5559TIP3    H238169   2.747   3.075  16.271  0.7488 -2.1285 -0.7075
 5560TIP3   OH238170   5.256   1.461   0.593 -0.7686  0.0548  0.2344
 5560TIP3    H138171   5.173   1.429   0.557 -0.6641 -0.5109  0.4968
 5560TIP3    H238172   5.248   1.449   0.688 -0.5447  0.3819  0.3003
 5561TIP3   OH238173   6.836   5.809  13.093  1.2471  0.0658 -0.3009
 5561TIP3    H138174   6.883   5.889  13.117 -1.1572  1.4920 -0.0095
 5561TIP3    H238175   6.767   5.839  13.034  0.6549 -1.9065 -0.6823
 5562TIP3   OH238176   3.602   3.416  13.003  0.0466 -0.1078  0.1642
 5562TIP3    H138177   3.519   3.433  12.957  1.2250  0.1854 -2.0157
 5562TIP3    H238178   3.624   3.326  12.980  1.7093  0.7097 -1.7537
 5563TIP3   OH238179   3.193   2.156  14.190 -0.4942  0.7386 -0.1911
 5563TIP3    H138180   3.222   2.247  14.182  0.2559  0.5125 -0.1712
 5563TIP3    H238181   3.189   2.124  14.100  1.1249  0.2392 -0.1144
 5564TIP3   OH238182   4.792   1.170   2.074 -0.4429 -0.1605  0.4713
 5564TIP3    H138183   4.755   1.135   2.154 -0.6414  1.3901  1.0981
 5564TIP3    H238184   4.819   1.259   2.097  2.2112 -0.6493 -0.3710
 5565TIP3   OH238185   2.521   3.912   3.281  0.1808 -0.4347 -0.0985
 5565TIP3    H138186   2.497   3.923   3.189  1.5222 -1.4251 -0.5936
 5565TIP3    H238187   2.448   3.950   3.330 -0.3743  0.4404 -1.5706
 5566TIP3   OH238188   2.186   5.917   2.854  0.2701  0.1243  0.2137
 5566TIP3    H138189   2.110   5.975   2.848 -0.7092 -1.1633 -0.2952
 5566TIP3    H238190   2.221   5.931   2.942 -1.8889 -0.8304  1.2789
 5567TIP3   OH238191   1.531   2.021   4.434  0.2994 -0.2174  0.6839
 5567TIP3    H138192   1.472   1.946   4.428 -1.3803  1.1662 -0.8763
 5567TIP3    H238193   1.502   2.069   4.511 -0.6385  0.4329 -0.0510
 5568TIP3   OH238194   6.074   0.665   1.984  0.3720  0.3101 -0.0250
 5568TIP3    H138195   6.163   0.633   1.992 -0.2879 -1.3884  0.8880
 5568TIP3    H238196   6.019   0.595   2.018 -1.3737  1.0350 -1.1810
 5569TIP3   OH238197   3.669   4.041   0.310 -0.0502 -0.2136  0.1934
 5569TIP3    H138198   3.577   4.040   0.336 -0.5096  0.3492 -1.2780
 5569TIP3    H238199   3.711   3.974   0.364 -1.2547 -0.2529  1.1022
 5570TIP3   OH238200   5.167   3.652  11.908 -0.2525 -0.4271  0.1396
 5570TIP3    H138201   5.220   3.583  11.869 -0.5780  0.5573 -2.2566
 5570TIP3    H238202   5.231   3.715  11.942  0.1033 -0.3763 -0.6022
 5571TIP3   OH238203   2.585   3.092  10.860 -0.1756 -0.4893  0.8238
 5571TIP3    H138204   2.536   3.172  10.841  0.0010 -0.9606 -1.9700
 5571TIP3    H238205   2.536   3.051  10.932 -0.5017  1.8544  2.0391
 5572TIP3   OH238206   0.918   5.462  13.364  0.0448  0.3582  0.0374
 5572TIP3    H138207   0.927   5.390  13.427  2.2072  1.0403  0.6113
 5572TIP3    H238208   0.875   5.423  13.289 -1.4430 -0.8036  1.4301
 5573TIP3   OH238209   3.665   3.913   0.863 -0.4138 -0.2650 -0.4559
 5573TIP3    H138210   3.759   3.908   0.847 -0.3437 -1.5951  0.2381
 5573TIP3    H238211   3.635   3.822   0.860 -1.7189  0.1550 -0.8550
 5574TIP3   OH238212   0.674   3.921  10.576 -0.7307 -0.4551 -0.2825
 5574TIP3    H138213   0.628   3.837  10.585 -2.7962  0.6176 -0.2006
 5574TIP3    H238214   0.637   3.960  10.497  1.2619 -0.2039 -1.1429
 5575TIP3   OH238215   6.669   2.469   5.233 -0.4213 -0.4823  0.0225
 5575TIP3    H138216   6.715   2.540   5.277 -2.2147  0.3441  0.6372
 5575TIP3    H238217   6.730   2.440   5.165  1.0301  0.4792  0.8684
 5576TIP3   OH238218   0.738   4.430   1.790  0.0055 -0.1028 -0.2624
 5576TIP3    H138219   0.648   4.437   1.823  0.3585 -1.3018  1.0427
 5576TIP3    H238220   0.771   4.520   1.790 -0.6566  0.1577  0.8441
 5577TIP3   OH238221   5.895   6.396   0.134 -0.3764 -0.3973 -0.0737
 5577TIP3    H138222   5.974   6.345   0.149  0.0001  0.2442  0.1350
 5577TIP3    H238223   5.908   6.437   0.049 -0.6176 -0.5329 -0.1775
 5578TIP3   OH238224   1.684   5.651  12.568  0.9643 -0.2043  0.0430
 5578TIP3    H138225   1.742   5.600  12.624 -1.4545 -2.2124  0.8824
 5578TIP3    H238226   1.700   5.617  12.480  1.8465  0.0750  0.0868
 5579TIP3   OH238227   6.188   1.901  14.821 -0.2308  0.6346  0.1542
 5579TIP3    H138228   6.232   1.818  14.841 -0.4467  0.5247  0.1755
 5579TIP3    H238229   6.245   1.942  14.755 -0.3538  0.2583 -0.1969
 5580TIP3   OH238230   4.359   0.478  13.805  0.2825  0.2604 -0.1929
 5580TIP3    H138231   4.357   0.436  13.891  0.3547  0.4575 -0.0942
 5580TIP3    H238232   4.407   0.560  13.819 -3.2198  2.4490  0.5477
 5581TIP3   OH238233   0.263   4.904  15.737  0.4399  0.0735 -0.3468
 5581TIP3    H138234   0.343   4.916  15.789  0.6329  0.0606 -0.6379
 5581TIP3    H238235   0.196   4.880  15.801  0.3616  1.3443  0.0688
 5582TIP3   OH238236   5.044   3.464   3.028  0.3535  0.1904  0.2024
 5582TIP3    H138237   5.001   3.484   2.945 -1.7108 -1.8233  0.6965
 5582TIP3    H238238   5.046   3.369   3.032  6.2379 -0.0850 -0.3478
 5583TIP3   OH238239   3.822   4.931   5.709  0.4246  0.1004 -0.0076
 5583TIP3    H138240   3.857   4.857   5.659 -0.5060  0.6161 -1.4479
 5583TIP3    H238241   3.732   4.940   5.680  0.8350  2.5408 -0.7349
 5584TIP3   OH238242   0.016   1.074   5.018 -0.1704 -0.0805 -0.3243
 5584TIP3    H138243   0.084   1.135   5.049  0.2265  0.2061 -1.7153
 5584TIP3    H238244   0.030   1.068   4.924  0.5254 -3.2208 -0.1257
 5585TIP3   OH238245   2.640   3.815  14.534  0.1038 -0.0810 -0.1552
 5585TIP3    H138246   2.697   3.782  14.464 -0.0671  0.1043 -0.3824
 5585TIP3    H238247   2.637   3.910  14.520 -0.2087 -0.0832 -0.1004
 5586TIP3   OH238248   2.622   1.002  15.893 -0.7819 -0.0844  0.3084
 5586TIP3    H138249   2.717   1.001  15.906 -1.0614 -1.3730  2.9181
 5586TIP3    H238250   2.602   1.092  15.869  1.1690  0.0243 -1.0778
 5587TIP3   OH238251   1.454   4.044   1.153 -0.2105  1.1178 -0.1974
 5587TIP3    H138252   1.386   4.076   1.094  0.4129  0.9307 -1.0453
 5587TIP3    H238253   1.450   3.949   1.144 -0.9324  1.0110  1.0262
 5588TIP3   OH238254   3.806   3.749  12.421  0.5983 -0.4553 -0.5409
 5588TIP3    H138255   3.811   3.694  12.499  2.0427 -1.9211 -1.6017
 5588TIP3    H238256   3.861   3.825  12.441 -0.2087 -0.0990  0.3846
 5589TIP3   OH238257   2.683   3.616  15.989 -0.3407 -0.5589 -0.1285
 5589TIP3    H138258   2.745   3.579  15.925  2.0793  0.8655  1.2233
 5589TIP3    H238259   2.673   3.547  16.055 -1.0575 -1.1872 -0.8733
 5590TIP3   OH238260   0.205   3.022  13.735  0.5523 -0.6846 -0.0598
 5590TIP3    H138261   0.202   3.076  13.655  1.0527 -0.2990  0.1745
 5590TIP3    H238262   0.229   2.935  13.704  0.1863 -0.6693 -0.3943
 5591TIP3   OH238263   5.313   0.138   4.968 -0.1088 -0.0973  0.4917
 5591TIP3    H138264   5.242   0.191   4.933  0.2666 -0.6657 -1.2133
 5591TIP3    H238265   5.380   0.138   4.899  0.9459 -0.7371  1.4731
 5592TIP3   OH238266   4.886   5.185  12.382  0.1334 -0.2895  0.0162
 5592TIP3    H138267   4.980   5.167  12.379 -0.2118 -2.2139 -0.7349
 5592TIP3    H238268   4.873   5.252  12.315  1.3150  2.2106  2.1029
 5593TIP3   OH238269   3.437   1.657  12.683  0.0265  0.0914 -0.1995
 5593TIP3    H138270   3.458   1.656  12.589 -2.5511 -0.3573 -0.8284
 5593TIP3    H238271   3.343   1.670  12.687 -0.1808 -1.5294  2.3018
 5594TIP3   OH238272   0.726   0.872  16.213  0.5717 -0.5643  0.2300
 5594TIP3    H138273   0.669   0.860  16.289  0.3072  0.1889  0.1586
 5594TIP3    H238274   0.808   0.903  16.250  0.8701 -1.4334  0.3148
 5595TIP3   OH238275   6.218   2.277  14.748 -0.9788  0.0000 -0.2765
 5595TIP3    H138276   6.215   2.252  14.841  0.8760 -1.4765 -0.5617
 5595TIP3    H238277   6.138   2.241  14.711 -1.2029 -0.3620  0.5302
 5596TIP3   OH238278   0.929   6.079   4.372  0.3794 -0.5106 -0.9884
 5596TIP3    H138279   0.890   6.118   4.294  2.0325  1.7894 -0.7877
 5596TIP3    H238280   0.992   6.016   4.337  0.3102 -0.3069 -1.5014
 5597TIP3   OH238281   0.115   0.897  14.470 -0.0370 -0.5985  0.1845
 5597TIP3    H138282   0.064   0.965  14.425 -0.4413  0.3137  1.9594
 5597TIP3    H238283   0.095   0.909  14.562  4.0502  0.4241  1.1339
 5598TIP3   OH238284   6.658   5.238   3.861 -0.6808  0.8918 -0.5740
 5598TIP3    H138285   6.744   5.197   3.872  0.1384  2.5914 -0.3871
 5598TIP3    H238286   6.677   5.329   3.840 -2.4296  0.9550 -2.1636
 5599TIP3   OH238287   0.400   6.315   6.215 -0.1891 -0.1113 -0.2982
 5599TIP3    H138288   0.368   6.281   6.131  2.5763  0.3343 -1.6591
 5599TIP3    H238289   0.485   6.272   6.227  0.1992  1.0473  1.4888
 5600TIP3   OH238290   2.460   5.635  16.730 -0.7486  0.0089 -0.0662
 5600TIP3    H138291   2.366   5.625  16.749 -0.4569 -1.1198  0.8531
 5600TIP3    H238292   2.504   5.580  16.795  0.4644 -1.4426 -2.0044
 5601TIP3   OH238293   4.424   5.547  10.869  0.4816 -0.3867  0.4205
 5601TIP3    H138294   4.493   5.522  10.807  0.3321  0.8915 -0.2941
 5601TIP3    H238295   4.470   5.555  10.953  1.1544  0.1170  0.0179
 5602TIP3   OH238296   0.402   6.240   0.060 -0.1455  0.7580 -0.2157
 5602TIP3    H138297   0.320   6.196   0.040 -0.1214 -0.2951  1.6890
 5602TIP3    H238298   0.470   6.183   0.024 -0.2116  1.3313 -1.2772
 5603TIP3   OH238299   3.876   2.443  14.066  0.2931 -0.3680 -0.4847
 5603TIP3    H138300   3.951   2.394  14.100  0.4995 -0.5646 -1.2122
 5603TIP3    H238301   3.913   2.495  13.994 -0.4297 -1.0983 -1.3952
 5604TIP3   OH238302   3.712   3.557   5.371  0.4170  0.1448  0.1521
 5604TIP3    H138303   3.644   3.623   5.378  0.7180  0.5823 -0.7878
 5604TIP3    H238304   3.791   3.607   5.351  1.0469 -0.3465  1.3254
 5605TIP3   OH238305   2.464   1.547  14.908 -0.5892  0.1229 -0.0626
 5605TIP3    H138306   2.539   1.600  14.936 -0.6942 -0.5727  1.6765
 5605TIP3    H238307   2.389   1.605  14.917 -0.7603 -0.3453  2.2319
 5606TIP3   OH238308   6.368   6.701  14.376 -0.0494 -0.1180  0.4275
 5606TIP3    H138309   6.441   6.721  14.316  0.2904  0.5178  1.0325
 5606TIP3    H238310   6.351   6.784  14.420 -2.1025  0.1258 -0.7046
 5607TIP3   OH238311   0.187   0.792   2.499 -0.2042 -0.1256 -0.1567
 5607TIP3    H138312   0.252   0.811   2.567 -0.5759 -0.8658  0.4234
 5607TIP3    H238313   0.129   0.868   2.499 -0.8038 -0.5476  1.0931
 5608TIP3   OH238314   2.473   4.317  11.816  0.2213  0.3764 -1.0280
 5608TIP3    H138315   2.553   4.355  11.853  2.0644 -4.1189  0.2422
 5608TIP3    H238316   2.498   4.290  11.727  0.0979 -0.7751 -0.7304
 5609TIP3   OH238317   1.134   0.751   3.246 -0.3113  0.2130  0.2661
 5609TIP3    H138318   1.060   0.787   3.196 -0.5369  1.5124  1.4936
 5609TIP3    H238319   1.209   0.804   3.219 -0.1208 -0.1226  0.1354
 5610TIP3   OH238320   6.380   5.359  13.840 -0.1447 -0.3177  0.8867
 5610TIP3    H138321   6.419   5.355  13.753 -1.6263  2.5180 -0.0041
 5610TIP3    H238322   6.448   5.323  13.898  1.4950 -0.8035 -1.2206
 5611TIP3   OH238323   3.490   3.917   4.423  0.1818  0.2163 -0.5330
 5611TIP3    H138324   3.517   3.999   4.382  0.7551 -0.0609 -0.7178
 5611TIP3    H238325   3.395   3.924   4.429  0.2402  1.0021 -0.3168
 5612TIP3   OH238326   1.273   4.894  12.898 -0.1983 -1.5389  0.4571
 5612TIP3    H138327   1.312   4.889  12.810  1.6356 -0.3648  1.1567
 5612TIP3    H238328   1.261   4.803  12.923  3.8704 -2.1557  0.8750
 5613TIP3   OH238329   1.283   6.409   4.865  0.3374 -0.0502 -0.1510
 5613TIP3    H138330   1.317   6.330   4.824 -1.1012  1.4002 -4.7729
 5613TIP3    H238331   1.188   6.402   4.856  0.1143  1.6196  0.5318
 5614TIP3   OH238332   1.689   5.850  16.858 -0.1910 -0.0624  0.4597
 5614TIP3    H138333   1.657   5.768  16.894 -0.3818 -0.5222 -0.7125
 5614TIP3    H238334   1.753   5.881  16.922  0.4165 -1.4928  0.5819
 5615TIP3   OH238335   0.710   4.845  11.119 -0.0080 -0.3411 -0.5589
 5615TIP3    H138336   0.742   4.763  11.157  0.6693  0.2966  0.3006
 5615TIP3    H238337   0.633   4.867  11.171  0.1390 -0.1580 -0.4126
 5616TIP3   OH238338   0.796   4.588  14.482  0.2342  0.3860 -0.4449
 5616TIP3    H138339   0.825   4.605  14.392 -1.8236 -0.1745 -1.2731
 5616TIP3    H238340   0.805   4.494  14.493  0.6759  0.4806  0.0158
 5617TIP3   OH238341   5.348   5.146  10.996  0.9419 -0.1141  0.2915
 5617TIP3    H138342   5.413   5.096  11.046 -0.5033 -2.3402  0.0802
 5617TIP3    H238343   5.393   5.171  10.916  2.2754  0.6025  1.2333
 5618TIP3   OH238344   4.807   1.888  15.915  0.1880  0.6844 -0.0774
 5618TIP3    H138345   4.806   1.883  16.011  0.8135 -0.0257 -0.1031
 5618TIP3    H238346   4.780   1.801  15.886  0.8131  0.6470 -0.5548
 5619TIP3   OH238347   3.859   1.955   1.407  0.7837 -0.0295 -0.0944
 5619TIP3    H138348   3.900   1.911   1.481 -2.0812 -0.1361  1.6043
 5619TIP3    H238349   3.920   2.023   1.381  1.6959  0.3309  2.7217
 5620TIP3   OH238350   5.362   5.975   1.391 -0.4935  0.6098  0.1959
 5620TIP3    H138351   5.323   5.913   1.452  0.4040 -0.2337 -0.0545
 5620TIP3    H238352   5.329   6.061   1.419 -0.1418  0.2463  1.8415
 5621TIP3   OH238353   1.409   0.700  13.125 -0.2292 -0.0828 -0.8482
 5621TIP3    H138354   1.370   0.637  13.184  0.3211  0.0571 -0.3235
 5621TIP3    H238355   1.503   0.687  13.134 -0.1117  0.6510 -0.9055
 5622TIP3   OH238356   2.986   4.783   3.139 -0.1290  0.3375 -0.6837
 5622TIP3    H138357   2.941   4.767   3.056 -2.9949 -0.1991  0.8721
 5622TIP3    H238358   2.996   4.879   3.143  1.4893  0.2853 -2.2882
 5623TIP3   OH238359   2.679   3.544  14.550 -0.7544  0.0316 -0.4955
 5623TIP3    H138360   2.684   3.514  14.641 -2.4597 -2.9606 -1.2432
 5623TIP3    H238361   2.642   3.632  14.556 -1.8261 -0.4882  1.7013
 5624TIP3   OH238362   1.743   5.935  15.512 -0.5377 -0.0128 -0.1615
 5624TIP3    H138363   1.721   5.937  15.419 -0.6507 -0.6548 -0.1509
 5624TIP3    H238364   1.704   6.015  15.548  0.3312  0.7377 -0.8400
 5625TIP3   OH238365   4.891   0.816   5.665  0.1134 -0.2953 -0.8271
 5625TIP3    H138366   4.931   0.839   5.581  1.2267 -0.9840 -0.4975
 5625TIP3    H238367   4.801   0.848   5.658  1.0816  2.7113 -0.9967
 5626TIP3   OH238368   2.800   5.509  13.477 -0.4128  0.3676  0.0084
 5626TIP3    H138369   2.708   5.499  13.500 -0.5577  1.0424 -0.2356
 5626TIP3    H238370   2.840   5.424  13.495 -1.3126 -0.2646 -0.9133
 5627TIP3   OH238371   1.999   6.670  12.957 -0.1944 -0.1221  0.0476
 5627TIP3    H138372   2.012   6.581  12.989 -0.6675  0.5273  2.2487
 5627TIP3    H238373   2.077   6.689  12.905  0.2973 -1.5344  0.2237
 5628TIP3   OH238374   5.294   4.384   2.228  0.4600 -0.2247  0.1998
 5628TIP3    H138375   5.247   4.308   2.193  1.2524 -0.2574 -0.8388
 5628TIP3    H238376   5.278   4.453   2.164  1.1536 -0.0099  0.2471
 5629TIP3   OH238377   6.540   0.973   0.173  0.3071 -0.1711 -0.4319
 5629TIP3    H138378   6.479   0.973   0.246  1.0415  0.1470  0.1855
 5629TIP3    H238379   6.531   0.885   0.135 -0.5754 -0.1060 -0.4035
 5630TIP3   OH238380   1.077   2.538  15.535  0.2035 -0.3327 -0.5056
 5630TIP3    H138381   0.989   2.504  15.552 -0.0580 -0.3466 -1.7905
 5630TIP3    H238382   1.066   2.633  15.534  0.4824 -0.2721  0.7066
 5631TIP3   OH238383   2.225   1.200   5.068  0.7394 -0.1903  0.3824
 5631TIP3    H138384   2.315   1.209   5.035  0.4489 -1.0706 -0.6806
 5631TIP3    H238385   2.175   1.265   5.019  0.6060 -0.3680  0.2858
 5632TIP3   OH238386   4.002   0.828  15.225 -0.0403 -0.2079  0.2020
 5632TIP3    H138387   3.959   0.909  15.200 -0.2036 -0.7456 -1.3374
 5632TIP3    H238388   4.084   0.856  15.267  0.1768  0.7493 -0.8239
 5633TIP3   OH238389   4.572   0.490   3.705  0.2845 -0.2190  0.5863
 5633TIP3    H138390   4.511   0.562   3.688 -0.4707 -1.0007 -0.1139
 5633TIP3    H238391   4.522   0.429   3.759  0.7541 -0.4493  0.7655
 5634TIP3   OH238392   6.527   2.003   4.303 -0.2782 -0.3196  0.4707
 5634TIP3    H138393   6.573   1.928   4.265 -2.0441 -1.2604  0.1147
 5634TIP3    H238394   6.483   2.044   4.229 -1.4530 -0.4922  1.0579
 5635TIP3   OH238395   6.641   5.543   4.063  0.1566 -0.3625  0.4570
 5635TIP3    H138396   6.711   5.602   4.033 -0.3063 -0.4818 -0.9023
 5635TIP3    H238397   6.620   5.490   3.987 -1.9553  0.1896  0.5929
 5636TIP3   OH238398   5.973   6.812   2.203 -0.3271  0.4276 -0.6311
 5636TIP3    H138399   5.937   6.885   2.254  0.0018 -0.2902  0.6794
 5636TIP3    H238400   5.924   6.814   2.121 -0.6071  1.8596 -0.4584
 5637TIP3   OH238401   4.466   2.704   0.047  0.6575  0.2646  0.8247
 5637TIP3    H138402   4.480   2.615   0.081  3.0882  0.5691  0.7950
 5637TIP3    H238403   4.553   2.746   0.053  0.3212  1.5966 -2.1643
 5638TIP3   OH238404   5.245   4.603  13.867 -0.4495 -0.0471  0.2814
 5638TIP3    H138405   5.270   4.544  13.938 -1.1503 -1.4398 -0.6101
 5638TIP3    H238406   5.149   4.599  13.865 -0.4154 -0.3345 -1.0025
 5639TIP3   OH238407   2.832   6.694  12.831 -0.4500 -0.1595  0.2064
 5639TIP3    H138408   2.861   6.640  12.905 -1.0496 -0.6376  0.0926
 5639TIP3    H238409   2.904   6.756  12.818 -0.1045 -0.4144  0.8490
 5640TIP3   OH238410   0.463   3.156   1.679  0.2759 -0.1375 -0.1291
 5640TIP3    H138411   0.497   3.117   1.760 -0.0005  0.1350  0.1216
 5640TIP3    H238412   0.461   3.083   1.617 -1.1306 -0.7808  0.6061
 5641TIP3   OH238413   5.689   0.658  15.760  0.1505 -0.3453  0.0538
 5641TIP3    H138414   5.615   0.614  15.717 -0.3968  1.2471 -0.7151
 5641TIP3    H238415   5.659   0.748  15.772  1.1993 -0.1725  1.6639
 5642TIP3   OH238416   0.182   4.313   3.374  0.2328  0.0714 -1.0151
 5642TIP3    H138417   0.152   4.234   3.419 -2.0276  0.8533 -0.9818
 5642TIP3    H238418   0.206   4.373   3.444 -2.0902  0.8411 -0.7803
 5643TIP3   OH238419   2.788   5.947   6.363 -0.2346  0.1379  0.0545
 5643TIP3    H138420   2.865   5.999   6.385 -0.7699  1.1494 -0.3841
 5643TIP3    H238421   2.815   5.856   6.377  0.4903  0.5520  1.5410
 5644TIP3   OH238422   6.070   0.441   4.993  0.2632 -0.0022  0.4785
 5644TIP3    H138423   6.117   0.438   4.910 -2.1013  1.7335 -1.0213
 5644TIP3    H238424   6.006   0.511   4.983 -2.0373 -1.5749  2.7095
 5645TIP3   OH238425   1.609   5.394  15.104  0.1567  0.4526 -0.2744
 5645TIP3    H138426   1.519   5.382  15.136  0.0813  1.9245  0.1241
 5645TIP3    H238427   1.647   5.460  15.163  1.6279 -0.4089 -0.2135
 5646TIP3   OH238428   3.680   1.210  13.942  0.2331 -0.5393 -0.3438
 5646TIP3    H138429   3.634   1.239  14.020 -0.7608 -0.8749 -0.7773
 5646TIP3    H238430   3.723   1.128  13.967  4.1871  1.7642  1.2839
 5647TIP3   OH238431   3.167   0.838  15.904  0.0702 -0.3654 -0.7053
 5647TIP3    H138432   3.248   0.886  15.885  0.6698 -1.4681 -1.0245
 5647TIP3    H238433   3.129   0.821  15.818  0.7293 -1.8868 -0.7207
 5648TIP3   OH238434   0.063   5.177  10.705 -0.3764 -0.7591 -0.1416
 5648TIP3    H138435   0.112   5.235  10.646  1.5024  1.0766  2.8957
 5648TIP3    H238436  -0.027   5.207  10.700  0.0784  0.5800 -0.7370
 5649TIP3   OH238437   4.149   0.704   5.307  0.9946  0.3516 -0.0237
 5649TIP3    H138438   4.145   0.643   5.233  0.5260  0.8459 -0.4035
 5649TIP3    H238439   4.068   0.689   5.355  1.6357 -0.5200  0.8456
 5650TIP3   OH238440   1.606   3.116   5.356 -0.4891 -0.1530  0.3792
 5650TIP3    H138441   1.527   3.162   5.329  0.3961  0.5157 -1.1569
 5650TIP3    H238442   1.581   3.074   5.439 -1.7052  2.0043  1.1822
 5651TIP3   OH238443   1.198   1.816  11.323  0.0961 -0.8047  0.0235
 5651TIP3    H138444   1.170   1.814  11.232  1.3338 -0.1624 -0.3866
 5651TIP3    H238445   1.181   1.727  11.356 -1.4814 -0.7188 -0.4537
 5652TIP3   OH238446   3.104   3.355   0.051  0.1103  0.2023  0.6130
 5652TIP3    H138447   3.145   3.284   0.001  1.2037 -0.2165  2.0200
 5652TIP3    H238448   3.101   3.429  -0.010 -1.6139 -1.1747 -1.0801
 5653TIP3   OH238449   5.077   1.507   2.703  0.3030  0.0539 -0.2798
 5653TIP3    H138450   5.071   1.531   2.611 -0.2875  0.6015 -0.1108
 5653TIP3    H238451   4.987   1.506   2.734  0.5987  2.9677  1.0243
 5654TIP3   OH238452   2.526   3.145  11.757  0.3424 -0.1025  0.5165
 5654TIP3    H138453   2.433   3.162  11.773  1.0363  1.6860  3.1671
 5654TIP3    H238454   2.547   3.198  11.680 -0.2630  1.6234  1.5004
 5655TIP3   OH238455   6.591   6.816  13.473 -0.0660 -0.2813 -0.0919
 5655TIP3    H138456   6.587   6.729  13.433  0.1086  0.0263 -0.7907
 5655TIP3    H238457   6.510   6.823  13.523 -0.1305 -0.8038 -0.1160
 5656TIP3   OH238458   4.830   6.375   4.465  0.2917  0.0561 -0.0281
 5656TIP3    H138459   4.895   6.375   4.395  0.7583 -0.2865  0.3990
 5656TIP3    H238460   4.791   6.463   4.461 -0.2826 -0.2294 -1.2438
 5657TIP3   OH238461   0.124   6.579  15.206 -0.3063 -0.6995  0.4149
 5657TIP3    H138462   0.106   6.664  15.246  0.6591  0.3161 -1.1845
 5657TIP3    H238463   0.091   6.515  15.269 -3.1659  0.8611  0.7010
 5658TIP3   OH238464   0.814   4.572  11.124  0.2870  0.1388 -0.4105
 5658TIP3    H138465   0.798   4.604  11.035  0.8866  0.9715 -0.2274
 5658TIP3    H238466   0.855   4.486  11.111 -1.8762 -0.8841 -0.9028
 5659TIP3   OH238467   1.406   1.552   5.333 -0.7628 -0.6592  0.1784
 5659TIP3    H138468   1.393   1.463   5.366  2.7101 -0.4207  2.7091
 5659TIP3    H238469   1.359   1.608   5.395 -1.7118 -0.5624 -0.5837
 5660TIP3   OH238470   6.454   6.451  16.767  0.7780  0.5330 -0.0618
 5660TIP3    H138471   6.514   6.458  16.842 -2.5209  0.9795  2.7876
 5660TIP3    H238472   6.430   6.542  16.747  0.7383  0.3444 -0.8953
 5661TIP3   OH238473   2.639   2.773  14.434  0.4094  0.1395  0.5348
 5661TIP3    H138474   2.635   2.687  14.476  2.3812 -0.1655  0.2003
 5661TIP3    H238475   2.586   2.764  14.355  0.5826 -0.7798  0.5070
 5662TIP3   OH238476   3.766   2.536  12.659 -0.0860 -0.3021  0.3556
 5662TIP3    H138477   3.743   2.548  12.567  1.0268  0.3886  0.1491
 5662TIP3    H238478   3.729   2.612  12.703  0.6775  0.1514  0.2267
 5663TIP3   OH238479   6.041   4.445   3.172 -0.4897 -0.4416  0.1162
 5663TIP3    H138480   6.004   4.406   3.251  2.0254 -0.9017  1.1812
 5663TIP3    H238481   6.040   4.539   3.190  0.3373 -0.5599  0.8602
 5664TIP3   OH238482   3.860   4.695  15.440  0.4153 -0.4390  0.3400
 5664TIP3    H138483   3.771   4.731  15.440 -0.0032 -1.4550 -0.0161
 5664TIP3    H238484   3.916   4.772  15.451 -0.4473  0.3761 -0.6836
 5665TIP3   OH238485   5.645   4.795   1.935 -0.6338 -0.2037  0.0451
 5665TIP3    H138486   5.592   4.717   1.916  0.8974 -1.4130  0.5810
 5665TIP3    H238487   5.637   4.808   2.029 -1.1301  0.5013 -0.0827
 5666TIP3   OH238488   3.581   0.298  10.515 -0.1995  0.6540 -0.1016
 5666TIP3    H138489   3.545   0.209  10.519  0.6815  0.3427  1.7401
 5666TIP3    H238490   3.575   0.322  10.423 -2.1674 -0.5968 -0.3588
 5667TIP3   OH238491   3.098   0.441  11.669 -0.5008 -0.3551 -0.0734
 5667TIP3    H138492   3.128   0.430  11.579  1.0236  0.1248  0.3420
 5667TIP3    H238493   3.015   0.393  11.673  0.0732 -1.5219 -1.3757
 5668TIP3   OH238494   3.643   2.777   0.562  0.3370 -0.7137 -0.3349
 5668TIP3    H138495   3.601   2.858   0.535 -0.6914 -1.3711 -0.7903
 5668TIP3    H238496   3.735   2.788   0.536  0.6055  0.9716  1.1812
 5669TIP3   OH238497   3.238   5.927  11.269  0.0621 -0.3899  0.1337
 5669TIP3    H138498   3.319   5.953  11.225 -0.2327  2.0376  0.9212
 5669TIP3    H238499   3.200   5.860  11.211  0.8080  1.0667 -2.1553
 5670TIP3   OH238500   1.185   5.714   6.445 -0.5250  0.0471 -0.0575
 5670TIP3    H138501   1.095   5.686   6.465 -1.1202  1.8817 -0.0028
 5670TIP3    H238502   1.180   5.810   6.442  1.4613  0.1816  0.0164
 5671TIP3   OH238503   5.895   3.860   3.107  0.7661 -0.1858  0.7083
 5671TIP3    H138504   5.886   3.770   3.140  1.1984 -0.8113 -0.7906
 5671TIP3    H238505   5.836   3.864   3.032  0.7132  0.8133  0.7884
 5672TIP3   OH238506   3.818   4.338   4.099  0.5569  0.4018 -0.2681
 5672TIP3    H138507   3.730   4.368   4.077  0.8471  1.5005  0.0043
 5672TIP3    H238508   3.816   4.324   4.194  0.6284  0.2485 -0.2879
 5673TIP3   OH238509   3.948   1.581   1.321  0.1936 -0.0081  0.1579
 5673TIP3    H138510   4.015   1.524   1.358  1.1501  0.1481 -1.2606
 5673TIP3    H238511   3.949   1.658   1.378  3.8970  1.6561 -1.7643
 5674TIP3   OH238512   4.053   6.394   3.137 -0.4805  0.3081 -0.0516
 5674TIP3    H138513   4.145   6.404   3.110 -0.8999  0.1832 -1.6302
 5674TIP3    H238514   4.016   6.482   3.127 -0.1635  0.7686  2.2450
 5675TIP3   OH238515   6.483   3.350  11.747 -0.3190  0.3722 -0.1518
 5675TIP3    H138516   6.570   3.376  11.715 -0.4016  0.4044 -0.3481
 5675TIP3    H238517   6.472   3.399  11.828 -0.7903  1.5521 -0.9045
 5676TIP3   OH238518   2.938   4.811  11.366  0.3955  0.2804  0.2562
 5676TIP3    H138519   2.900   4.813  11.278  2.1292  1.7354 -0.5053
 5676TIP3    H238520   3.004   4.742  11.362  0.7174  0.5825  0.2917
 5677TIP3   OH238521   6.606   1.413  12.920  0.0381  0.5310  0.0856
 5677TIP3    H138522   6.572   1.496  12.954  0.6990  1.2076 -0.8644
 5677TIP3    H238523   6.603   1.423  12.825 -2.2018 -1.4746 -0.1606
 5678TIP3   OH238524   1.486   0.402   4.682  0.0151  0.2363  0.4570
 5678TIP3    H138525   1.537   0.425   4.759  0.3871 -0.6554  0.4853
 5678TIP3    H238526   1.411   0.462   4.684  2.4053  3.6151 -1.1659
 5679TIP3   OH238527   2.204   1.875  10.310 -0.3990 -0.5818 -0.0123
 5679TIP3    H138528   2.159   1.791  10.320 -1.5311  0.1435  1.5613
 5679TIP3    H238529   2.138   1.933  10.272 -0.9022  0.5090  2.3381
 5680TIP3   OH238530   1.639   6.274   2.014 -0.0961 -0.9402  0.1656
 5680TIP3    H138531   1.718   6.317   1.983 -0.9956  1.1311  0.5472
 5680TIP3    H238532   1.666   6.185   2.037  1.3125 -1.5047 -3.2101
 5681TIP3   OH238533   1.834   5.966  14.851 -0.1059 -0.4491 -0.0817
 5681TIP3    H138534   1.856   5.879  14.882 -1.4404 -1.1278 -0.9064
 5681TIP3    H238535   1.756   5.990  14.901 -0.1269 -0.0099 -0.3210
 5682TIP3   OH238536   5.438   5.653   0.076 -0.4266  0.0728 -0.2108
 5682TIP3    H138537   5.515   5.685   0.030 -0.3523  0.0201 -0.1236
 5682TIP3    H238538   5.473   5.601   0.148 -0.5407 -0.9312 -0.8575
 5683TIP3   OH238539   4.197   5.436   2.247 -0.0627 -0.6892 -0.4520
 5683TIP3    H138540   4.257   5.506   2.269 -1.4781  0.3768  0.1935
 5683TIP3    H238541   4.197   5.432   2.151  0.0263  0.2056 -0.4907
 5684TIP3   OH238542   0.250   5.223  16.013  0.2607 -0.3199  0.0491
 5684TIP3    H138543   0.189   5.149  16.011 -0.6742  0.4305  0.0504
 5684TIP3    H238544   0.336   5.183  16.013 -0.2272 -1.4702  1.5546
 5685TIP3   OH238545   3.956   5.325  12.589 -0.0492  0.1636  0.3867
 5685TIP3    H138546   4.013   5.249  12.599 -1.9561 -1.2970  0.6932
 5685TIP3    H238547   3.964   5.349  12.497  1.8795  0.7327  0.6525
 5686TIP3   OH238548   3.907   4.254  16.246  0.2052  0.2948  0.4113
 5686TIP3    H138549   3.960   4.312  16.301 -0.9707  0.8032  1.0215
 5686TIP3    H238550   3.970   4.217  16.184  1.2900  0.8399  1.1569
 5687TIP3   OH238551   2.773   6.760   5.719 -0.2271  0.4945  0.5462
 5687TIP3    H138552   2.686   6.738   5.755 -0.7650  1.7037  0.0429
 5687TIP3    H238553   2.805   6.830   5.776 -0.3611  1.2665 -0.3095
 5688TIP3   OH238554   6.123   6.142  15.089  0.1636 -0.5567  0.0580
 5688TIP3    H138555   6.192   6.197  15.126 -0.1779 -0.0231 -0.0771
 5688TIP3    H238556   6.151   6.127  14.999  0.5848 -1.1608  0.2879
 5689TIP3   OH238557   4.225   5.379   4.323  0.8018 -0.1527 -0.1604
 5689TIP3    H138558   4.149   5.336   4.283  1.7067 -0.1070 -2.0454
 5689TIP3    H238559   4.241   5.456   4.268 -0.5768  2.5753  2.9489
 5690TIP3   OH238560   1.949   0.959  16.418  0.2257 -0.5254  0.4073
 5690TIP3    H138561   1.940   0.938  16.511 -2.0630  1.0792  0.6317
 5690TIP3    H238562   1.868   0.928  16.378 -1.0118  2.9216 -0.1188
 5691TIP3   OH238563   1.745   4.356  14.612  0.7564 -0.1341 -0.2487
 5691TIP3    H138564   1.687   4.389  14.681  0.8518  0.3424 -0.3938
 5691TIP3    H238565   1.758   4.264  14.634 -0.5845 -0.4228 -0.5778
 5692TIP3   OH238566   0.564   1.469   5.091 -0.1255  0.0133  0.0553
 5692TIP3    H138567   0.621   1.409   5.043 -1.8718 -1.3622 -0.4098
 5692TIP3    H238568   0.492   1.488   5.030  0.2092  2.3660  0.3194
 5693TIP3   OH238569   5.499   3.969   1.885  0.0341 -0.2030  0.5929
 5693TIP3    H138570   5.486   3.988   1.978  0.3066  1.2421  0.3548
 5693TIP3    H238571   5.418   3.927   1.857  0.6467 -2.4003  1.9011
 5694TIP3   OH238572   3.685   1.887  16.181  0.4293 -0.7578 -0.1609
 5694TIP3    H138573   3.614   1.906  16.242 -0.4164  0.4901 -1.4714
 5694TIP3    H238574   3.687   1.792  16.175  1.6156 -1.0497  3.0012
 5695TIP3   OH238575   6.066   4.318   4.722 -0.0367  0.0144  0.2909
 5695TIP3    H138576   6.126   4.365   4.780 -0.2019 -0.8793  1.2197
 5695TIP3    H238577   5.979   4.342   4.754 -0.1210 -1.0105  0.8737
 5696TIP3   OH238578   2.731   1.343  15.744 -0.3969  0.0912  0.3432
 5696TIP3    H138579   2.739   1.331  15.650  1.8887 -3.6078  0.8127
 5696TIP3    H238580   2.818   1.371  15.773 -0.1965 -1.6396  1.5859
 5697TIP3   OH238581   2.420   1.060   1.755 -0.5305 -0.8486 -0.4819
 5697TIP3    H138582   2.348   1.082   1.695 -1.0271  1.2411  0.7722
 5697TIP3    H238583   2.387   1.084   1.841  1.8269  0.6978  0.0919
 5698TIP3   OH238584   6.368   5.883   5.006 -0.4235 -0.2025 -0.4568
 5698TIP3    H138585   6.337   5.801   4.967  0.5305  0.0065 -1.7268
 5698TIP3    H238586   6.369   5.866   5.100 -1.6229 -1.1526 -0.5959
 5699TIP3   OH238587   5.886   6.825  16.954  1.0759  0.1934  0.2963
 5699TIP3    H138588   5.799   6.795  16.980  1.6508 -1.8388  0.0098
 5699TIP3    H238589   5.942   6.802  17.028  1.6071  0.2903 -0.0735
 5700TIP3   OH238590   6.522   5.270   1.596  0.1738  0.4081  0.7368
 5700TIP3    H138591   6.433   5.303   1.606 -0.0455  1.9419 -3.9058
 5700TIP3    H238592   6.512   5.192   1.542  1.6312  0.6659  0.0544
 5701TIP3   OH238593   0.619   4.209   5.400 -0.3212 -0.3963  0.2066
 5701TIP3    H138594   0.612   4.305   5.407  1.3016 -0.2795  0.6013
 5701TIP3    H238595   0.576   4.188   5.317 -3.1522  0.3240  1.3539
 5702TIP3   OH238596   1.255   3.959   0.938 -0.2223 -0.5780  0.2681
 5702TIP3    H138597   1.247   4.044   0.982  2.2883 -0.2364  0.1991
 5702TIP3    H238598   1.231   3.977   0.847  2.0009  0.5490 -0.1660
 5703TIP3   OH238599   1.556   5.977  12.985  0.1313  0.3277  0.3211
 5703TIP3    H138600   1.523   6.062  13.015 -0.3094  0.3125 -0.1027
 5703TIP3    H238601   1.628   5.998  12.926 -0.3395  0.4417 -0.2320
 5704TIP3   OH238602   4.367   5.529   1.860  0.1114  0.1760  0.0701
 5704TIP3    H138603   4.343   5.574   1.941  1.7421 -2.2820  2.0459
 5704TIP3    H238604   4.446   5.573   1.830  0.0026  0.5244  0.2940
 5705TIP3   OH238605   2.357   4.934  14.010 -0.2050 -0.1124  0.0821
 5705TIP3    H138606   2.360   4.838  14.011  1.7216 -0.1057 -0.0233
 5705TIP3    H238607   2.387   4.958  13.922 -1.7006  0.6021 -0.2554
 5706TIP3   OH238608   6.389   4.996   2.724 -0.4637 -0.1634 -0.1297
 5706TIP3    H138609   6.381   4.917   2.778 -1.5344 -0.3056 -0.4792
 5706TIP3    H238610   6.425   5.062   2.784 -0.5831 -0.6195  0.4508
 5707TIP3   OH238611   0.293   1.707  15.790  0.4914 -0.4002 -0.1713
 5707TIP3    H138612   0.222   1.667  15.739 -1.3165  0.7726  1.2897
 5707TIP3    H238613   0.314   1.787  15.742 -0.9430  0.5083  0.6442
 5708TIP3   OH238614   0.908   2.211   3.887  0.3987  0.2469  0.4441
 5708TIP3    H138615   0.905   2.116   3.876 -0.5619  0.2529  0.6032
 5708TIP3    H238616   0.928   2.223   3.980 -2.3803  0.1674  1.1271
 5709TIP3   OH238617   2.244   4.486   6.467 -0.1866 -0.4601  0.1107
 5709TIP3    H138618   2.283   4.400   6.453 -1.7896 -1.4327  1.2497
 5709TIP3    H238619   2.306   4.548   6.428  0.2213 -2.2230 -2.2461
 5710TIP3   OH238620   3.031   6.508  13.631 -0.1376  0.0214 -0.1412
 5710TIP3    H138621   3.065   6.437  13.685 -0.6597 -0.8978 -0.9885
 5710TIP3    H238622   2.987   6.566  13.693 -0.3090 -0.7610  0.4880
 5711TIP3   OH238623   0.075   4.681  10.898 -0.3187  0.4620 -0.1462
 5711TIP3    H138624   0.008   4.679  10.830 -0.6927 -1.6082  0.2347
 5711TIP3    H238625   0.157   4.661  10.852 -0.6277 -1.3272  0.0247
 5712TIP3   OH238626   6.424   3.337  12.292 -0.2564 -0.7040  0.0716
 5712TIP3    H138627   6.420   3.270  12.225  1.8810  0.1116 -0.9532
 5712TIP3    H238628   6.361   3.404  12.263  0.1604 -0.6686 -0.7789
 5713TIP3   OH238629   3.216   0.260  17.165  0.2403  0.8594 -0.1523
 5713TIP3    H138630   3.171   0.186  17.205  0.6345 -0.1610 -1.5026
 5713TIP3    H238631   3.153   0.296  17.102 -0.5779  2.7847  1.6385
 5714TIP3   OH238632   2.623   3.883   5.662 -0.3939  0.3622  0.4641
 5714TIP3    H138633   2.629   3.874   5.757 -0.4344 -1.6600  0.3071
 5714TIP3    H238634   2.691   3.826   5.627 -1.3525 -0.0952 -0.7403
 5715TIP3   OH238635   2.259   2.770  10.799 -0.2393  0.1672 -0.0154
 5715TIP3    H138636   2.255   2.721  10.717  0.1609 -0.3690  0.2827
 5715TIP3    H238637   2.268   2.862  10.771 -1.8660  0.1800 -0.5790
 5716TIP3   OH238638   0.219   1.048  11.307  0.4723  0.1020 -0.0482
 5716TIP3    H138639   0.309   1.080  11.304  0.3154  0.5393 -0.0911
 5716TIP3    H238640   0.190   1.051  11.216 -0.1652  1.6289  0.1759
 5717TIP3   OH238641   4.878   5.334   3.746 -0.3613  0.5814 -0.2482
 5717TIP3    H138642   4.914   5.291   3.669 -0.3781  0.4066 -0.1602
 5717TIP3    H238643   4.867   5.425   3.720 -0.3798  0.5206 -0.4563
 5718TIP3   OH238644   1.138   3.487  12.737  0.0149  0.4645  0.5080
 5718TIP3    H138645   1.149   3.497  12.831  1.2030 -1.6077  0.6563
 5718TIP3    H238646   1.081   3.411  12.727 -2.0556  2.0439 -0.4932
 5719TIP3   OH238647   6.651   6.029   3.321  0.3102 -0.5893 -0.3229
 5719TIP3    H138648   6.562   6.025   3.285  1.1662  0.6385 -2.7659
 5719TIP3    H238649   6.701   6.080   3.257  2.6426 -0.6681  1.3133
 5720TIP3   OH238650   3.209   5.392   4.416 -0.9953  0.0302 -0.3601
 5720TIP3    H138651   3.151   5.332   4.463 -1.7151  0.3641 -0.8108
 5720TIP3    H238652   3.190   5.478   4.453  0.7134 -0.1100  0.9582
 5721TIP3   OH238653   0.998   1.630  13.734 -0.3006  0.3189  0.4024
 5721TIP3    H138654   1.050   1.598  13.808  1.3917  0.2157 -0.7910
 5721TIP3    H238655   0.909   1.599  13.753  0.6006 -2.1191  1.0330
 5722TIP3   OH238656   2.833   0.327  11.680 -0.8945 -0.6394  0.2182
 5722TIP3    H138657   2.845   0.233  11.692 -1.5838 -0.4485  2.8622
 5722TIP3    H238658   2.743   0.344  11.708 -0.7777  0.8174 -0.1911
 5723TIP3   OH238659   4.520   2.790  11.065  0.0564 -0.2427  0.1132
 5723TIP3    H138660   4.572   2.867  11.044  0.1178 -0.4002 -0.3107
 5723TIP3    H238661   4.434   2.825  11.087  0.6877  0.1586  2.2296
 5724TIP3   OH238662   4.965   2.222  14.343 -0.4568  0.2828  0.3483
 5724TIP3    H138663   4.981   2.262  14.429 -0.0015 -0.1234  0.4550
 5724TIP3    H238664   4.977   2.293  14.281 -1.8826  0.8582  0.6849
 5725TIP3   OH238665   3.104   0.396   3.220  0.4571 -0.1736 -0.0001
 5725TIP3    H138666   3.042   0.339   3.265 -0.4485 -0.1837 -1.2029
 5725TIP3    H238667   3.092   0.376   3.127  0.5738  1.5310 -0.4106
 5726TIP3   OH238668   5.704   2.211   0.785  0.3120  0.3234 -0.0581
 5726TIP3    H138669   5.634   2.205   0.849  0.4900  1.6042  0.2836
 5726TIP3    H238670   5.784   2.191   0.835  0.4749  1.5204  0.2102
 5727TIP3   OH238671   3.271   6.459  16.158  0.0629  0.4219 -0.3568
 5727TIP3    H138672   3.323   6.405  16.218 -1.6388  0.9308  1.6916
 5727TIP3    H238673   3.238   6.398  16.093 -0.1765 -0.6499  0.7466
 5728TIP3   OH238674   0.889   4.312  14.290  0.1266  0.4010  0.2295
 5728TIP3    H138675   0.957   4.256  14.327 -0.6013  0.6657  2.1190
 5728TIP3    H238676   0.888   4.292  14.197  1.2628 -1.2236  0.5328
 5729TIP3   OH238677   0.802   2.231  14.308  0.1832 -0.1497  0.1494
 5729TIP3    H138678   0.860   2.271  14.374 -0.2464 -0.5523  0.7813
 5729TIP3    H238679   0.721   2.213  14.355  0.4336 -1.9912 -0.0522
 5730TIP3   OH238680   3.602   1.182   1.978 -0.0606 -0.3114 -0.0090
 5730TIP3    H138681   3.646   1.100   2.001  0.2362  0.2606  1.6089
 5730TIP3    H238682   3.570   1.168   1.889  1.4704 -1.5501 -0.4108
 5731TIP3   OH238683   3.874   2.944   0.572  0.2134 -0.5845  0.0168
 5731TIP3    H138684   3.895   2.920   0.663  1.4380  2.4646  0.6820
 5731TIP3    H238685   3.950   2.993   0.542 -0.6692 -0.4812 -2.2784
 5732TIP3   OH238686   0.038   0.801   5.088 -0.4258 -0.6894  0.0572
 5732TIP3    H138687   0.031   0.788   4.993 -1.6404  0.1828 -0.0115
 5732TIP3    H238688   0.032   0.896   5.098 -1.2445 -0.8398  1.0654
 5733TIP3   OH238689   0.586   1.997   4.170  0.4426  0.4942  0.1185
 5733TIP3    H138690   0.557   1.988   4.261 -0.4757  2.5873  0.1047
 5733TIP3    H238691   0.545   2.079   4.140  0.6706 -0.1652 -2.2001
 5734TIP3   OH238692   0.926   0.947   0.543 -0.6559  0.0195 -0.2163
 5734TIP3    H138693   0.978   0.937   0.623  0.7609  0.3609 -1.0619
 5734TIP3    H238694   0.885   1.033   0.551 -0.0724  0.2898 -0.1095
 5735TIP3   OH238695   1.850   3.976  12.827 -0.2707 -0.1972 -0.0461
 5735TIP3    H138696   1.809   3.890  12.838 -1.6083  0.4423  0.1827
 5735TIP3    H238697   1.934   3.957  12.785 -0.2464 -1.6626  0.6079
 5736TIP3   OH238698   2.805   6.784  14.486 -0.1543 -0.1988  0.0055
 5736TIP3    H138699   2.853   6.863  14.509  1.0094 -1.2008  1.1507
 5736TIP3    H238700   2.855   6.712  14.525 -2.5732 -1.3136  1.3465
 5737TIP3   OH238701   3.679   4.895  14.490 -0.3250 -0.4453  0.3428
 5737TIP3    H138702   3.618   4.883  14.417  0.5883 -0.2299 -0.4681
 5737TIP3    H238703   3.751   4.836  14.470 -0.0977 -0.4335  1.1170
 5738TIP3   OH238704   6.130   5.387   1.237  0.6209 -0.0769 -0.1352
 5738TIP3    H138705   6.100   5.307   1.194  3.3112 -0.9511 -0.5849
 5738TIP3    H238706   6.071   5.399   1.311 -0.2950 -2.0787 -0.4803
 5739TIP3   OH238707   0.537   5.008  11.250 -0.5644  0.1342 -0.1688
 5739TIP3    H138708   0.568   5.093  11.219  1.1246  0.0076  1.0562
 5739TIP3    H238709   0.496   5.028  11.335  1.3036 -0.4432  0.9162
 5740TIP3   OH238710   4.014   1.940  14.776 -0.1974  0.1281  0.0603
 5740TIP3    H138711   4.076   1.868  14.773 -0.1450  0.2094 -1.4407
 5740TIP3    H238712   4.044   2.001  14.709 -0.8201  1.0800  0.6147
 5741TIP3   OH238713   3.979   4.078  14.811  0.1804  0.3339  0.5348
 5741TIP3    H138714   3.911   4.026  14.854  0.7303 -0.1501  0.8350
 5741TIP3    H238715   3.989   4.038  14.725  0.1110  0.3837  0.5037
 5742TIP3   OH238716   5.170   5.152  13.856  0.6368  0.7122 -0.3253
 5742TIP3    H138717   5.160   5.176  13.764 -0.3643  2.6881  0.2493
 5742TIP3    H238718   5.084   5.121  13.883  0.7475  0.7839  0.1173
 5743TIP3   OH238719   0.748   2.779  16.600  0.2376 -0.2928 -0.3859
 5743TIP3    H138720   0.668   2.792  16.550 -1.0238 -0.9785  1.3879
 5743TIP3    H238721   0.802   2.855  16.577 -2.8871  3.0193  2.0780
 5744TIP3   OH238722   2.320   0.823   3.706 -0.1438 -0.0021  0.1304
 5744TIP3    H138723   2.236   0.851   3.742 -1.0372 -1.9715 -0.2863
 5744TIP3    H238724   2.330   0.872   3.624 -0.5346  0.7397  0.5195
 5745TIP3   OH238725   4.256   6.412  16.305  0.1006 -0.2889  0.0432
 5745TIP3    H138726   4.161   6.404  16.318  0.1889  0.4904  1.3489
 5745TIP3    H238727   4.287   6.455  16.385  1.6032 -0.7995 -0.2524
 5746TIP3   OH238728   0.281   6.051   4.576 -0.1816 -0.0180  0.4906
 5746TIP3    H138729   0.243   6.005   4.651 -0.4892 -1.4843 -0.5188
 5746TIP3    H238730   0.348   6.108   4.614 -0.2581 -0.7978  1.8652
 5747TIP3   OH238731   5.773   4.866  14.951 -0.4355  0.1062  0.3343
 5747TIP3    H138732   5.815   4.791  14.908  0.3750  2.0760 -2.6276
 5747TIP3    H238733   5.845   4.927  14.968 -1.2962  0.9466  1.0597
 5748TIP3   OH238734   3.216   6.728   3.115 -0.2708  0.0080  0.3519
 5748TIP3    H138735   3.223   6.640   3.076  0.7762 -1.0447  2.6943
 5748TIP3    H238736   3.306   6.758   3.121 -0.5924  1.0592 -0.0183
 5749TIP3   OH238737   0.443   0.719  13.692 -0.0025 -0.1610 -0.9341
 5749TIP3    H138738   0.424   0.643  13.746  0.3070  0.8016  0.5878
 5749TIP3    H238739   0.539   0.727  13.695 -0.0825  0.7525 -0.3858
 5750TIP3   OH238740   0.989   5.104  12.667  0.3189  0.4486  0.5922
 5750TIP3    H138741   1.025   5.018  12.690  0.1355  0.7745  2.2432
 5750TIP3    H238742   1.023   5.163  12.734  1.0054  1.8385 -0.9106
 5751TIP3   OH238743   0.854   1.084   6.394  0.6131  0.1056  0.9545
 5751TIP3    H138744   0.844   1.154   6.329  2.1342 -0.7101 -0.2445
 5751TIP3    H238745   0.903   1.124   6.465 -0.0667  0.7118  1.0909
 5752TIP3   OH238746   1.003   6.575  14.758 -0.1303 -0.5934  0.5838
 5752TIP3    H138747   0.949   6.636  14.807 -1.6988 -1.7436  0.3841
 5752TIP3    H238748   0.941   6.511  14.724  1.1942 -1.1077 -0.9826
 5753TIP3   OH238749   1.676   6.205   0.347 -0.2906  0.3011 -0.1181
 5753TIP3    H138750   1.679   6.297   0.321 -1.7692  0.4494  0.1392
 5753TIP3    H238751   1.704   6.205   0.439 -2.4957  0.8688  0.6317
 5754TIP3   OH238752   0.136   5.777  15.312  0.7259 -0.0926 -0.1516
 5754TIP3    H138753   0.164   5.839  15.380 -1.2463  0.6339  0.0593
 5754TIP3    H238754   0.217   5.732  15.286  1.8320  0.9218  1.3447
 5755TIP3   OH238755   3.342   6.049   5.678 -0.2338  0.3218 -0.2901
 5755TIP3    H138756   3.262   6.065   5.727 -0.5780 -0.7189 -0.4769
 5755TIP3    H238757   3.384   6.135   5.670 -0.0395  0.5025  2.0399
 5756TIP3   OH238758   1.035   5.945  14.836 -0.0587 -0.7089  0.0542
 5756TIP3    H138759   0.999   6.032  14.818  0.2835 -0.7809 -1.0028
 5756TIP3    H238760   1.107   5.935  14.774 -1.1447 -2.4171 -1.0320
 5757TIP3   OH238761   4.801   5.451  12.704  0.1963 -0.3365  1.1017
 5757TIP3    H138762   4.864   5.501  12.652 -1.1281  0.5383  0.2643
 5757TIP3    H238763   4.845   5.369  12.724  0.9577 -0.4770 -0.9789
 5758TIP3   OH238764   3.797   3.483  16.647  0.7867  0.7307  0.2626
 5758TIP3    H138765   3.708   3.466  16.676  1.4014  0.3743  2.0518
 5758TIP3    H238766   3.837   3.531  16.719  2.2440  0.3028 -0.2197
 5759TIP3   OH238767   6.832   4.417  14.262 -0.7144  0.4392 -0.2602
 5759TIP3    H138768   6.752   4.441  14.309 -0.2648 -1.0627  1.3982
 5759TIP3    H238769   6.901   4.465  14.307 -0.6008  1.2923 -1.3240
 5760TIP3   OH238770   3.732   0.142  14.180  0.2766  0.5498  0.1373
 5760TIP3    H138771   3.764   0.154  14.270 -0.2147 -2.7152  0.8849
 5760TIP3    H238772   3.802   0.178  14.125  2.3835 -0.6675  1.8201
 5761TIP3   OH238773   4.544   1.695   3.518  0.3426 -0.3896 -0.4343
 5761TIP3    H138774   4.517   1.689   3.610 -0.2187 -0.3204 -0.5887
 5761TIP3    H238775   4.544   1.605   3.488 -1.1075 -0.2974 -0.8090
 5762TIP3   OH238776   2.941   1.793   0.458  0.1627 -0.3564 -0.0573
 5762TIP3    H138777   2.906   1.727   0.518 -0.2687  0.0173  0.0982
 5762TIP3    H238778   2.896   1.874   0.481  1.1940  0.1642  0.2250
 5763TIP3   OH238779   0.076   6.328  12.362 -0.4459  0.1357 -0.3515
 5763TIP3    H138780   0.067   6.420  12.386 -0.2327 -0.0148  0.3371
 5763TIP3    H238781   0.169   6.318  12.339 -0.2181 -0.1383  0.6367
 5764TIP3   OH238782   1.837   0.643   3.831  0.0548 -0.6211  0.6364
 5764TIP3    H138783   1.905   0.675   3.772  0.8026 -0.2036  1.6953
 5764TIP3    H238784   1.797   0.723   3.867 -0.1644 -0.8778  0.9648
 5765TIP3   OH238785   4.111   2.706   0.179  0.3188  0.5251  0.5086
 5765TIP3    H138786   4.072   2.641   0.238  0.2649 -1.0504 -1.1808
 5765TIP3    H238787   4.200   2.718   0.211  0.4941 -0.7856  0.5594
 5766TIP3   OH238788   3.679   0.702  16.299 -0.0644  0.3215  0.5715
 5766TIP3    H138789   3.673   0.780  16.244  0.5056 -1.5124 -2.3618
 5766TIP3    H238790   3.590   0.688  16.332 -0.4871  1.3932 -0.0755
 5767TIP3   OH238791   1.476   3.983  10.925 -0.7351  0.0209  0.0353
 5767TIP3    H138792   1.395   4.025  10.899 -0.6644  0.6656  0.8088
 5767TIP3    H238793   1.528   3.977  10.844 -1.5577 -0.4502 -0.4687
 5768TIP3   OH238794   1.406   2.113  12.823 -0.1204  0.2692 -0.0868
 5768TIP3    H138795   1.448   2.039  12.779 -0.4062  0.2173 -0.2740
 5768TIP3    H238796   1.332   2.136  12.767 -0.7047 -0.0297  0.5410
 5769TIP3   OH238797   6.801   2.728   5.891 -0.1087 -0.2027 -0.1199
 5769TIP3    H138798   6.775   2.735   5.983 -1.2884 -0.0884 -0.4451
 5769TIP3    H238799   6.762   2.804   5.849  1.2798  0.3114 -0.5496
 5770TIP3   OH238800   2.266   2.708   6.060 -0.4318  0.1689  0.7843
 5770TIP3    H138801   2.362   2.705   6.067 -0.2463 -0.0709 -1.3131
 5770TIP3    H238802   2.236   2.637   6.117  0.6625 -0.1339  1.0104
 5771TIP3   OH238803   3.606   6.098  11.569 -0.3124  1.2398  0.4481
 5771TIP3    H138804   3.513   6.083  11.553 -0.1184  0.4062 -0.0060
 5771TIP3    H238805   3.644   6.010  11.572  0.7262  1.5805 -1.0935
 5772TIP3   OH238806   0.084   4.582   3.626 -0.0848  0.2634  0.5222
 5772TIP3    H138807   0.069   4.661   3.679 -0.5883  0.1221  0.6025
 5772TIP3    H238808   0.003   4.531   3.637  1.3824 -1.7696  3.0390
 5773TIP3   OH238809   3.898   4.499   0.321  0.2462  0.9194  0.1230
 5773TIP3    H138810   3.874   4.415   0.359  1.7496  0.8177  0.9365
 5773TIP3    H238811   3.872   4.493   0.229  0.6110 -0.5645  0.0925
 5774TIP3   OH238812   1.157   0.324  15.170  0.3609  0.4281 -0.7558
 5774TIP3    H138813   1.174   0.328  15.264  1.4447  0.0523 -0.9122
 5774TIP3    H238814   1.080   0.268  15.161  0.9417 -0.4928 -0.1508
 5775TIP3   OH238815   5.043   1.231   2.242 -0.2811  0.0268  0.1589
 5775TIP3    H138816   5.002   1.316   2.226  1.3417  0.8836  0.2877
 5775TIP3    H238817   4.974   1.178   2.281 -1.4597  1.1389 -0.3460
 5776TIP3   OH238818   4.441   4.246  15.415 -0.2300 -0.1204 -0.1812
 5776TIP3    H138819   4.464   4.310  15.482 -0.0557 -1.4284  1.0596
 5776TIP3    H238820   4.387   4.295  15.353  2.7055  2.1058 -1.2135
 5777TIP3   OH238821   3.683   0.627  14.671  0.0196 -0.2014  0.1775
 5777TIP3    H138822   3.604   0.670  14.704  0.1280 -0.6098  1.0117
 5777TIP3    H238823   3.755   0.683  14.701  0.1562 -0.8927  1.1886
 5778TIP3   OH238824   3.909   3.104   3.804 -0.3704 -0.4847 -0.5500
 5778TIP3    H138825   3.910   3.023   3.855 -3.0901 -0.1142  0.2362
 5778TIP3    H238826   3.881   3.076   3.717 -0.0576 -0.5371 -0.6362
 5779TIP3   OH238827   0.644   0.879  15.905  0.0780  0.1733  0.0882
 5779TIP3    H138828   0.582   0.905  15.974 -0.1363  1.2289 -0.4660
 5779TIP3    H238829   0.694   0.959  15.888  0.3571 -0.1695 -0.7303
 5780TIP3   OH238830   6.598   2.996  11.323  0.3043  0.1178  0.2758
 5780TIP3    H138831   6.561   2.930  11.265 -0.6009  1.3556 -0.5884
 5780TIP3    H238832   6.523   3.047  11.353  0.8421 -0.0194  1.9588
 5781TIP3   OH238833   5.213   6.605   5.218 -0.6367  0.6068  0.6298
 5781TIP3    H138834   5.279   6.602   5.149 -0.8459 -0.1741  0.4477
 5781TIP3    H238835   5.250   6.552   5.288 -2.3905 -2.7718 -0.7296
 5782TIP3   OH238836   1.547   6.823   1.025 -0.0731  0.8379 -0.8312
 5782TIP3    H138837   1.584   6.909   1.004 -0.2975  1.1514  0.0030
 5782TIP3    H238838   1.587   6.800   1.109 -1.0228  0.7363 -0.4014
 5783TIP3   OH238839   1.215   2.497  13.201 -0.2075 -0.4388  0.3611
 5783TIP3    H138840   1.212   2.466  13.111  2.8860  1.6449 -0.5958
 5783TIP3    H238841   1.196   2.590  13.196 -1.3300 -0.5131  2.1099
 5784TIP3   OH238842   4.575   0.825   2.732 -0.0699 -0.0829  0.0040
 5784TIP3    H138843   4.562   0.732   2.751 -1.2965  0.1175  0.2546
 5784TIP3    H238844   4.621   0.859   2.809 -0.3579 -0.3177  0.2816
 5785TIP3   OH238845   0.217   2.739   2.712  0.2136 -0.1135 -0.1655
 5785TIP3    H138846   0.241   2.648   2.694 -2.0275 -0.5092 -1.5322
 5785TIP3    H238847   0.143   2.733   2.772 -1.1517  0.6796 -1.6962
 5786TIP3   OH238848   1.483   5.680   3.689  0.1268  0.4021  0.2824
 5786TIP3    H138849   1.492   5.745   3.619  1.7271  1.3665  1.2940
 5786TIP3    H238850   1.401   5.703   3.732 -1.3147 -0.7250 -1.7124
 5787TIP3   OH238851   0.287   3.774   4.445  0.0594 -0.9118 -0.3350
 5787TIP3    H138852   0.329   3.801   4.363 -0.1940 -3.3202 -1.3523
 5787TIP3    H238853   0.229   3.847   4.468  2.4729  1.1775 -0.5239
 5788TIP3   OH238854   2.416   6.529  15.717 -0.0310  0.3434  0.2593
 5788TIP3    H138855   2.390   6.450  15.669 -0.0281  0.0812  0.6816
 5788TIP3    H238856   2.344   6.545  15.777 -0.2374  0.9296 -0.1402
 5789TIP3   OH238857   0.814   5.423   4.339 -0.3113 -0.4189  0.0149
 5789TIP3    H138858   0.742   5.384   4.289 -0.3731 -1.6315  1.0137
 5789TIP3    H238859   0.828   5.363   4.412 -0.1567  1.2486  1.4155
 5790TIP3   OH238860   1.427   2.531   2.158 -0.0882 -0.6383 -0.0751
 5790TIP3    H138861   1.362   2.510   2.091  0.9769 -2.6667 -0.5381
 5790TIP3    H238862   1.510   2.505   2.120  0.7216 -0.3524  1.4348
 5791TIP3   OH238863   3.335   5.295  11.217  0.1117 -0.0362  0.4722
 5791TIP3    H138864   3.313   5.205  11.244 -0.4300 -0.2304 -0.5486
 5791TIP3    H238865   3.311   5.349  11.292 -2.8442 -0.3800 -0.0890
 5792TIP3   OH238866   0.070   0.153   1.510  0.3548  0.3856 -0.1196
 5792TIP3    H138867   0.089   0.083   1.572 -0.3270  1.3660  1.2279
 5792TIP3    H238868   0.153   0.167   1.464  0.9921 -0.0485  0.8740
 5793TIP3   OH238869   1.024   3.296   5.388 -0.2043  0.1681  0.2967
 5793TIP3    H138870   1.100   3.332   5.434 -1.2815  1.6413  0.9948
 5793TIP3    H238871   0.983   3.371   5.346 -2.8869  0.0138  2.3334
 5794TIP3   OH238872   1.722   0.932   1.799  0.6596  0.2505  1.0761
 5794TIP3    H138873   1.670   0.982   1.736 -0.1087 -1.1213  0.5789
 5794TIP3    H238874   1.800   0.985   1.813 -0.0924  1.5538  0.5309
 5795TIP3   OH238875   1.187   5.156  11.428 -0.1333  0.7176  0.0573
 5795TIP3    H138876   1.093   5.139  11.424  0.0272  0.0079 -1.8737
 5795TIP3    H238877   1.201   5.197  11.513 -2.4530  2.4337 -0.3057
 5796TIP3   OH238878   4.175   0.213  10.433  1.2803  0.0598  0.6562
 5796TIP3    H138879   4.122   0.226  10.355  0.6224 -0.5305  0.9912
 5796TIP3    H238880   4.250   0.271  10.421  0.9745  0.2936 -0.2088
 5797TIP3   OH238881   2.510   2.537   3.143  0.1404 -0.1037 -0.4370
 5797TIP3    H138882   2.542   2.458   3.187 -0.9029  0.2330  0.9654
 5797TIP3    H238883   2.450   2.577   3.205  0.1097  1.4384 -1.4114
 5798TIP3   OH238884   3.368   2.000  12.603 -0.4392  0.4751  0.1259
 5798TIP3    H138885   3.356   2.062  12.532  0.5988  0.0073 -0.4843
 5798TIP3    H238886   3.316   1.924  12.578  1.6938 -0.5878 -1.2991
 5799TIP3   OH238887   2.063   1.197  16.914  0.3003 -0.0431 -0.2616
 5799TIP3    H138888   2.071   1.277  16.965 -0.7796  0.6626 -1.1393
 5799TIP3    H238889   2.152   1.175  16.888  0.5377  1.3509 -0.7023
 5800TIP3   OH238890   3.952   4.814   4.672 -0.2084 -0.3526 -0.3348
 5800TIP3    H138891   4.035   4.842   4.633  0.1775 -0.2857  0.5078
 5800TIP3    H238892   3.916   4.894   4.710 -0.2131 -0.5573  0.0929
 5801TIP3   OH238893   1.243   5.138   0.577 -0.0188  0.4209 -0.7978
 5801TIP3    H138894   1.159   5.108   0.543 -0.3984  0.6149 -0.0351
 5801TIP3    H238895   1.255   5.091   0.659 -0.2292  1.7144 -0.0022
 5802TIP3   OH238896   4.323   0.642   0.685 -0.2581 -0.5446 -0.4328
 5802TIP3    H138897   4.312   0.553   0.653  1.2469 -1.0763  0.4057
 5802TIP3    H238898   4.235   0.670   0.710 -0.7132 -1.9152 -0.4196
 5803TIP3   OH238899   1.719   1.543   3.762 -0.9273 -0.2006  0.6666
 5803TIP3    H138900   1.743   1.452   3.775  0.6193  0.0151 -0.3756
 5803TIP3    H238901   1.677   1.545   3.676 -0.0137  0.2067  0.2150
 5804TIP3   OH238902   5.467   3.640   4.548  0.0404  0.5060  0.0055
 5804TIP3    H138903   5.490   3.626   4.640 -1.9290 -1.0775  0.3492
 5804TIP3    H238904   5.551   3.656   4.505  1.0193  1.4167  2.0615
 5805TIP3   OH238905   2.834   6.516   3.347  0.7077 -0.4088 -0.1061
 5805TIP3    H138906   2.902   6.578   3.319  2.6926 -2.4409 -0.0674
 5805TIP3    H238907   2.841   6.443   3.286  1.8614 -2.7883  2.6516
 5806TIP3   OH238908   3.534   0.245  16.209 -0.2693  0.1821  0.0570
 5806TIP3    H138909   3.573   0.324  16.173 -2.1041  0.8924 -0.4576
 5806TIP3    H238910   3.468   0.276  16.270 -2.2382 -0.8589 -1.4207
 5807TIP3   OH238911   5.551   2.125  13.673  0.3749  0.8531  0.6666
 5807TIP3    H138912   5.472   2.157  13.630 -0.2203 -1.3794 -0.0515
 5807TIP3    H238913   5.583   2.056  13.615  2.4801  1.2289  1.3068
 5808TIP3   OH238914   4.489   0.022  12.645  0.0549  0.6140  0.1877
 5808TIP3    H138915   4.512  -0.034  12.719  0.3437  1.9154  1.1138
 5808TIP3    H238916   4.427   0.085  12.681 -1.6135 -0.1409 -1.2541
 5809TIP3   OH238917   0.954   0.745   3.813 -0.0152 -0.4192  0.6658
 5809TIP3    H138918   0.960   0.730   3.907  0.2691  1.2191  0.9235
 5809TIP3    H238919   1.033   0.794   3.791 -0.2961 -0.3972 -0.3593
 5810TIP3   OH238920   3.390   5.477  16.933  0.1398 -0.2622 -0.0008
 5810TIP3    H138921   3.416   5.393  16.970 -1.8155 -0.6461  0.5590
 5810TIP3    H238922   3.308   5.499  16.977  0.9581  2.3094  0.4165
 5811TIP3   OH238923   4.169   5.166  13.063 -0.4528  0.2228  0.2495
 5811TIP3    H138924   4.173   5.081  13.107 -1.9190 -0.0788 -0.1366
 5811TIP3    H238925   4.202   5.228  13.128  0.6856 -0.6356  0.5155
 5812TIP3   OH238926   6.291   5.597   1.448  0.4715 -0.3642 -0.0556
 5812TIP3    H138927   6.355   5.616   1.380 -0.0745 -1.9382 -1.0737
 5812TIP3    H238928   6.206   5.605   1.404 -0.2064  2.9858  1.5806
 5813TIP3   OH238929   4.216   5.948   2.625 -0.5805  0.6504 -0.5531
 5813TIP3    H138930   4.186   6.038   2.630  0.2435  0.8773  0.6723
 5813TIP3    H238931   4.193   5.910   2.709  0.2783  0.1121 -0.5417
 5814TIP3   OH238932   0.105   6.021  14.253  0.3191  0.3983  0.3660
 5814TIP3    H138933   0.189   6.064  14.268  0.5124 -0.2662  1.2712
 5814TIP3    H238934   0.039   6.088  14.270  0.6605  1.1737 -1.1838
 5815TIP3   OH238935   5.047   4.357   0.309 -0.0848  0.5577 -0.5133
 5815TIP3    H138936   4.987   4.400   0.370  1.2088  1.2238  0.3339
 5815TIP3    H238937   5.133   4.391   0.332  0.5965 -0.1366 -1.9032
 5816TIP3   OH238938   1.150   0.421  13.632  0.0732  0.3268 -0.4829
 5816TIP3    H138939   1.138   0.410  13.727 -0.7739  1.0432 -0.4954
 5816TIP3    H238940   1.230   0.373  13.613  1.6365  2.1696  1.0178
 5817TIP3   OH238941   6.602   6.477  15.104 -0.3106  0.0366 -0.3219
 5817TIP3    H138942   6.679   6.439  15.063 -0.1289 -1.2487  1.1110
 5817TIP3    H238943   6.629   6.565  15.130 -0.0208  0.3813 -1.6917
 5818TIP3   OH238944   2.964   3.181  12.424 -0.0308  0.1680  0.2714
 5818TIP3    H138945   2.917   3.218  12.499  0.4811  1.2465  0.0648
 5818TIP3    H238946   2.895   3.164  12.359 -0.7775 -2.5177  1.5919
 5819TIP3   OH238947   5.823   5.976   3.329 -0.3425 -0.5749  0.1674
 5819TIP3    H138948   5.866   5.895   3.358  0.0379 -0.4613 -0.0752
 5819TIP3    H238949   5.894   6.038   3.316 -0.5501 -0.4716 -0.5131
 5820TIP3   OH238950   0.844   3.578  16.906  0.3956 -0.6937 -0.0705
 5820TIP3    H138951   0.835   3.588  16.811 -1.4461  1.5340  0.2445
 5820TIP3    H238952   0.873   3.664  16.936  1.7233 -1.5972  1.3618
 5821TIP3   OH238953   1.876   3.510   0.802 -0.9354 -0.6052  0.7180
 5821TIP3    H138954   1.875   3.424   0.759  0.4698  0.0046 -0.6295
 5821TIP3    H238955   1.964   3.515   0.841 -0.1828  1.0123 -1.0205
 5822TIP3   OH238956   0.749   3.176   1.442  0.3499  0.5163  0.7179
 5822TIP3    H138957   0.678   3.114   1.458  1.2999 -1.0946 -0.9423
 5822TIP3    H238958   0.707   3.250   1.398 -0.3897 -0.2253  0.1425
 5823TIP3   OH238959   4.666   1.774   0.042 -0.2316  0.3187 -0.2883
 5823TIP3    H138960   4.592   1.736  -0.004  0.2612 -0.0871 -0.7520
 5823TIP3    H238961   4.718   1.816  -0.026 -0.7872  1.8845  0.2152
 5824TIP3   OH238962   1.685   3.648   5.275  0.4491  0.1177 -0.1169
 5824TIP3    H138963   1.661   3.739   5.258 -0.4993 -0.3771 -1.6150
 5824TIP3    H238964   1.696   3.644   5.370 -1.4344  1.3601  0.2262
 5825TIP3   OH238965   3.437   3.496   4.672  0.2881 -0.4468 -0.5507
 5825TIP3    H138966   3.447   3.591   4.676  0.6967 -0.4763 -0.8163
 5825TIP3    H238967   3.343   3.481   4.682  0.3928 -0.1047  1.1215
 5826TIP3   OH238968   1.982   5.775  17.074  0.5294  0.1559 -0.2483
 5826TIP3    H138969   1.906   5.833  17.079  0.1472 -0.1657 -1.7550
 5826TIP3    H238970   1.950   5.690  17.104  0.2976  0.0274 -0.8543
 5827TIP3   OH238971   0.014   2.377  16.748  0.6449 -0.0734  0.4383
 5827TIP3    H138972   0.094   2.429  16.736  0.5208  0.2986  1.1234
 5827TIP3    H238973   0.039   2.310  16.811  0.9725 -1.2511 -0.9073
 5828TIP3   OH238974   0.170   4.494   1.285 -0.0722 -0.0079 -0.2051
 5828TIP3    H138975   0.082   4.525   1.306  0.1298  0.8467 -0.5798
 5828TIP3    H238976   0.223   4.574   1.280  1.5844 -0.6329  3.7114
 5829TIP3   OH238977   5.591   1.207   2.711  0.7455  0.0486 -0.2591
 5829TIP3    H138978   5.614   1.273   2.646 -0.0206 -0.6062 -1.2116
 5829TIP3    H238979   5.632   1.126   2.679 -1.0585 -0.6724 -0.8902
 5830TIP3   OH238980   4.862   3.210   3.064 -0.8047  0.3263 -0.5013
 5830TIP3    H138981   4.862   3.118   3.089 -1.6931  0.4450 -0.0169
 5830TIP3    H238982   4.772   3.239   3.079 -0.0347  1.8729  1.6325
 5831TIP3   OH238983   2.343   0.192   3.774  0.2615  0.3045  0.0905
 5831TIP3    H138984   2.326   0.105   3.737  0.4035  0.0947  0.5181
 5831TIP3    H238985   2.265   0.243   3.753  0.5935  0.3701 -1.0464
 5832TIP3   OH238986   1.724   4.700   2.542 -0.0832  0.4160  0.3358
 5832TIP3    H138987   1.687   4.642   2.475  0.7155 -0.4466  0.6086
 5832TIP3    H238988   1.809   4.661   2.563 -0.1035  0.9429  1.5022
 5833TIP3   OH238989   6.105   5.023   5.441  0.1823  0.0861  0.0078
 5833TIP3    H138990   6.065   4.937   5.435  1.6476 -0.5860 -0.7021
 5833TIP3    H238991   6.199   5.007   5.433  0.4351  1.8467 -1.3890
 5834TIP3   OH238992   6.364   0.505  11.498  0.0676 -0.0463  0.2060
 5834TIP3    H138993   6.452   0.526  11.529 -0.6182  0.8706  1.6054
 5834TIP3    H238994   6.364   0.410  11.490  1.3005 -0.0305 -0.1913
 5835TIP3   OH238995   4.163   5.635  12.432  0.3783 -0.9471  0.6480
 5835TIP3    H138996   4.096   5.630  12.501 -0.0819  1.8191  0.5311
 5835TIP3    H238997   4.240   5.670  12.477 -0.0614  1.3057 -0.2416
 5836TIP3   OH238998   4.176   0.082   4.514  0.5236  0.3339  1.2955
 5836TIP3    H138999   4.164   0.009   4.454  2.5619  0.5539  0.5462
 5836TIP3    H239000   4.155   0.046   4.600 -0.8803 -0.4230  0.6716
 5837TIP3   OH239001   6.573   1.017   4.697 -0.3516  0.2275 -0.3436
 5837TIP3    H139002   6.480   1.032   4.684 -0.2864 -0.2593 -1.5074
 5837TIP3    H239003   6.614   1.103   4.689 -0.6824  0.4112 -0.0374
 5838TIP3   OH239004   2.078   3.351   4.890 -1.0667  0.1805  0.0816
 5838TIP3    H139005   2.115   3.291   4.956  0.1531  0.7584 -0.0393
 5838TIP3    H239006   2.015   3.297   4.842  1.9854 -2.0145 -1.9249
 5839TIP3   OH239007   6.199   3.410  11.016 -0.7499 -0.0389 -0.0056
 5839TIP3    H139008   6.139   3.403  11.090 -0.3320 -2.5112  0.1740
 5839TIP3    H239009   6.281   3.442  11.055 -1.2260  1.0738  0.1347
 5840TIP3   OH239010   3.357   1.951  13.599  0.2396  0.4421 -0.7724
 5840TIP3    H139011   3.322   1.951  13.688 -1.6834  1.6942 -1.4661
 5840TIP3    H239012   3.424   2.019  13.600 -0.2007  0.8827 -0.4112
 5841TIP3   OH239013   2.410   3.274  14.519  0.3483 -0.1663  0.0417
 5841TIP3    H139014   2.371   3.259  14.433  0.5415 -0.6479  0.0313
 5841TIP3    H239015   2.385   3.363  14.542  0.5943  0.0940 -0.6677
 5842TIP3   OH239016   0.453   0.330   5.571 -0.0127 -0.1753 -0.2253
 5842TIP3    H139017   0.394   0.306   5.500 -0.7611 -0.0467  0.3443
 5842TIP3    H239018   0.473   0.423   5.555  1.8343 -0.7447 -1.6728
 5843TIP3   OH239019   1.199   2.646  12.400  0.2938  0.2448  0.2829
 5843TIP3    H139020   1.216   2.565  12.352  1.4216  0.2161  0.7257
 5843TIP3    H239021   1.106   2.663  12.384  0.3321 -0.4710 -0.8277
 5844TIP3   OH239022   2.775   6.157  15.943 -0.6238 -0.3207 -0.0393
 5844TIP3    H139023   2.811   6.233  15.988  0.2498 -1.0728  0.5723
 5844TIP3    H239024   2.694   6.188  15.903  0.2267  1.1885 -0.6520
 5845TIP3   OH239025   3.554   3.928   6.092 -0.6197  0.2692  0.1886
 5845TIP3    H139026   3.613   3.858   6.064 -0.4151  0.5076  0.0211
 5845TIP3    H239027   3.476   3.882   6.125 -1.7311  0.0063 -2.5913
 5846TIP3   OH239028   1.764   5.325   6.607 -0.0503 -0.0088  0.0198
 5846TIP3    H139029   1.759   5.269   6.529 -0.7082 -1.7158  1.2049
 5846TIP3    H239030   1.675   5.358   6.619  0.2066  0.8262 -0.3372
 5847TIP3   OH239031   2.339   3.261   0.836  0.1050  0.3652  0.3333
 5847TIP3    H139032   2.390   3.190   0.876  1.0107  0.6163 -0.3509
 5847TIP3    H239033   2.287   3.218   0.769 -0.7048  0.0870  1.1232
 5848TIP3   OH239034   5.108   5.737  16.400 -0.1601  0.0224  0.1974
 5848TIP3    H139035   5.181   5.732  16.461  0.1297  0.2256 -0.1261
 5848TIP3    H239036   5.042   5.677  16.435 -0.3601  0.8121  1.1803
 5849TIP3   OH239037   3.517   3.679  11.419 -0.0644 -0.6306 -0.4360
 5849TIP3    H139038   3.549   3.590  11.406 -0.5982 -0.8683 -0.1721
 5849TIP3    H239039   3.444   3.669  11.481 -1.8063 -0.3274 -2.3286
 5850TIP3   OH239040   5.584   4.661  10.788  0.2744 -0.0137 -0.2059
 5850TIP3    H139041   5.564   4.735  10.729 -2.7014  0.7968  1.6170
 5850TIP3    H239042   5.679   4.659  10.792  0.5347  1.5990 -2.8848
 5851TIP3   OH239043   3.823   6.738   4.044 -0.0889  0.4527  0.2280
 5851TIP3    H139044   3.739   6.783   4.052  0.0714  0.7634  0.1751
 5851TIP3    H239045   3.820   6.696   3.958 -0.0106  0.8356  0.0384
 5852TIP3   OH239046   3.993   3.538  16.841 -0.3610 -0.6553  0.2229
 5852TIP3    H139047   4.049   3.585  16.903 -0.5349 -0.1833  0.0334
 5852TIP3    H239048   3.949   3.472  16.893 -0.5111 -0.2555  0.6027
 5853TIP3   OH239049   2.485   2.553  16.812  0.1920  0.5471 -0.0694
 5853TIP3    H139050   2.449   2.505  16.887  0.1306  0.6333 -0.0442
 5853TIP3    H239051   2.461   2.500  16.736 -0.1221  0.6840 -0.0665
 5854TIP3   OH239052   4.862   3.408   4.006 -0.0105 -0.2715  0.2060
 5854TIP3    H139053   4.954   3.392   4.028  0.1558 -0.6565 -0.7128
 5854TIP3    H239054   4.862   3.495   3.967 -0.1440 -0.0115  0.7733
 5855TIP3   OH239055   4.885   0.788  14.608  0.5885  0.2072 -0.0823
 5855TIP3    H139056   4.968   0.821  14.573  0.3359  1.0224  0.0511
 5855TIP3    H239057   4.853   0.859  14.663  0.2988 -0.5105  0.6894
 5856TIP3   OH239058   0.298   6.731  14.779 -0.1863  0.0242  0.5985
 5856TIP3    H139059   0.269   6.707  14.867 -2.3028  1.5384  0.3936
 5856TIP3    H239060   0.384   6.772  14.792 -1.2527  1.8909  2.2649
 5857TIP3   OH239061   3.373   1.756   2.977 -0.6961 -0.7141 -0.8932
 5857TIP3    H139062   3.344   1.673   3.016  1.3449 -1.3848 -0.7067
 5857TIP3    H239063   3.465   1.764   3.002 -0.4730  0.9370 -2.0773
 5858TIP3   OH239064   4.172   6.424   0.339  0.3164  0.3953 -0.3503
 5858TIP3    H139065   4.186   6.503   0.287  0.8402 -0.4554 -1.5411
 5858TIP3    H239066   4.230   6.435   0.415 -0.2819  1.5421 -0.0235
 5859TIP3   OH239067   6.549   4.352  16.596 -0.1757 -0.2057 -0.5166
 5859TIP3    H139068   6.530   4.273  16.648  1.2081 -0.9205 -1.0457
 5859TIP3    H239069   6.622   4.393  16.642 -1.0741  0.9513 -0.0846
 5860TIP3   OH239070   5.263   1.591  15.557  0.6071 -0.0330  0.0338
 5860TIP3    H139071   5.326   1.648  15.512 -0.4726  0.7290 -0.5468
 5860TIP3    H239072   5.297   1.582  15.646  3.8732 -3.0931 -1.2525
 5861TIP3   OH239073   5.724   4.196  11.948  0.1575  0.3004  0.6244
 5861TIP3    H139074   5.683   4.247  11.879 -1.1072 -0.4057  0.8282
 5861TIP3    H239075   5.818   4.198  11.927 -0.3508 -1.6331 -2.3322
 5862TIP3   OH239076   1.971   4.442   6.400  0.4657  0.0328  0.8176
 5862TIP3    H139077   2.060   4.460   6.431  0.1404  1.4951  0.9801
 5862TIP3    H239078   1.957   4.505   6.329 -0.6662  0.2590  1.2195
 5863TIP3   OH239079   3.602   5.422  16.657 -0.3860 -0.5102 -0.7423
 5863TIP3    H139080   3.633   5.365  16.586 -0.0853  0.2427 -1.2343
 5863TIP3    H239081   3.641   5.384  16.736 -0.6934 -1.3405 -0.9762
 5864TIP3   OH239082   1.013   5.477   4.777  0.3863 -0.6205 -0.1225
 5864TIP3    H139083   1.032   5.555   4.725 -0.4064 -0.4777 -0.2097
 5864TIP3    H239084   0.918   5.469   4.775  0.3738 -0.8823  0.9109
 5865TIP3   OH239085   4.569   0.986  12.045 -0.2322 -0.2274  0.1436
 5865TIP3    H139086   4.619   0.958  12.122  0.0678  0.2381  0.1263
 5865TIP3    H239087   4.479   0.992  12.075 -0.3024 -1.1932  0.1465
 5866TIP3   OH239088   3.149   5.008   2.199 -0.0243 -0.3089  0.8145
 5866TIP3    H139089   3.196   4.944   2.145  1.2111  0.7646  0.5582
 5866TIP3    H239090   3.183   5.093   2.169 -1.1400  0.4283  1.5949
 5867TIP3   OH239091   4.574   3.785  15.649 -0.1673  0.0783 -0.4789
 5867TIP3    H139092   4.599   3.877  15.659 -0.4012  0.0762  0.1436
 5867TIP3    H239093   4.481   3.783  15.672 -0.3195 -0.2164 -1.0774
 5868TIP3   OH239094   0.529   5.099  12.433 -0.1247  0.3411 -0.2597
 5868TIP3    H139095   0.564   5.023  12.478 -1.7415  0.7604  1.8652
 5868TIP3    H239096   0.467   5.063  12.370  0.1973 -0.1555 -0.2973
 5869TIP3   OH239097   3.722   4.022  12.817  0.3748 -0.0991  0.8054
 5869TIP3    H139098   3.814   4.023  12.845  0.1415 -0.9997  1.6599
 5869TIP3    H239099   3.683   4.098  12.860  0.0444 -1.4108  2.9440
 5870TIP3   OH239100   0.044   1.452   6.088  0.2733 -0.0130  0.6628
 5870TIP3    H139101   0.075   1.412   6.169  0.4760 -0.0826  0.5533
 5870TIP3    H239102   0.079   1.395   6.019  0.8152  0.5149  0.4927
 5871TIP3   OH239103   6.427   5.486   5.199  0.1254 -0.1886  0.1539
 5871TIP3    H139104   6.458   5.566   5.242  1.0968 -0.2150 -0.4531
 5871TIP3    H239105   6.444   5.501   5.106  0.3536 -1.1031  0.0346
 5872TIP3   OH239106   1.492   0.729   3.691  0.0719 -0.0419  0.2517
 5872TIP3    H139107   1.520   0.660   3.630 -1.0357 -1.3455  1.1599
 5872TIP3    H239108   1.411   0.763   3.653 -0.1656 -0.2632  0.5601
 5873TIP3   OH239109   5.686   2.939   1.523 -0.1050 -0.2746 -0.4633
 5873TIP3    H139110   5.615   2.982   1.476 -0.0235  0.5621  0.1536
 5873TIP3    H239111   5.729   2.884   1.457 -0.1835  0.6345 -1.3005
 5874TIP3   OH239112   1.253   2.993  15.999  0.1797 -0.1324 -0.4790
 5874TIP3    H139113   1.293   2.936  15.933 -0.5813 -0.3581 -0.7516
 5874TIP3    H239114   1.253   2.941  16.079  0.3482 -0.1668 -0.5012
 5875TIP3   OH239115   3.085   1.278   5.794 -0.4098 -0.2571 -0.1826
 5875TIP3    H139116   3.038   1.329   5.728 -1.2383  0.2013  0.7463
 5875TIP3    H239117   3.112   1.343   5.859  1.6238 -0.4891 -0.7301
 5876TIP3   OH239118   2.978   5.684  15.490 -0.4339  0.8098 -0.7888
 5876TIP3    H139119   2.983   5.775  15.461 -1.3560  1.5234  1.1848
 5876TIP3    H239120   3.062   5.668  15.533 -0.7410  1.1269 -0.0621
 5877TIP3   OH239121   3.973   0.529   6.087  0.4924 -0.0373  0.6055
 5877TIP3    H139122   3.906   0.563   6.146 -0.0849  0.3519 -0.2420
 5877TIP3    H239123   4.054   0.571   6.116  0.7644 -1.8920  2.7851
 5878TIP3   OH239124   5.082   2.264  14.793  0.1488 -0.1879  0.3495
 5878TIP3    H139125   5.010   2.203  14.807  0.5253 -0.6971  0.0958
 5878TIP3    H239126   5.146   2.214  14.743 -1.7932  1.8823 -4.9899
 5879TIP3   OH239127   0.416   6.397   4.320  0.0665  0.0769  0.5919
 5879TIP3    H139128   0.406   6.346   4.400  1.3723  0.9223  1.3405
 5879TIP3    H239129   0.499   6.366   4.282 -0.3558 -0.0586 -0.2423
 5880TIP3   OH239130   0.175   4.794  15.264  0.1008 -0.1029  0.5838
 5880TIP3    H139131   0.118   4.828  15.332 -0.1526 -0.4756  0.5574
 5880TIP3    H239132   0.239   4.864  15.249 -1.2378  0.9512 -0.4548
 5881TIP3   OH239133   0.126   5.852   1.159  1.0272  1.1416  0.1943
 5881TIP3    H139134   0.160   5.765   1.137  0.6820  0.8072  0.9548
 5881TIP3    H239135   0.041   5.856   1.117  0.1937  0.3498  1.7258
 5882TIP3   OH239136   0.477   5.730   5.991 -0.2671 -0.5702 -0.1040
 5882TIP3    H139137   0.515   5.794   6.052  1.3876 -2.6428  1.1867
 5882TIP3    H239138   0.414   5.681   6.044 -0.4629 -0.9631 -0.6910
 5883TIP3   OH239139   5.835   5.723  11.035 -0.6251 -0.1821 -0.0546
 5883TIP3    H139140   5.821   5.743  10.943 -2.0348  0.5080  0.2889
 5883TIP3    H239141   5.864   5.805  11.074  1.1089 -0.7476 -0.0740
 5884TIP3   OH239142   4.685   2.438  13.471  0.0660  0.1584 -0.3752
 5884TIP3    H139143   4.595   2.411  13.487 -0.0837  0.3698 -0.8625
 5884TIP3    H239144   4.682   2.490  13.390  0.6832 -0.2001 -0.6419
 5885TIP3   OH239145   1.643   1.042  11.434 -0.0635  0.1417  0.2971
 5885TIP3    H139146   1.632   0.998  11.519  1.6756 -2.6643 -0.7798
 5885TIP3    H239147   1.735   1.066  11.431  0.4061 -1.5862 -1.4764
 5886TIP3   OH239148   1.308   5.889   1.779 -0.8552  0.2492  0.3797
 5886TIP3    H139149   1.282   5.941   1.854  0.3243 -1.5196  2.1018
 5886TIP3    H239150   1.404   5.885   1.784 -0.8122 -0.7072 -0.6650
 5887TIP3   OH239151   6.708   1.810  13.468 -0.0165  0.4323  0.0980
 5887TIP3    H139152   6.667   1.893  13.493  1.1565  0.7210  1.1707
 5887TIP3    H239153   6.720   1.763  13.550 -1.8367 -1.4186 -0.6194
 5888TIP3   OH239154   2.305   6.394   3.466 -0.6146 -0.3492 -0.0129
 5888TIP3    H139155   2.226   6.402   3.413  0.2404  1.6821 -1.1057
 5888TIP3    H239156   2.377   6.406   3.404  0.4363  1.8681  1.5021
 5889TIP3   OH239157   3.059   5.171  13.910  0.4064 -0.0760 -0.0374
 5889TIP3    H139158   3.016   5.223  13.978 -1.1888 -1.2495 -0.1078
 5889TIP3    H239159   3.054   5.081  13.941  0.6135 -0.5118 -1.2133
 5890TIP3   OH239160   2.277   0.848   4.287 -0.1890  0.3988  0.0502
 5890TIP3    H139161   2.253   0.939   4.303  1.3927  1.1894 -1.6964
 5890TIP3    H239162   2.216   0.819   4.219 -1.9382 -0.5360  1.8945
 5891TIP3   OH239163   3.242   2.288   4.449  0.1360  0.2145  0.2338
 5891TIP3    H139164   3.334   2.301   4.473 -0.4143 -0.8627  3.2363
 5891TIP3    H239165   3.203   2.375   4.459  0.5349  0.3847  0.3509
 5892TIP3   OH239166   6.294   6.085  11.528  0.0802  0.1867  0.1184
 5892TIP3    H139167   6.311   6.119  11.441  1.3837 -1.2820 -0.2584
 5892TIP3    H239168   6.378   6.050  11.557 -0.5055 -0.0526  1.6520
 5893TIP3   OH239169   1.586   3.566  11.695 -0.3513 -0.4470 -0.1610
 5893TIP3    H139170   1.547   3.615  11.768 -2.3346  1.3059 -2.2260
 5893TIP3    H239171   1.511   3.532  11.647  0.5117  2.1306 -3.7205
 5894TIP3   OH239172   0.463   5.479  10.903  0.2870  0.3800 -0.9531
 5894TIP3    H139173   0.466   5.408  10.967 -0.1317  0.7299 -0.5410
 5894TIP3    H239174   0.386   5.460  10.850 -0.3522  0.9931 -0.2781
 5895TIP3   OH239175   5.640   4.296  13.295 -0.7235  0.0999  0.0305
 5895TIP3    H139176   5.705   4.359  13.326 -0.5332 -0.5087  0.8979
 5895TIP3    H239177   5.626   4.320  13.203  3.1255 -1.6576 -1.2605
 5896TIP3   OH239178   3.557   2.768  15.962  0.4676  0.2903 -0.1356
 5896TIP3    H139179   3.583   2.854  15.995  0.7531  0.8700 -1.8038
 5896TIP3    H239180   3.566   2.774  15.867 -2.1935 -0.6908 -0.5360
 5897TIP3   OH239181   0.461   3.533  11.519  0.4414 -0.2307 -0.2083
 5897TIP3    H139182   0.492   3.451  11.558 -0.6426 -0.5639  0.0071
 5897TIP3    H239183   0.396   3.505  11.454 -0.6104  0.4778  0.5044
 5898TIP3   OH239184   1.212   2.344   5.168  0.2205 -0.6275 -0.5677
 5898TIP3    H139185   1.257   2.428   5.176 -1.0630  0.1338 -1.1152
 5898TIP3    H239186   1.134   2.354   5.222  0.2886 -1.6630 -0.2485
 5899TIP3   OH239187   0.386   3.883   1.347 -0.2559 -0.5349 -0.0199
 5899TIP3    H139188   0.331   3.942   1.399 -0.3882 -0.5526 -0.1420
 5899TIP3    H239189   0.465   3.935   1.328 -0.1778 -0.5495  0.2538
 5900TIP3   OH239190   6.376   0.376  15.251  0.2652  0.1452  0.2700
 5900TIP3    H139191   6.281   0.366  15.245 -0.0691  2.6630  0.2166
 5900TIP3    H239192   6.408   0.354  15.163 -0.3520  0.0943  0.0531
 5901TIP3   OH239193   1.429   6.077  11.379  0.1057  0.2925 -0.7887
 5901TIP3    H139194   1.456   6.149  11.437  1.8023 -0.2756 -0.8194
 5901TIP3    H239195   1.508   6.054  11.331  0.0881 -2.6940  0.4081
 5902TIP3   OH239196   1.031   4.066  14.338 -0.7230 -0.0205 -0.3775
 5902TIP3    H139197   0.970   4.003  14.298  1.5675 -1.5328 -1.7404
 5902TIP3    H239198   1.077   4.015  14.405  0.7718  0.2971 -1.1120
 5903TIP3   OH239199   1.122   0.704   1.289  0.6551  0.3519 -0.4796
 5903TIP3    H139200   1.148   0.765   1.357  2.3683 -0.4301 -0.3968
 5903TIP3    H239201   1.078   0.632   1.336  0.9498  0.2861 -0.3047
 5904TIP3   OH239202   3.702   6.741   0.150 -0.0973  0.0108  0.1830
 5904TIP3    H139203   3.768   6.802   0.182 -0.6742 -0.9292  3.5318
 5904TIP3    H239204   3.739   6.706   0.069  2.5182  1.0365  0.8333
 5905TIP3   OH239205   2.393   6.463  16.133 -0.5122  0.1277 -0.0890
 5905TIP3    H139206   2.408   6.552  16.166  1.3332 -0.5961  1.1502
 5905TIP3    H239207   2.465   6.412  16.169 -1.0829 -1.7189 -1.4631
 5906TIP3   OH239208   0.200   5.149   4.396  0.7118  0.5486 -0.6064
 5906TIP3    H139209   0.292   5.166   4.372  0.0888  0.8637 -3.0385
 5906TIP3    H239210   0.153   5.228   4.369 -0.3600  0.1691  0.0966
 5907TIP3   OH239211   5.377   4.894  14.823 -0.3699 -0.2425 -0.1172
 5907TIP3    H139212   5.414   4.858  14.904 -1.2272 -1.0875 -0.0821
 5907TIP3    H239213   5.297   4.842  14.808  0.0216 -0.4262 -1.7576
 5908TIP3   OH239214   3.167   4.564   4.618 -0.5493  0.2370 -0.2709
 5908TIP3    H139215   3.099   4.564   4.551  1.5783  0.4200 -2.5589
 5908TIP3    H239216   3.140   4.634   4.678 -2.3201  0.3506 -1.1157
 5909TIP3   OH239217   1.318   5.397  15.831  0.3469  0.1419  0.4240
 5909TIP3    H139218   1.391   5.417  15.773  0.8423  0.4598  1.1365
 5909TIP3    H239219   1.359   5.389  15.918 -0.6784  1.9835  1.1255
 5910TIP3   OH239220   2.042   3.681   3.966  0.4522 -0.2167 -0.1403
 5910TIP3    H139221   2.009   3.661   4.054  1.5034 -0.5310  0.1958
 5910TIP3    H239222   1.971   3.654   3.908 -0.0700 -0.4489  0.5830
 5911TIP3   OH239223   4.789   2.214  11.619 -0.1268 -0.3507  0.2731
 5911TIP3    H139224   4.771   2.244  11.708 -2.0670 -2.0129  0.5211
 5911TIP3    H239225   4.854   2.145  11.629  0.8440  0.5314  0.1988
 5912TIP3   OH239226   1.959   2.776   6.154  0.4539  0.6003  0.1520
 5912TIP3    H139227   1.953   2.824   6.237 -0.1116  1.0195 -0.1194
 5912TIP3    H239228   1.926   2.838   6.089 -2.9260 -0.9740  0.1241
 5913TIP3   OH239229   2.958   5.182   5.482 -0.6272 -0.5564 -0.3577
 5913TIP3    H139230   2.985   5.213   5.396 -2.2377 -1.8170 -1.3969
 5913TIP3    H239231   3.006   5.100   5.495  1.8564  1.0372  1.3403
 5914TIP3   OH239232   4.782   6.066  14.597 -0.2567  0.2442  0.3813
 5914TIP3    H139233   4.723   6.088  14.525 -0.8737 -0.6886  0.5958
 5914TIP3    H239234   4.822   5.983  14.572 -0.7959 -0.3061  1.3081
 5915TIP3   OH239235   5.107   4.305   5.963 -0.1269 -0.5190 -0.0386
 5915TIP3    H139236   5.145   4.362   6.030 -0.8678 -0.1906  0.1090
 5915TIP3    H239237   5.181   4.251   5.933  0.3455 -0.2314  0.5832
 5916TIP3   OH239238   2.285   5.203  16.775 -0.6026  0.2729  0.1216
 5916TIP3    H139239   2.238   5.242  16.701 -0.1949  0.8836  0.1772
 5916TIP3    H239240   2.229   5.219  16.851 -0.4916  0.6461  0.1245
 5917TIP3   OH239241   2.677   4.980  16.308 -0.1869 -0.2551  0.1213
 5917TIP3    H139242   2.763   5.018  16.327  0.0096 -0.5209 -0.2157
 5917TIP3    H239243   2.669   4.908  16.371  0.7271 -1.5243 -1.1381
 5918TIP3   OH239244   2.310   0.889  15.746 -0.2084  0.2324  0.1362
 5918TIP3    H139245   2.387   0.855  15.701 -0.3119 -0.9406  0.8235
 5918TIP3    H239246   2.266   0.812  15.782 -2.2493  0.7468 -1.0578
 5919TIP3   OH239247   6.057   0.820  16.711 -0.0665  0.8054 -0.2576
 5919TIP3    H139248   6.019   0.814  16.623  0.5140  0.0996 -0.4709
 5919TIP3    H239249   6.067   0.914  16.726 -1.7063  0.9953 -0.2615
 5920TIP3   OH239250   1.811   0.048  12.933 -0.4840 -0.1384  0.1419
 5920TIP3    H139251   1.873  -0.023  12.950  1.2422  0.9117 -1.3612
 5920TIP3    H239252   1.858   0.127  12.958 -0.8005  0.7718 -1.9434
 5921TIP3   OH239253   4.652   4.661   3.304 -0.2906  0.2082  0.4062
 5921TIP3    H139254   4.731   4.677   3.355 -0.3070 -0.6382  0.7154
 5921TIP3    H239255   4.588   4.629   3.368 -0.1542 -1.3639 -0.1990
 5922TIP3   OH239256   0.588   1.556  17.139 -0.0532  0.2518  0.2461
 5922TIP3    H139257   0.500   1.573  17.105 -0.0642  0.8564  0.5749
 5922TIP3    H239258   0.647   1.590  17.071 -0.0750  1.4050  0.7947
 5923TIP3   OH239259   2.472   6.383  11.734 -0.0296 -0.2214 -0.2354
 5923TIP3    H139260   2.468   6.450  11.666  1.2648 -1.1170 -1.2607
 5923TIP3    H239261   2.382   6.373  11.764 -0.5444  0.5986 -1.4357
 5924TIP3   OH239262   1.752   1.756  15.587 -0.1502  0.2561  0.1463
 5924TIP3    H139263   1.699   1.676  15.576 -0.8177  0.7452 -0.2813
 5924TIP3    H239264   1.801   1.763  15.505 -0.9426  0.8845 -0.2902
 5925TIP3   OH239265   6.613   4.087  11.201 -0.1311 -0.3058 -0.3226
 5925TIP3    H139266   6.552   4.014  11.190 -1.0704  0.1455  1.5281
 5925TIP3    H239267   6.588   4.126  11.285  0.3437  2.1368 -1.2500
 5926TIP3   OH239268   3.793   3.337   3.162 -0.1639 -0.2506 -0.2679
 5926TIP3    H139269   3.733   3.410   3.147  0.7041  0.5257 -0.0638
 5926TIP3    H239270   3.765   3.300   3.246  0.7886  1.2966  0.7812
 5927TIP3   OH239271   3.313   0.088   1.321 -0.0257  0.2576 -0.0072
 5927TIP3    H139272   3.340   0.095   1.230  0.4525 -1.4656 -0.0384
 5927TIP3    H239273   3.345   0.168   1.363  2.5382 -0.3363 -0.6761
 5928TIP3   OH239274   1.957   5.175  16.388  0.3705 -0.1644  0.2252
 5928TIP3    H139275   2.011   5.111  16.343 -2.1584 -0.3703 -2.9207
 5928TIP3    H239276   1.868   5.139  16.384 -0.6634  2.0218  1.2964
 5929TIP3   OH239277   4.309   1.578   0.444 -0.6420 -0.2590 -0.3072
 5929TIP3    H139278   4.315   1.530   0.361 -0.6809  0.0835 -0.5102
 5929TIP3    H239279   4.283   1.512   0.508  0.3485 -0.7315 -0.3740
 5930TIP3   OH239280   5.681   5.100  11.083  0.0183 -0.7472 -0.4625
 5930TIP3    H139281   5.755   5.093  11.143 -1.1997  0.5831  1.3196
 5930TIP3    H239282   5.716   5.075  10.997  2.4726 -0.2874  0.3367
 5931TIP3   OH239283   0.998   3.840   4.196  0.7070 -0.8572  0.0917
 5931TIP3    H139284   1.055   3.869   4.267  1.1917 -1.6494  0.0274
 5931TIP3    H239285   1.027   3.752   4.176 -1.1974 -1.6828  0.7508
 5932TIP3   OH239286   0.445   1.475   4.227  0.5306 -0.0980  0.4160
 5932TIP3    H139287   0.423   1.436   4.142 -2.9722 -1.9066  1.9405
 5932TIP3    H239288   0.396   1.557   4.229  0.8741  0.1042  0.5611
 5933TIP3   OH239289   0.473   0.554   2.702  0.4263 -0.0825 -0.7865
 5933TIP3    H139290   0.528   0.566   2.624 -0.6060  0.0581 -1.5130
 5933TIP3    H239291   0.453   0.643   2.731 -0.3674 -0.1108 -1.2222
 5934TIP3   OH239292   1.749   5.818   3.903  0.2222 -0.2628 -0.2065
 5934TIP3    H139293   1.814   5.750   3.923 -0.4024 -0.6773  0.4534
 5934TIP3    H239294   1.755   5.829   3.808  0.6424 -0.9229 -0.2659
 5935TIP3   OH239295   3.711   4.016   3.088 -0.1053 -0.5270 -0.3680
 5935TIP3    H139296   3.782   3.953   3.089  0.9052  0.5555 -1.6745
 5935TIP3    H239297   3.719   4.062   3.172  0.7755 -0.3799 -0.5248
 5936TIP3   OH239298   4.435   3.835   2.454 -0.3078  0.1205  0.0265
 5936TIP3    H139299   4.525   3.866   2.452 -0.1208 -0.4277 -0.0502
 5936TIP3    H239300   4.439   3.751   2.499 -0.6125 -0.4464 -0.9770
 5937TIP3   OH239301   4.419   1.381  16.772  0.5208 -0.3032 -0.2990
 5937TIP3    H139302   4.448   1.448  16.711 -0.9677  1.0568  0.4045
 5937TIP3    H239303   4.499   1.340  16.804  1.3932  0.1980 -1.7623
 5938TIP3   OH239304   3.735   2.276  12.002 -0.4582 -0.2352  0.0301
 5938TIP3    H139305   3.774   2.236  12.079 -0.9367 -0.0054  0.4019
 5938TIP3    H239306   3.769   2.366  12.002  0.7052 -0.6537 -0.8677
 5939TIP3   OH239307   4.461   3.796   0.757  0.0835  0.0107  0.0255
 5939TIP3    H139308   4.552   3.813   0.783  0.3821  1.0545 -1.5706
 5939TIP3    H239309   4.431   3.730   0.820  3.0489 -3.0678 -1.4607
 5940TIP3   OH239310   3.700   6.342   1.752  0.0134 -0.3213 -0.4605
 5940TIP3    H139311   3.743   6.342   1.667 -0.1985 -0.5596 -0.5681
 5940TIP3    H239312   3.650   6.424   1.754 -0.9498 -0.8756 -1.0591
 5941TIP3   OH239313   0.886   0.323   2.687  0.2089  1.0582  0.0517
 5941TIP3    H139314   0.844   0.400   2.725  1.4071  1.3784  0.7983
 5941TIP3    H239315   0.913   0.350   2.599  1.6095  1.8877  0.7050
 5942TIP3   OH239316   1.265   0.139  15.375  0.2528 -0.4111 -0.6218
 5942TIP3    H139317   1.326   0.066  15.382  0.3596 -0.3888 -1.2188
 5942TIP3    H239318   1.193   0.105  15.322  0.6182  0.1101 -1.4728
 5943TIP3   OH239319   6.759   2.195  14.648  0.3252 -0.2724 -0.2991
 5943TIP3    H139320   6.671   2.229  14.665  0.7490  0.0947  1.3795
 5943TIP3    H239321   6.747   2.129  14.580 -1.4192 -1.0033  0.6464
 5944TIP3   OH239322   1.233   0.279  13.150 -0.0879  0.2923 -0.0381
 5944TIP3    H139323   1.310   0.226  13.129 -0.6768 -0.3038 -0.7088
 5944TIP3    H239324   1.167   0.254  13.085 -0.5660  1.4363 -0.0198
 5945TIP3   OH239325   4.702   2.751  14.753  0.3504  0.0653 -0.7474
 5945TIP3    H139326   4.772   2.701  14.708  0.8161 -1.5145  1.5493
 5945TIP3    H239327   4.633   2.686  14.768  0.3817  0.4045  1.0942
 5946TIP3   OH239328   2.819   0.865   0.786  0.7345  0.2442 -0.1139
 5946TIP3    H139329   2.876   0.840   0.713 -0.0320 -1.1984 -0.2482
 5946TIP3    H239330   2.826   0.793   0.848  0.6901  1.0456  0.8450
 5947TIP3   OH239331   0.758   4.867   5.811 -0.6515  0.0541  0.3078
 5947TIP3    H139332   0.764   4.945   5.866  1.0613 -0.0182  0.2568
 5947TIP3    H239333   0.786   4.896   5.724 -0.4647 -0.5170  0.1734
 5948TIP3   OH239334   5.982   1.399  14.049  0.0127 -0.1360 -0.6288
 5948TIP3    H139335   5.934   1.451  14.114  0.9271 -0.3591  0.2544
 5948TIP3    H239336   6.011   1.322  14.097  0.4126 -0.4801 -1.4014
 5949TIP3   OH239337   0.087   3.638   1.383 -0.6934  0.2817 -0.3876
 5949TIP3    H139338   0.097   3.546   1.359 -1.1283  0.4723 -1.3370
 5949TIP3    H239339  -0.004   3.659   1.359 -1.0815  0.5554  1.2137
 5950TIP3   OH239340   6.458   2.214  11.500 -0.6127  0.4980 -0.2706
 5950TIP3    H139341   6.516   2.285  11.529 -0.0885 -0.3889  0.9687
 5950TIP3    H239342   6.513   2.161  11.443 -0.4281  0.0806  0.2887
 5951TIP3   OH239343   0.327   0.610   1.914 -0.1107 -0.6779  0.5113
 5951TIP3    H139344   0.260   0.624   1.847  1.9249  0.1534 -1.4836
 5951TIP3    H239345   0.358   0.521   1.899  0.3351 -0.4982  0.3683
 5952TIP3   OH239346   4.102   2.553   0.840  0.0493 -0.3764  0.3704
 5952TIP3    H139347   4.029   2.594   0.886 -0.1381 -0.2189 -0.0534
 5952TIP3    H239348   4.069   2.541   0.750  0.6009 -0.1595  0.1336
 5953TIP3   OH239349   5.657   6.621  10.981  0.6340 -0.0166 -0.3717
 5953TIP3    H139350   5.674   6.527  10.992  0.9701  0.1200  0.4058
 5953TIP3    H239351   5.602   6.644  11.056  0.9606  0.5021 -0.2885
 5954TIP3   OH239352   0.923   3.535   3.421  0.3318  0.3016 -0.4070
 5954TIP3    H139353   0.892   3.453   3.461 -1.1712  0.0339 -2.0287
 5954TIP3    H239354   1.012   3.514   3.391  0.5341 -0.2535  0.5249
 5955TIP3   OH239355   2.546   6.317  16.542  0.3513 -0.2745 -0.4205
 5955TIP3    H139356   2.455   6.339  16.521 -0.0245 -1.5390 -0.2200
 5955TIP3    H239357   2.557   6.227  16.510  0.8313 -0.9802  1.6019
 5956TIP3   OH239358   2.694   4.471   5.657  0.2816  0.1602 -0.1219
 5956TIP3    H139359   2.682   4.456   5.750  3.8989  0.2693  0.4920
 5956TIP3    H239360   2.619   4.427   5.616 -1.8316  0.7678  2.7735
 5957TIP3   OH239361   0.199   2.900   0.926  0.2067 -0.3490  0.4127
 5957TIP3    H139362   0.266   2.923   0.862  0.0468 -0.6999  0.1132
 5957TIP3    H239363   0.242   2.838   0.985  0.4346  0.1835  0.8096
 5958TIP3   OH239364   6.185   4.339  16.354  0.2724 -0.1408  0.0535
 5958TIP3    H139365   6.158   4.252  16.384  1.5971 -0.8641 -0.7549
 5958TIP3    H239366   6.131   4.355  16.276 -0.5059  0.1149  0.6254
 5959TIP3   OH239367   5.162   5.839  14.340 -0.4219  0.1951  0.2425
 5959TIP3    H139368   5.156   5.747  14.366  2.4392  0.5514  2.8271
 5959TIP3    H239369   5.228   5.841  14.271 -1.7305  0.1932 -1.0545
 5960TIP3   OH239370   1.065   2.442  16.204 -0.2947  0.0074 -0.4761
 5960TIP3    H139371   1.004   2.509  16.235 -0.3921  0.4023 -1.4713
 5960TIP3    H239372   1.089   2.471  16.116  0.0223 -1.0255 -0.7426
 5961TIP3   OH239373   6.410   4.802   1.202 -0.5978 -0.3551 -0.2210
 5961TIP3    H139374   6.354   4.876   1.176 -0.3168 -0.2900 -0.6419
 5961TIP3    H239375   6.484   4.843   1.246  1.4800 -0.0407 -3.6886
 5962TIP3   OH239376   6.286   1.215   2.670  0.1725  0.5115  0.2766
 5962TIP3    H139377   6.311   1.148   2.733 -1.4100 -1.3867 -0.9512
 5962TIP3    H239378   6.255   1.288   2.723  2.0293  0.3652  1.6694
 5963TIP3   OH239379   0.335   1.692   1.724 -0.0993  0.0193  0.0490
 5963TIP3    H139380   0.362   1.782   1.708 -0.2952  0.2113  0.8037
 5963TIP3    H239381   0.302   1.662   1.639 -0.3948  0.7773 -0.1080
 5964TIP3   OH239382   5.226   6.323  12.809 -0.0804 -0.0701  0.4779
 5964TIP3    H139383   5.167   6.265  12.762  1.3590 -1.5985  0.5028
 5964TIP3    H239384   5.306   6.325  12.758  0.5211  0.5021  1.3951
 5965TIP3   OH239385   6.552   6.155   3.730  0.1880 -0.4542 -0.1544
 5965TIP3    H139386   6.585   6.192   3.812 -1.0058 -1.6006  0.8660
 5965TIP3    H239387   6.564   6.226   3.666 -0.3354  1.0513  1.3448
 5966TIP3   OH239388   1.742   6.426  10.799  0.4861 -0.5696  0.2319
 5966TIP3    H139389   1.746   6.503  10.741 -0.0497 -1.6847 -1.3663
 5966TIP3    H239390   1.654   6.431  10.838  0.6680 -0.0680  0.5855
 5967TIP3   OH239391   2.193   2.423  14.916 -0.0382  0.1014  0.1278
 5967TIP3    H139392   2.152   2.508  14.935 -1.8673 -1.1855  2.4497
 5967TIP3    H239393   2.145   2.390  14.840  0.0188  0.7258 -0.1850
 5968TIP3   OH239394   0.097   4.240  12.453 -0.2459 -0.6777  0.6423
 5968TIP3    H139395   0.052   4.219  12.535  0.0881  1.6674  1.5122
 5968TIP3    H239396   0.162   4.305  12.477 -0.1280  0.0871 -1.4966
 5969TIP3   OH239397   2.670   2.028   5.204 -0.0186 -0.0466 -0.3125
 5969TIP3    H139398   2.731   1.957   5.225  0.4414  0.9232  1.9663
 5969TIP3    H239399   2.698   2.061   5.119  1.9979 -0.3250  0.2066
 5970TIP3   OH239400   3.116   1.862  15.166  0.4177  1.4877 -0.8523
 5970TIP3    H139401   3.046   1.925  15.182 -1.3762 -0.4706 -0.6334
 5970TIP3    H239402   3.118   1.808  15.245  1.5331  0.9035 -1.2629
 5971TIP3   OH239403   0.351   0.357   0.613 -0.3267  0.0077 -0.3667
 5971TIP3    H139404   0.445   0.374   0.619 -0.3297 -0.2644  0.6384
 5971TIP3    H239405   0.311   0.444   0.605  0.0507  0.0816 -1.8047
 5972TIP3   OH239406   1.895   1.609   4.079  0.1570 -0.1608  0.1564
 5972TIP3    H139407   1.844   1.648   4.151 -0.8009 -0.7229 -0.1925
 5972TIP3    H239408   1.866   1.656   4.001 -0.0923 -0.7174 -0.0933
 5973TIP3   OH239409   4.891   0.451  15.515 -0.2575  0.2738 -0.2398
 5973TIP3    H139410   4.894   0.363  15.553  1.3480  0.7172  0.7714
 5973TIP3    H239411   4.894   0.436  15.421 -0.9407 -0.7772 -0.1098
 5974TIP3   OH239412   5.751   4.146   3.721 -0.4636 -0.1786  0.1695
 5974TIP3    H139413   5.791   4.094   3.651  1.8850  0.4430  0.9617
 5974TIP3    H239414   5.759   4.091   3.798 -0.5517  0.2206  0.4642
 5975TIP3   OH239415   4.698   4.038  12.939  0.5060  0.1823  0.3097
 5975TIP3    H139416   4.748   4.071  13.014 -0.0148 -0.5140  0.9811
 5975TIP3    H239417   4.673   3.949  12.964 -1.8212  0.7945  0.4025
 5976TIP3   OH239418   0.385   6.276  14.911  0.6930  0.2412  0.8576
 5976TIP3    H139419   0.369   6.370  14.905  0.2733  0.1411  0.3687
 5976TIP3    H239420   0.344   6.240  14.832  0.8290 -0.3526  1.0587
 5977TIP3   OH239421   3.131   0.087  15.173  0.1474 -0.1450  0.2043
 5977TIP3    H139422   3.184   0.076  15.252  2.0224  1.0024 -0.8199
 5977TIP3    H239423   3.116   0.182  15.166 -0.6547 -0.2997 -0.4239
 5978TIP3   OH239424   1.208   1.901  12.524  0.1453 -0.0220 -0.2381
 5978TIP3    H139425   1.260   1.856  12.590 -0.2234 -0.9629 -0.5839
 5978TIP3    H239426   1.185   1.985  12.565  0.9089 -0.0991  0.3691
 5979TIP3   OH239427   5.257   0.839   6.489  0.2516 -0.1185  0.7000
 5979TIP3    H139428   5.281   0.931   6.504  0.8684  0.2087 -1.8369
 5979TIP3    H239429   5.341   0.796   6.471 -0.3447 -0.2855 -2.0775
 5980TIP3   OH239430   4.842   5.095  17.134 -0.3700  0.0336  0.4825
 5980TIP3    H139431   4.874   5.084  17.224  0.6248 -0.3285  0.1007
 5980TIP3    H239432   4.756   5.134  17.144  0.2912  1.2935  1.5521
 5981TIP3   OH239433   4.961   0.217  17.172 -0.3220 -0.3871  0.9098
 5981TIP3    H139434   4.868   0.221  17.150  0.0291  0.5550 -0.5295
 5981TIP3    H239435   4.996   0.149  17.116 -0.1507 -0.8368  1.5506
 5982TIP3   OH239436   0.885   3.974  12.476 -0.3557 -0.3785 -0.0506
 5982TIP3    H139437   0.877   3.880  12.489 -1.5211 -0.7430 -2.7343
 5982TIP3    H239438   0.797   4.008  12.493 -0.3030 -0.0074 -0.5018
 5983TIP3   OH239439   0.514   3.212  12.159  0.1789  0.2991 -0.1699
 5983TIP3    H139440   0.578   3.184  12.224 -0.2261 -0.2764 -0.0060
 5983TIP3    H239441   0.535   3.304  12.143  1.1563  0.0732 -0.2569
 5984TIP3   OH239442   1.518   3.455  13.432  0.0531  0.3299 -0.2376
 5984TIP3    H139443   1.447   3.515  13.410  0.1169  0.0246 -1.3443
 5984TIP3    H239444   1.512   3.385  13.367 -0.9649 -1.7063  1.8844
 5985TIP3   OH239445   3.522   6.144  16.202 -0.3194 -0.3719 -0.2750
 5985TIP3    H139446   3.492   6.056  16.178  1.2144 -0.4976 -1.9342
 5985TIP3    H239447   3.534   6.188  16.118 -0.5432  1.2714  0.5163
 5986TIP3   OH239448   6.632   4.325  11.430  0.2745  0.0451  0.1188
 5986TIP3    H139449   6.718   4.367  11.435  0.2727 -0.0779  1.3659
 5986TIP3    H239450   6.578   4.387  11.380  0.7262  0.7343  0.4783
 5987TIP3   OH239451   4.899   3.637  13.294  0.8293  1.0919 -0.0787
 5987TIP3    H139452   4.945   3.563  13.334 -0.3450  1.2614  1.7180
 5987TIP3    H239453   4.814   3.601  13.269  0.0854  1.8896  1.2018
 5988TIP3   OH239454   0.435   5.843  14.494  0.4240  0.1868  0.2994
 5988TIP3    H139455   0.479   5.887  14.567  0.8415  0.6026 -0.1980
 5988TIP3    H239456   0.478   5.877  14.415 -0.3100  0.0668 -0.1626
 5989TIP3   OH239457   4.566   6.544  16.575  0.1980 -0.7448  0.0543
 5989TIP3    H139458   4.560   6.470  16.514  1.3627 -0.4736 -0.3978
 5989TIP3    H239459   4.482   6.589  16.566  1.0777  0.5327 -2.9576
 5990TIP3   OH239460   4.461   6.404  16.099  0.7020 -0.2188 -0.2990
 5990TIP3    H139461   4.397   6.409  16.028  0.8426 -0.7050 -0.4681
 5990TIP3    H239462   4.417   6.355  16.168  0.4914  0.4329  0.0393
 5991TIP3   OH239463   4.577   1.402   1.363 -0.1130  0.1163  0.0997
 5991TIP3    H139464   4.531   1.392   1.446 -1.0867 -0.4372 -0.4796
 5991TIP3    H239465   4.549   1.488   1.330 -1.0891 -0.3999 -0.4494
 5992TIP3   OH239466   3.925   4.429   3.535  0.2916 -0.4899 -0.3204
 5992TIP3    H139467   3.901   4.500   3.476 -0.1575  1.2698  1.8600
 5992TIP3    H239468   3.842   4.385   3.554  0.3570 -0.7121 -0.5349
 5993TIP3   OH239469   0.239   2.532   1.266 -0.4115 -0.4786  0.0385
 5993TIP3    H139470   0.190   2.454   1.242 -1.3673  0.6272 -1.8114
 5993TIP3    H239471   0.221   2.544   1.359  0.7932 -3.1277  0.7006
 5994TIP3   OH239472   3.266   2.209   1.621 -0.1414 -0.3603  0.2554
 5994TIP3    H139473   3.259   2.183   1.529 -1.9062  0.2816  0.1763
 5994TIP3    H239474   3.258   2.127   1.670  0.5463 -0.6739 -0.1471
 5995TIP3   OH239475   0.578   2.641  15.385 -0.3536  0.2539  0.2932
 5995TIP3    H139476   0.592   2.555  15.346 -0.1027  0.3804  0.1072
 5995TIP3    H239477   0.482   2.648  15.391 -0.3987  0.2528 -0.3362
 5996TIP3   OH239478   6.203   5.814   1.669  0.3115 -0.2722 -0.0136
 5996TIP3    H139479   6.118   5.782   1.641  0.5345  0.3877 -1.5380
 5996TIP3    H239480   6.184   5.870   1.745 -0.5116 -0.7483  0.1376
 5997TIP3   OH239481   1.505   5.278  17.051  0.1877  0.8119  0.5947
 5997TIP3    H139482   1.487   5.202  16.997  1.3078  0.2998  0.9208
 5997TIP3    H239483   1.600   5.289  17.048  0.0378  2.3362  0.3740
 5998TIP3   OH239484   6.799   6.753  11.763  0.5093 -0.2069  0.1470
 5998TIP3    H139485   6.777   6.663  11.783 -1.0002  0.0058 -0.4395
 5998TIP3    H239486   6.749   6.773  11.684 -2.0272  2.2236  2.1830
 5999TIP3   OH239487   3.775   5.347   0.169 -0.1212  0.0700  0.0993
 5999TIP3    H139488   3.787   5.342   0.074  1.8641 -0.2210  0.3413
 5999TIP3    H239489   3.807   5.263   0.202 -2.4433 -0.5811  0.9301
 6000TIP3   OH239490   0.481   1.790   2.109  0.4677 -0.1191 -0.1988
 6000TIP3    H139491   0.504   1.851   2.040 -0.8436 -1.5226 -1.9826
 6000TIP3    H239492   0.427   1.841   2.170 -0.6683  0.5239 -1.6777
 6001TIP3   OH239493   2.568   3.244  16.536  0.3040 -0.2292 -0.7874
 6001TIP3    H139494   2.484   3.213  16.501  0.7277  0.3786 -2.4058
 6001TIP3    H239495   2.617   3.164  16.554 -0.4042 -0.5787 -0.3411
 6002TIP3   OH239496   2.478   5.342  16.207 -0.0319 -0.8571 -0.5313
 6002TIP3    H139497   2.474   5.358  16.302  1.0296 -0.0622 -0.6081
 6002TIP3    H239498   2.544   5.403  16.175 -0.9271 -0.5673 -1.9092
 6003TIP3   OH239499   6.651   4.822  11.493 -0.1141 -0.2836  0.5907
 6003TIP3    H139500   6.701   4.744  11.517  0.8791  0.5703  1.3953
 6003TIP3    H239501   6.571   4.818  11.546 -0.6778 -1.3920 -0.3180
 6004TIP3   OH239502   3.383   4.663  14.522  0.0491 -0.0649  0.3778
 6004TIP3    H139503   3.298   4.706  14.520  0.1722  0.1543 -0.4032
 6004TIP3    H239504   3.424   4.686  14.439  0.9366 -0.0330  0.8017
 6005TIP3   OH239505   1.078   6.600   0.025 -0.6086 -0.3196 -0.6733
 6005TIP3    H139506   1.161   6.611   0.072 -0.3964 -0.5925 -0.9859
 6005TIP3    H239507   1.078   6.509  -0.003 -1.5437 -0.6573  0.3334
 6006TIP3   OH239508   4.049   3.554   4.667 -0.4067 -0.3983  0.4244
 6006TIP3    H139509   3.973   3.608   4.646 -0.7521 -0.6021  1.1399
 6006TIP3    H239510   4.014   3.482   4.720  0.0089 -1.4477 -0.6701
 6007TIP3   OH239511   4.344   5.765  11.769 -0.1024  0.3858 -0.4763
 6007TIP3    H139512   4.263   5.794  11.726 -0.1434  1.0771  0.0406
 6007TIP3    H239513   4.321   5.759  11.861  0.0336 -0.9243 -0.5152
 6008TIP3   OH239514   2.755   2.780  12.762  0.2800 -0.0193  0.3508
 6008TIP3    H139515   2.804   2.862  12.761 -0.0439  0.3102  3.1460
 6008TIP3    H239516   2.683   2.797  12.823 -0.1836 -2.1780  0.4548
 6009TIP3   OH239517   5.844   4.102   1.056 -0.0883 -0.5112  0.0628
 6009TIP3    H139518   5.773   4.040   1.039 -0.4263  0.0597 -0.6276
 6009TIP3    H239519   5.913   4.077   0.995 -0.1811 -0.2760 -0.1385
 6010TIP3   OH239520   6.213   6.560   1.536  0.2234 -0.0923  0.1894
 6010TIP3    H139521   6.215   6.655   1.541 -0.3141 -0.1111  1.1355
 6010TIP3    H239522   6.122   6.538   1.517  0.2184 -0.4226  0.5567
 6011TIP3   OH239523   2.205   4.713  15.384 -0.1550 -0.1161 -0.0642
 6011TIP3    H139524   2.124   4.762  15.393  0.6292  1.2224 -0.0575
 6011TIP3    H239525   2.229   4.722  15.292 -0.1623 -0.7712 -0.1381
 6012TIP3   OH239526   4.721   4.861  11.103 -0.1207  0.3524  0.3326
 6012TIP3    H139527   4.643   4.908  11.074 -0.1594 -0.0586 -0.2465
 6012TIP3    H239528   4.708   4.771  11.072 -0.4775 -0.2877  2.2391
 6013TIP3   OH239529   0.293   3.625  12.195  0.2433  0.1816 -0.1798
 6013TIP3    H139530   0.233   3.550  12.192  0.7806 -0.2710  0.1920
 6013TIP3    H239531   0.279   3.663  12.282 -1.6181  1.8713 -1.1079
 6014TIP3   OH239532   4.893   2.232   1.399  0.2866 -0.5122  0.1147
 6014TIP3    H139533   4.964   2.194   1.452 -0.0811 -0.5166  0.6093
 6014TIP3    H239534   4.898   2.326   1.416  0.6289 -0.4253 -0.4190
 6015TIP3   OH239535   2.431   1.360   2.713  0.4203  0.5088 -0.4101
 6015TIP3    H139536   2.441   1.405   2.796 -1.5569  1.4222 -0.6313
 6015TIP3    H239537   2.359   1.405   2.669  0.2821 -1.0486 -1.8822
 6016TIP3   OH239538   5.175   5.124   2.374 -0.4684 -0.1659  0.2509
 6016TIP3    H139539   5.244   5.185   2.347  0.0504 -1.1745 -0.8099
 6016TIP3    H239540   5.132   5.099   2.293 -1.2109 -0.5710  0.7607
 6017TIP3   OH239541   5.574   5.920  15.590 -0.5663 -0.3728 -0.4250
 6017TIP3    H139542   5.620   5.954  15.513 -1.4179 -1.2885 -1.3708
 6017TIP3    H239543   5.520   5.993  15.620 -0.5691 -0.1476 -0.9760
 6018TIP3   OH239544   6.326   4.797   1.818  0.4417 -0.7352 -0.0868
 6018TIP3    H139545   6.306   4.713   1.778  0.8871 -0.9821  0.1940
 6018TIP3    H239546   6.334   4.777   1.912 -1.5743  0.0034  0.2733
 6019TIP3   OH239547   6.765   2.818  15.241  0.3920  0.4474 -0.4525
 6019TIP3    H139548   6.692   2.865  15.282  0.8740  0.0943  0.8628
 6019TIP3    H239549   6.806   2.771  15.313  0.5177 -1.2155 -1.5508
 6020TIP3   OH239550   0.655   0.152  15.873  0.4495 -0.4147  0.2298
 6020TIP3    H139551   0.673   0.125  15.783 -1.2913  0.3327 -0.3802
 6020TIP3    H239552   0.589   0.089  15.904  0.9116 -0.5607  0.9305
 6021TIP3   OH239553   5.977   3.989   0.124  0.0777 -0.1127 -0.0974
 6021TIP3    H139554   6.003   3.935   0.199 -0.4197 -0.2025  0.0137
 6021TIP3    H239555   5.922   4.058   0.163  1.8160  1.3028 -0.0329
 6022TIP3   OH239556   6.044   2.635   5.951  0.1207 -0.2603  0.3381
 6022TIP3    H139557   5.950   2.646   5.938 -0.1620 -1.4124  1.1998
 6022TIP3    H239558   6.054   2.543   5.975  1.1043  0.4703  3.1194
 6023TIP3   OH239559   2.300   2.522  15.180 -0.3179 -0.2556  0.1557
 6023TIP3    H139560   2.250   2.494  15.103  0.3680 -0.4089 -0.2399
 6023TIP3    H239561   2.384   2.552  15.145 -0.1910  0.1715  0.7966
 6024TIP3   OH239562   2.225   3.296  13.711 -0.2377  0.3295  0.2244
 6024TIP3    H139563   2.256   3.241  13.640  1.2684  1.5602 -0.1269
 6024TIP3    H239564   2.244   3.385  13.683  1.4653  0.8193  2.6203
 6025TIP3   OH239565   1.690   6.119  15.789 -0.6518 -0.3476 -0.6667
 6025TIP3    H139566   1.652   6.196  15.747  0.7233  1.3307  1.0219
 6025TIP3    H239567   1.615   6.073  15.828 -1.3888  0.7269 -0.7938
 6026TIP3   OH239568   0.780   0.571   2.773 -0.0277 -0.1428  0.2081
 6026TIP3    H139569   0.733   0.644   2.814 -0.0510 -0.5227  0.8761
 6026TIP3    H239570   0.735   0.556   2.691 -2.0192 -1.4384  1.4558
 6027TIP3   OH239571   4.509   2.959   0.411  0.1715 -0.5594  0.2471
 6027TIP3    H139572   4.430   3.012   0.408 -1.1566 -2.4310  0.4820
 6027TIP3    H239573   4.551   2.973   0.326  1.9666  3.7501  1.5761
 6028TIP3   OH239574   4.438   3.875   5.549  0.0453 -0.5942  0.7915
 6028TIP3    H139575   4.507   3.820   5.587  0.5718 -0.2422  0.3588
 6028TIP3    H239576   4.356   3.829   5.570  0.4145 -1.0622  1.2302
 6029TIP3   OH239577   5.794   3.282  12.789 -0.7511  0.0412 -0.1314
 6029TIP3    H139578   5.730   3.320  12.850  0.9134  1.6991  0.6879
 6029TIP3    H239579   5.836   3.213  12.840 -0.2700  0.5456  0.1686
 6030TIP3   OH239580   4.555   1.393   1.939 -0.1885 -0.0685 -0.0266
 6030TIP3    H139581   4.569   1.463   2.002 -0.8681 -1.1036  1.3337
 6030TIP3    H239582   4.482   1.342   1.975 -1.1125 -0.2887 -2.0299
 6031TIP3   OH239583   3.367   4.810   2.536  0.5221 -0.1804  0.2093
 6031TIP3    H139584   3.353   4.822   2.630  0.1449 -0.5910  0.2080
 6031TIP3    H239585   3.319   4.882   2.495  1.8702  0.8630  0.3768
 6032TIP3   OH239586   3.944   4.719   0.486  0.6429 -0.4798 -0.3642
 6032TIP3    H139587   3.907   4.691   0.571  0.7456 -0.1388 -0.2058
 6032TIP3    H239588   3.915   4.651   0.425  0.7274 -0.8326 -0.0215
 6033TIP3   OH239589   3.175   4.641  11.736 -0.2535  0.3149 -0.0536
 6033TIP3    H139590   3.097   4.690  11.764  0.0490  1.1104 -0.5606
 6033TIP3    H239591   3.230   4.707  11.693  1.1390 -0.0295  1.1337
 6034TIP3   OH239592   6.474   5.552  15.081 -0.5586  0.4105  0.1216
 6034TIP3    H139593   6.542   5.618  15.093 -0.2578  0.0977  0.1611
 6034TIP3    H239594   6.413   5.567  15.153 -1.1332  1.4146 -0.5635
 6035TIP3   OH239595   3.008   5.712  16.003 -0.4571  0.4128 -0.8740
 6035TIP3    H139596   2.950   5.652  15.956 -1.8796  1.3755 -0.4418
 6035TIP3    H239597   3.019   5.673  16.089 -0.6996  0.3429 -0.8729
 6036TIP3   OH239598   1.744   6.719   3.959 -0.3297 -0.0996  0.0997
 6036TIP3    H139599   1.837   6.724   3.940 -0.5532  1.3573 -0.7267
 6036TIP3    H239600   1.704   6.685   3.879 -0.4498 -1.6072  0.7531
 6037TIP3   OH239601   4.167   5.408  10.898  0.1661  0.0086  0.1625
 6037TIP3    H139602   4.249   5.421  10.850 -0.0854 -1.3076 -0.6690
 6037TIP3    H239603   4.192   5.413  10.990  0.9927  0.6284 -0.0792
 6038TIP3   OH239604   1.961   6.256  12.242 -0.1302  0.2305  0.2898
 6038TIP3    H139605   2.045   6.251  12.287  0.0009 -2.7145 -0.0537
 6038TIP3    H239606   1.896   6.257  12.312  0.1600 -0.8222  0.5971
 6039TIP3   OH239607   3.159   2.674  14.709 -0.8516 -0.3948 -0.3032
 6039TIP3    H139608   3.163   2.620  14.630 -3.2515 -0.0416 -0.7341
 6039TIP3    H239609   3.244   2.660  14.752  0.2494 -1.1293 -2.5699
 6040TIP3   OH239610   2.373   4.395   0.122  0.1676  0.0753  0.4224
 6040TIP3    H139611   2.392   4.412   0.215 -0.1949  1.9677  0.2059
 6040TIP3    H239612   2.451   4.351   0.090  0.3310 -0.5490  1.6077
 6041TIP3   OH239613   6.686   1.004   4.200 -0.2149 -0.1515 -0.4670
 6041TIP3    H139614   6.656   1.095   4.199  0.4227  0.0551 -0.9350
 6041TIP3    H239615   6.700   0.984   4.293 -0.6590  0.1245 -0.3403
 6042TIP3   OH239616   6.291   5.258  12.244 -0.7451 -0.0103 -0.2079
 6042TIP3    H139617   6.231   5.330  12.262 -1.3021 -0.0582 -1.7157
 6042TIP3    H239618   6.237   5.190  12.205  0.0851 -0.5229 -0.5059
 6043TIP3   OH239619   0.977   1.940   0.735 -0.1313  0.2486  0.7093
 6043TIP3    H139620   1.013   1.970   0.819 -0.7428 -1.3356  1.5681
 6043TIP3    H239621   1.017   1.855   0.720  0.4748  0.7873 -0.9745
 6044TIP3   OH239622   0.854   1.896   5.987 -0.5566 -0.1145  0.7209
 6044TIP3    H139623   0.773   1.852   6.012 -0.5515 -0.2885  0.4333
 6044TIP3    H239624   0.876   1.859   5.902 -0.4591  0.3180  0.5553
 6045TIP3   OH239625   4.778   1.573  14.623  0.2503  0.1070  0.3036
 6045TIP3    H139626   4.747   1.592  14.534  0.3230 -1.3007 -0.0407
 6045TIP3    H239627   4.706   1.600  14.680 -0.2605 -0.0228 -0.2685
 6046TIP3   OH239628   3.346   5.836   6.051 -0.7233  0.3457 -0.7658
 6046TIP3    H139629   3.397   5.875   6.122 -2.2882 -0.7144  1.0741
 6046TIP3    H239630   3.381   5.747   6.043 -0.7173  0.3838 -1.1368
 6047TIP3   OH239631   4.637   3.022  10.945  0.5384 -0.0739 -0.2407
 6047TIP3    H139632   4.687   3.037  10.865  1.2247  0.2643  0.2405
 6047TIP3    H239633   4.606   3.109  10.971 -1.4818 -0.4240 -1.2554
 6048TIP3   OH239634   5.457   4.375  16.324  0.3591 -0.1937 -0.0441
 6048TIP3    H139635   5.547   4.348  16.345 -0.3926 -1.8240  1.3732
 6048TIP3    H239636   5.410   4.366  16.407 -1.1056  0.7549 -0.7335
 6049TIP3   OH239637   4.218   3.809   1.118 -0.1503 -0.2122  0.0141
 6049TIP3    H139638   4.124   3.807   1.099 -0.1705 -0.0942  0.0984
 6049TIP3    H239639   4.250   3.887   1.072 -0.3793  0.6377  1.2610
 6050TIP3   OH239640   2.171   5.655   4.265 -0.2958 -0.3117 -0.3754
 6050TIP3    H139641   2.211   5.575   4.229 -1.0399 -1.1959  0.6839
 6050TIP3    H239642   2.236   5.723   4.251  0.5392 -1.1968 -0.9327
 6051TIP3   OH239643   2.058   4.200  11.720 -0.5134  0.2870 -0.1284
 6051TIP3    H139644   2.018   4.124  11.678 -0.9958  0.9742 -0.9489
 6051TIP3    H239645   2.103   4.164  11.796 -2.7727 -0.5248  0.9063
 6052TIP3   OH239646   4.387   4.434  11.705 -0.2926 -0.2298  0.4787
 6052TIP3    H139647   4.372   4.347  11.668  0.9635  0.6093 -2.2124
 6052TIP3    H239648   4.300   4.467  11.725 -0.9359 -1.2778 -0.4749
 6053TIP3   OH239649   4.129   1.628   2.917 -0.0670 -0.1195 -0.2956
 6053TIP3    H139650   4.051   1.609   2.865 -0.1459 -0.3148 -0.1103
 6053TIP3    H239651   4.098   1.691   2.983 -0.7131 -2.1187  1.4006
 6054TIP3   OH239652   0.967   0.164   4.718  0.1120 -0.4628  0.2111
 6054TIP3    H139653   0.922   0.176   4.634  0.2279 -2.2502 -0.1569
 6054TIP3    H239654   0.977   0.252   4.753 -0.2445  0.2958 -1.4937
 6055TIP3   OH239655   2.063   3.177  15.799 -0.2218  0.7407  0.0348
 6055TIP3    H139656   2.017   3.144  15.721  1.1684 -1.7149  0.1616
 6055TIP3    H239657   2.092   3.265  15.774  0.9946 -0.3126 -2.6181
 6056TIP3   OH239658   5.055   0.178  14.645 -0.0003  0.2775 -0.0824
 6056TIP3    H139659   4.965   0.210  14.657 -1.2621 -2.6507 -0.9015
 6056TIP3    H239660   5.084   0.220  14.564 -1.4578 -0.2858 -0.9366
 6057TIP3   OH239661   5.636   1.378   2.510 -0.1346  0.0677 -0.4903
 6057TIP3    H139662   5.661   1.461   2.468 -0.1043  0.7790  0.8685
 6057TIP3    H239663   5.569   1.342   2.453  0.2144  0.7793 -1.3839
 6058TIP3   OH239664   5.292   0.429   3.655  0.4581 -0.0615 -0.3872
 6058TIP3    H139665   5.275   0.337   3.637 -0.5070 -0.0316  0.2757
 6058TIP3    H239666   5.228   0.453   3.723  0.4023  1.1973 -0.8427
 6059TIP3   OH239667   0.329   1.625   4.602  0.6887  0.4751 -0.0741
 6059TIP3    H139668   0.303   1.717   4.592 -0.2630  0.1023 -1.2504
 6059TIP3    H239669   0.416   1.629   4.643  0.3997  1.8716  0.4566
 6060TIP3   OH239670   0.740   5.519   5.087  0.2920  0.0652 -0.7423
 6060TIP3    H139671   0.648   5.494   5.090  0.3207 -0.0262 -0.5813
 6060TIP3    H239672   0.787   5.436   5.076  0.6331 -0.5395  3.4394
 6061TIP3   OH239673   3.851   6.482  16.299  0.6858  0.1873 -0.0625
 6061TIP3    H139674   3.908   6.515  16.230  0.9755  1.0157  0.5570
 6061TIP3    H239675   3.911   6.445  16.364  0.3345 -3.0306 -1.4058
 6062TIP3   OH239676   5.911   6.080  15.251 -0.0842  0.8243  0.3081
 6062TIP3    H139677   5.981   6.116  15.196  0.4456 -0.8531 -0.1719
 6062TIP3    H239678   5.836   6.136  15.233  0.6525  1.5777 -0.5448
 6063TIP3   OH239679   0.748   3.252   0.476 -0.0879 -0.1115 -0.5809
 6063TIP3    H139680   0.663   3.208   0.480  0.0280 -0.2473  1.2249
 6063TIP3    H239681   0.729   3.337   0.436 -0.7221 -0.8459 -1.9085
 6064TIP3   OH239682   5.545   6.013   4.146  0.0204  0.8161  0.1755
 6064TIP3    H139683   5.466   6.065   4.163 -0.6001 -0.8650  3.2839
 6064TIP3    H239684   5.522   5.957   4.072 -2.1986 -0.3463  1.6300
 6065TIP3   OH239685   3.469   5.858   3.880  0.1701 -0.0132 -1.1149
 6065TIP3    H139686   3.456   5.952   3.892 -0.5104  0.1004 -2.4985
 6065TIP3    H239687   3.410   5.817   3.944  0.5215  0.4960 -0.4621
 6066TIP3   OH239688   3.745   6.049  15.731 -0.0020 -0.0723  0.2406
 6066TIP3    H139689   3.805   6.049  15.806  0.1824 -1.6348  0.1391
 6066TIP3    H239690   3.706   6.136  15.731  1.4336  0.6000  0.9849
 6067TIP3   OH239691   2.825   4.950   5.145  0.4705  0.2220 -0.3990
 6067TIP3    H139692   2.878   4.992   5.077 -0.0969 -0.0294 -1.0049
 6067TIP3    H239693   2.761   5.017   5.170  0.7732  0.3660  0.0027
 6068TIP3   OH239694   1.955   3.154  14.149  0.3432 -0.6695 -0.2120
 6068TIP3    H139695   1.889   3.094  14.113 -0.1251 -1.6862  2.1168
 6068TIP3    H239696   2.002   3.101  14.214  2.1684  0.6017 -0.4236
 6069TIP3   OH239697   3.476   2.373   4.550 -0.2734 -0.0548  0.1624
 6069TIP3    H139698   3.431   2.438   4.604 -1.1285  0.0361 -0.6279
 6069TIP3    H239699   3.539   2.424   4.499 -0.2694  0.0120  0.2331
 6070TIP3   OH239700   1.999   1.641  13.391  0.5373  0.5159  0.5489
 6070TIP3    H139701   2.038   1.597  13.466 -1.3663 -1.4595  0.4733
 6070TIP3    H239702   1.905   1.635  13.405  0.1180  0.0325 -1.9948
 6071TIP3   OH239703   0.032   0.704  16.705  0.1707  0.5034  0.7117
 6071TIP3    H139704  -0.003   0.686  16.792  0.0904 -0.3529  0.5112
 6071TIP3    H239705  -0.015   0.642  16.648  1.3437 -0.0237  0.2953
 6072TIP3   OH239706   6.721   2.112  16.014 -0.3168 -0.0652 -0.2628
 6072TIP3    H139707   6.755   2.104  16.104 -0.1523  0.4343 -0.2768
 6072TIP3    H239708   6.733   2.205  15.992 -1.3756  0.0438 -0.4039
 6073TIP3   OH239709   2.854   2.095   1.332 -0.1184  0.2372 -0.5669
 6073TIP3    H139710   2.943   2.126   1.350 -0.4157  1.5176 -1.1967
 6073TIP3    H239711   2.810   2.099   1.417 -0.1648  1.6708 -0.6307
 6074TIP3   OH239712   4.063   4.727   5.210 -0.0187 -0.7525  0.1216
 6074TIP3    H139713   4.044   4.801   5.152  0.8440 -0.9884 -0.4938
 6074TIP3    H239714   4.155   4.707   5.193 -0.2192 -1.9266  0.3179
 6075TIP3   OH239715   5.255   5.893  14.984 -0.1961  0.8125  0.3485
 6075TIP3    H139716   5.253   5.957  14.912  0.8260  0.7625  0.2624
 6075TIP3    H239717   5.166   5.858  14.987 -0.2940  0.9210 -0.8003
 6076TIP3   OH239718   5.026   5.941   1.770  1.1468  0.2836 -0.4138
 6076TIP3    H139719   4.980   5.862   1.799 -0.7043  1.7986  0.9753
 6076TIP3    H239720   5.011   6.005   1.840  2.4584  1.9407 -1.5711
 6077TIP3   OH239721   1.405   5.086   3.867  0.5354 -0.5047 -0.0140
 6077TIP3    H139722   1.384   5.163   3.920  0.2204 -0.1089 -0.6989
 6077TIP3    H239723   1.451   5.121   3.791 -0.9975 -0.7914 -1.1238
 6078TIP3   OH239724   3.461   5.996  11.102  0.0054 -0.4717  0.3493
 6078TIP3    H139725   3.523   6.040  11.044 -0.6224  1.1418  0.8571
 6078TIP3    H239726   3.465   5.904  11.076  1.0882 -0.0726 -0.9926
 6079TIP3   OH239727   5.081   5.949  16.635  0.5038  0.3204 -0.3784
 6079TIP3    H139728   5.100   5.895  16.711  0.3790 -1.1558 -1.3566
 6079TIP3    H239729   5.122   5.902  16.562 -1.2464  0.5259 -1.5502
 6080TIP3   OH239730   1.342   1.236   2.162 -0.1648 -0.1531 -0.4969
 6080TIP3    H139731   1.337   1.331   2.173  0.6475 -0.1739  0.2020
 6080TIP3    H239732   1.376   1.204   2.246 -1.9341 -1.2351 -0.1362
 6081TIP3   OH239733   3.247   2.217  13.744  0.0108  0.0158 -0.0030
 6081TIP3    H139734   3.337   2.189  13.760  0.3397  0.5461 -0.8632
 6081TIP3    H239735   3.248   2.252  13.655 -1.1581 -0.4144 -0.2076
 6082TIP3   OH239736   5.484   1.383   1.221  0.4912 -0.3189 -0.2645
 6082TIP3    H139737   5.558   1.433   1.187  0.3495  1.2977  1.6016
 6082TIP3    H239738   5.494   1.386   1.317 -1.4310 -0.9183  0.0154
 6083TIP3   OH239739   6.788   4.744   3.349  0.5980 -0.6942 -0.2995
 6083TIP3    H139740   6.855   4.762   3.284  0.1183 -0.0744 -0.6246
 6083TIP3    H239741   6.808   4.803   3.422  0.9503 -1.1668 -0.0100
 6084TIP3   OH239742   5.001   4.241  13.629 -0.1788  0.3593 -0.1652
 6084TIP3    H139743   4.960   4.232  13.543 -0.1149 -0.3385 -0.1258
 6084TIP3    H239744   4.958   4.176  13.684  1.4829 -0.9447 -0.3258
 6085TIP3   OH239745   3.386   6.415   4.460  0.5030 -0.6999 -0.2008
 6085TIP3    H139746   3.394   6.413   4.555  0.8515 -1.1968 -0.2375
 6085TIP3    H239747   3.321   6.348   4.440  1.2745 -1.4076 -0.3882
 6086TIP3   OH239748   6.395   4.195   2.738 -0.1182  0.2635 -0.3458
 6086TIP3    H139749   6.307   4.196   2.775 -1.2996  0.8451 -2.9383
 6086TIP3    H239750   6.450   4.157   2.807 -2.4547 -0.5632  1.1725
 6087TIP3   OH239751   2.993   3.566   5.882  0.2389 -0.0565  0.4038
 6087TIP3    H139752   3.077   3.599   5.853  0.2823 -1.4001 -1.1799
 6087TIP3    H239753   2.966   3.505   5.813 -1.7581 -0.1049  1.1445
 6088TIP3   OH239754   6.443   3.675   4.973 -0.4801 -0.4252 -0.0239
 6088TIP3    H139755   6.496   3.611   5.020  0.9809  0.3336 -0.5664
 6088TIP3    H239756   6.419   3.740   5.039 -0.7437 -0.7705  0.2233
 6089TIP3   OH239757   6.241   1.441   3.731  0.0532 -0.1899 -0.1670
 6089TIP3    H139758   6.331   1.410   3.743 -0.5176 -1.4879  1.0701
 6089TIP3    H239759   6.250   1.522   3.681  1.7884 -1.1042 -1.4222
 6090TIP3   OH239760   6.411   4.306  11.619  0.0939 -0.4672  0.0902
 6090TIP3    H139761   6.439   4.394  11.647 -0.9196  0.1844 -0.8336
 6090TIP3    H239762   6.491   4.256  11.612  0.7378  0.5107  0.2396
 6091TIP3   OH239763   5.484   6.414   5.701  0.3502 -0.8133 -0.2081
 6091TIP3    H139764   5.460   6.491   5.649  1.0656 -1.1966 -1.1355
 6091TIP3    H239765   5.565   6.383   5.661  0.3804 -1.7123  0.5302
 6092TIP3   OH239766   2.196   4.909   2.338 -0.2038  0.5521 -0.0918
 6092TIP3    H139767   2.244   4.984   2.375 -0.9451  1.3360 -0.6636
 6092TIP3    H239768   2.240   4.891   2.255  0.2962  0.0059  0.2843
 6093TIP3   OH239769   4.132   4.375   4.933  0.4303 -0.0648 -0.3191
 6093TIP3    H139770   4.198   4.379   5.003  0.7186  0.6419 -0.6309
 6093TIP3    H239771   4.181   4.347   4.856 -0.0809 -1.9402 -0.0195
 6094TIP3   OH239772   0.228   3.392   2.004  0.4791 -0.0210 -0.4223
 6094TIP3    H139773   0.236   3.479   2.043  0.5207 -1.2666  2.7132
 6094TIP3    H239774   0.307   3.381   1.951  1.5730  1.0752  0.9043
 6095TIP3   OH239775   4.307   6.353   3.388 -0.0444  0.0050  0.3443
 6095TIP3    H139776   4.308   6.444   3.418 -1.2708  0.2164 -0.1877
 6095TIP3    H239777   4.311   6.301   3.467 -2.5934  0.5410  0.8888
 6096TIP3   OH239778   5.467   6.798   1.504  0.5896 -0.1763  0.0123
 6096TIP3    H139779   5.460   6.870   1.567  0.5742 -0.9738  0.9542
 6096TIP3    H239780   5.401   6.735   1.533  1.5391 -1.1832  0.0570
 6097TIP3   OH239781   6.134   5.972   1.905  0.1805 -0.4230  0.3394
 6097TIP3    H139782   6.142   6.056   1.951  2.4927  0.7769 -1.9971
 6097TIP3    H239783   6.149   5.907   1.973  0.1953  1.1106  1.8956
 6098TIP3   OH239784   5.646   2.374  11.599  0.7299  0.3933 -0.1130
 6098TIP3    H139785   5.554   2.386  11.623  0.6749  0.1385 -0.1971
 6098TIP3    H239786   5.650   2.287  11.559  1.1067  0.1751  0.3786
 6099TIP3   OH239787   4.957   1.932   1.209 -0.1253 -0.3727  0.2951
 6099TIP3    H139788   4.907   1.853   1.189  0.6415 -1.1570  1.4235
 6099TIP3    H239789   4.915   1.968   1.287 -0.0436 -0.0332  0.1866
 6100TIP3   OH239790   3.551   3.490   1.118 -0.2672 -0.2468 -0.0863
 6100TIP3    H139791   3.490   3.529   1.057  1.3224 -1.5165 -2.6577
 6100TIP3    H239792   3.634   3.536   1.104 -0.6319  2.1380  4.0269
 6101TIP3   OH239793   0.279   2.942  16.415  0.5453  0.3781  0.4379
 6101TIP3    H139794   0.225   2.865  16.430 -0.0420  0.6465 -0.2141
 6101TIP3    H239795   0.340   2.916  16.345  3.1437 -0.8079  2.9688
 6102TIP3   OH239796   1.008   0.369  13.295 -0.3034  0.1492 -0.2579
 6102TIP3    H139797   1.026   0.441  13.234  1.4009  0.3454  0.3974
 6102TIP3    H239798   1.080   0.307  13.280 -0.4992 -0.3414  0.7305
 6103TIP3   OH239799   5.900   1.866   6.223  0.0011 -0.5975 -0.2764
 6103TIP3    H139800   5.912   1.844   6.315  0.1636  2.9270  0.6963
 6103TIP3    H239801   5.823   1.816   6.196 -3.7966  2.3845  3.5915
 6104TIP3   OH239802   3.705   2.214   4.734 -0.1682  0.0799  0.0387
 6104TIP3    H139803   3.704   2.214   4.830  0.0377 -0.0349  0.0415
 6104TIP3    H239804   3.629   2.267   4.709  0.0650  0.5272  0.2674
 6105TIP3   OH239805   5.882   3.114  15.694  0.1655  0.6405 -0.4750
 6105TIP3    H139806   5.944   3.133  15.623  1.4702 -0.6852  0.2366
 6105TIP3    H239807   5.930   3.054  15.751 -1.9532 -0.7895 -0.1062
 6106TIP3   OH239808   1.968   6.199  14.857  0.4740  0.1775 -0.1264
 6106TIP3    H139809   2.053   6.158  14.873  0.5206  0.4333  0.2858
 6106TIP3    H239810   1.913   6.127  14.826  0.0733 -0.6419  2.2142
 6107TIP3   OH239811   4.321   5.023   0.535  0.1184  0.0060  0.1381
 6107TIP3    H139812   4.300   4.930   0.535  0.3579 -0.0529  0.9243
 6107TIP3    H239813   4.236   5.067   0.529  0.0894 -0.2371 -3.3668
 6108TIP3   OH239814   4.983   3.693  13.579  0.1589 -0.4180 -0.1678
 6108TIP3    H139815   4.935   3.698  13.661  1.2709  0.3318  0.4622
 6108TIP3    H239816   4.924   3.734  13.515 -0.2889 -0.0484  0.4656
 6109TIP3   OH239817   3.394   4.100  14.321  0.8248 -0.0429  0.1170
 6109TIP3    H139818   3.356   4.179  14.282  0.6095 -0.8429 -1.3879
 6109TIP3    H239819   3.437   4.056  14.248  1.4900 -1.0030  1.0648
 6110TIP3   OH239820   6.395   1.920   6.428 -0.2394 -0.1329  0.4316
 6110TIP3    H139821   6.450   1.843   6.441  1.0250  0.5842 -0.4038
 6110TIP3    H239822   6.344   1.927   6.509  1.5745 -0.3159  1.6396
 6111TIP3   OH239823   3.589   0.628  11.665  0.2666  0.3495 -0.2151
 6111TIP3    H139824   3.523   0.562  11.642 -0.1325  0.9087 -0.7064
 6111TIP3    H239825   3.672   0.590  11.637  0.0337  0.0726 -0.5372
 6112TIP3   OH239826   2.077   3.054   2.258  0.5679  0.1731  0.0074
 6112TIP3    H139827   2.173   3.047   2.257  0.5313 -0.4135  0.0202
 6112TIP3    H239828   2.058   3.111   2.332  0.9301  0.7137 -0.3086
 6113TIP3   OH239829   6.177   2.668  10.740 -1.3434  0.1022  0.2846
 6113TIP3    H139830   6.157   2.713  10.658 -1.6545 -0.6251 -0.0459
 6113TIP3    H239831   6.261   2.705  10.767 -2.1187  1.7029  0.6261
 6114TIP3   OH239832   6.731   2.916  16.674  0.3135  0.0907  0.1301
 6114TIP3    H139833   6.812   2.925  16.725  0.9857 -2.3270 -0.3540
 6114TIP3    H239834   6.734   2.826  16.642 -1.5639  0.6173 -1.6928
 6115TIP3   OH239835   3.504   5.078   4.020 -0.2771  0.2164 -0.5636
 6115TIP3    H139836   3.585   5.029   4.037 -1.5571 -1.6667  0.4671
 6115TIP3    H239837   3.493   5.133   4.098 -0.2747  0.0360 -0.4332
 6116TIP3   OH239838   2.561   4.185   0.590 -0.0621  0.1212 -0.1191
 6116TIP3    H139839   2.510   4.108   0.615 -1.5781 -0.2062 -3.6774
 6116TIP3    H239840   2.515   4.259   0.631 -0.6103 -0.5578  0.5209
 6117TIP3   OH239841   0.908   1.440  10.776 -0.2591 -0.1951  0.0128
 6117TIP3    H139842   0.819   1.411  10.798  0.3938 -0.8845  2.0300
 6117TIP3    H239843   0.896   1.509  10.711 -2.2097 -0.9139 -0.4545
 6118TIP3   OH239844   2.082   5.603   2.290  0.4095 -0.1758 -0.0060
 6118TIP3    H139845   2.084   5.515   2.253  0.2729 -0.7392  1.2679
 6118TIP3    H239846   2.026   5.653   2.231  0.0325 -1.0960 -0.4435
 6119TIP3   OH239847   6.094   2.174   2.755  0.4485 -0.3419 -0.1094
 6119TIP3    H139848   6.143   2.215   2.826  0.1574 -1.2669  0.6531
 6119TIP3    H239849   6.065   2.090   2.792 -1.6883  0.1502 -0.5234
 6120TIP3   OH239850   5.781   5.264   6.163 -0.6675 -0.2066 -0.1266
 6120TIP3    H139851   5.720   5.330   6.195  0.2618 -0.4806  2.4301
 6120TIP3    H239852   5.861   5.313   6.143 -0.7378 -0.2541 -0.5356
 6121TIP3   OH239853   4.424   2.381  16.852 -0.1243 -0.2600  0.3159
 6121TIP3    H139854   4.455   2.370  16.762  0.2204 -0.3176  0.4391
 6121TIP3    H239855   4.411   2.292  16.885  0.1405 -0.2485  0.4552
 6122TIP3   OH239856   4.877   4.474   2.616 -0.7633 -0.2021  0.2043
 6122TIP3    H139857   4.899   4.399   2.672 -1.9686  1.5143  3.2209
 6122TIP3    H239858   4.952   4.533   2.625 -1.2640  0.3866  0.6199
 6123TIP3   OH239859   3.548   0.165  10.246 -0.4795  0.3262 -0.1456
 6123TIP3    H139860   3.483   0.095  10.251  1.5253 -1.9349 -2.3470
 6123TIP3    H239861   3.632   0.119  10.255  0.9038  2.6504 -0.5260
 6124TIP3   OH239862   4.281   5.458  11.831  0.1993  0.1348  0.5671
 6124TIP3    H139863   4.332   5.536  11.809  0.9030 -0.5334 -0.2477
 6124TIP3    H239864   4.326   5.421  11.908  0.7760 -0.2827  0.0390
 6125TIP3   OH239865   1.792   3.052   4.129  0.1951  0.2407  0.2476
 6125TIP3    H139866   1.759   3.139   4.152  0.5438  0.2582  0.6908
 6125TIP3    H239867   1.728   2.991   4.167 -0.9759  0.3115 -1.4986
 6126TIP3   OH239868   5.520   1.114   5.845 -0.4396 -0.3908 -0.1464
 6126TIP3    H139869   5.573   1.173   5.793 -0.0170 -1.8136 -1.4160
 6126TIP3    H239870   5.533   1.028   5.804 -0.8232 -1.4157  1.7637
 6127TIP3   OH239871   1.714   5.068   1.349 -0.0674 -0.0957 -0.0984
 6127TIP3    H139872   1.636   5.045   1.399 -0.0400 -2.5115 -1.0272
 6127TIP3    H239873   1.782   5.084   1.415 -1.2091  1.7663  0.7052
 6128TIP3   OH239874   2.339   3.606   3.501  0.3668 -0.3811 -0.0484
 6128TIP3    H139875   2.368   3.681   3.553  1.2823 -0.8370  0.1168
 6128TIP3    H239876   2.387   3.614   3.419  0.3527 -0.7027 -0.0878
 6129TIP3   OH239877   3.486   3.219   1.093  0.7122 -0.2640 -0.1583
 6129TIP3    H139878   3.503   3.310   1.068  1.6602  0.5862  3.1386
 6129TIP3    H239879   3.453   3.179   1.012  2.2101  2.4242 -2.3105
 6130TIP3   OH239880   0.061   1.675  10.728  0.2414  1.0289 -0.4116
 6130TIP3    H139881   0.038   1.596  10.776  2.9442  1.1838  1.3581
 6130TIP3    H239882  -0.001   1.741  10.758  0.6461  0.6081  1.4416
 6131TIP3   OH239883   6.341   0.249  16.154 -0.1387  0.4122  0.1352
 6131TIP3    H139884   6.344   0.189  16.079  0.9794 -0.3660  0.7692
 6131TIP3    H239885   6.250   0.279  16.157 -0.0187  1.2191 -2.1015
 6132TIP3   OH239886   0.254   2.841  11.539  0.0124 -0.8319  0.1758
 6132TIP3    H139887   0.249   2.937  11.537  0.9301 -0.7013  2.1424
 6132TIP3    H239888   0.204   2.813  11.462  0.5072  1.2321 -0.9710
 6133TIP3   OH239889   3.702   4.289   3.566  0.1659 -0.4227  0.1691
 6133TIP3    H139890   3.654   4.309   3.646 -0.3699 -0.1866 -0.2108
 6133TIP3    H239891   3.637   4.252   3.507  0.6016 -0.7830 -0.0900
 6134TIP3   OH239892   3.709   2.937  16.729  0.0759 -0.3700 -0.7032
 6134TIP3    H139893   3.656   2.941  16.809 -0.3639  0.4247 -1.0241
 6134TIP3    H239894   3.682   2.855  16.687 -1.0029  0.0714 -0.9180
 6135TIP3   OH239895   6.240   1.864   4.472  0.5701  0.1090 -0.5770
 6135TIP3    H139896   6.321   1.896   4.513  0.0493  0.8407 -0.0882
 6135TIP3    H239897   6.250   1.883   4.379  2.2350 -2.5365 -1.0592
 6136TIP3   OH239898   5.972   3.107   1.415 -0.0431  0.7684 -0.9584
 6136TIP3    H139899   5.933   3.127   1.500  1.3547  1.1329 -0.3746
 6136TIP3    H239900   5.906   3.134   1.351 -1.8862 -1.1955  0.0007
 6137TIP3   OH239901   1.609   0.939   3.479  0.6577  0.3555 -0.5559
 6137TIP3    H139902   1.600   0.881   3.403  1.4118  0.1592 -0.5036
 6137TIP3    H239903   1.658   0.887   3.542  0.3081  0.6330 -0.0486
 6138TIP3   OH239904   0.096   2.128  16.876  0.7268  0.0560  0.0950
 6138TIP3    H139905   0.027   2.130  16.943  1.8032  0.5137  1.2226
 6138TIP3    H239906   0.170   2.084  16.919  1.1474 -0.4306 -1.0961
 6139TIP3   OH239907   2.643   6.474   5.069 -0.7084 -0.0374 -0.2327
 6139TIP3    H139908   2.665   6.384   5.093 -0.9029 -0.0274 -0.0114
 6139TIP3    H239909   2.645   6.522   5.152  1.5876  0.6389 -0.6048
 6140TIP3   OH239910   4.732   4.528  16.256 -0.8400  0.1729 -0.3054
 6140TIP3    H139911   4.788   4.451  16.248 -1.6536 -0.2845 -2.4471
 6140TIP3    H239912   4.787   4.595  16.296  0.2261 -1.1916  0.5682
 6141TIP3   OH239913   5.301   2.864   5.100 -0.0665 -0.4197 -0.0389
 6141TIP3    H139914   5.271   2.776   5.077  1.4223 -1.1213  0.5501
 6141TIP3    H239915   5.320   2.859   5.194  0.1636  0.4972 -0.0283
 6142TIP3   OH239916   4.497   6.055  13.185 -0.2153  0.2464 -0.8640
 6142TIP3    H139917   4.577   6.004  13.186 -0.4869 -0.1860  0.3414
 6142TIP3    H239918   4.520   6.136  13.230 -0.9421 -0.7070  1.3408
 6143TIP3   OH239919   5.729   4.102   2.646 -0.1813 -0.1824  0.0432
 6143TIP3    H139920   5.748   4.147   2.564 -0.6734 -1.8535 -1.0191
 6143TIP3    H239921   5.769   4.016   2.636 -0.1728 -0.3933  1.6082
 6144TIP3   OH239922   5.154   2.356  16.615 -0.0549  0.3903  0.7311
 6144TIP3    H139923   5.231   2.306  16.644 -0.5641 -0.7583  0.1828
 6144TIP3    H239924   5.178   2.390  16.529 -0.6930 -1.3516 -0.1968
 6145TIP3   OH239925   4.049   5.197   5.462 -0.0380 -0.2738  0.4432
 6145TIP3    H139926   4.064   5.185   5.556 -0.1362 -2.3468  0.2330
 6145TIP3    H239927   3.955   5.211   5.454  0.2014  2.0639  0.7830
 6146TIP3   OH239928   2.844   6.093  12.312  0.5391  0.3123 -0.3022
 6146TIP3    H139929   2.748   6.092  12.316  0.5179  0.8819 -0.4824
 6146TIP3    H239930   2.864   6.149  12.237  1.0147 -0.0652 -0.4647
 6147TIP3   OH239931   0.527   1.885   5.908  0.1256 -0.3471  1.4257
 6147TIP3    H139932   0.556   1.822   5.842 -0.5805 -0.3436  1.1074
 6147TIP3    H239933   0.532   1.836   5.991  1.2928 -0.2591  1.4201
 6148TIP3   OH239934   1.399   2.641   1.470  0.1196 -0.0714  0.0641
 6148TIP3    H139935   1.454   2.716   1.491  3.2899 -2.1489 -0.1642
 6148TIP3    H239936   1.310   2.675   1.473  1.3435  3.4771  0.6921
 6149TIP3   OH239937   1.618   3.442   0.630 -0.2870  0.1960 -0.2907
 6149TIP3    H139938   1.643   3.532   0.609 -0.1728  0.0008 -1.0130
 6149TIP3    H239939   1.590   3.446   0.722  3.2699  0.2535  0.9259
 6150TIP3   OH239940   4.203   1.394   2.682 -0.3222  0.1325 -0.2879
 6150TIP3    H139941   4.116   1.364   2.709 -1.0163  1.4355 -0.9734
 6150TIP3    H239942   4.264   1.331   2.722 -1.3787  0.7602  2.5396
 6151TIP3   OH239943   1.643   0.415   5.965 -0.4853  0.4256  0.0546
 6151TIP3    H139944   1.734   0.445   5.963 -0.4532  0.3123 -1.5445
 6151TIP3    H239945   1.645   0.337   6.020  0.1213  1.1692  1.1439
 6152TIP3   OH239946   5.397   3.627  16.408  0.2727 -0.2163 -0.3980
 6152TIP3    H139947   5.451   3.685  16.354  2.5004  0.3182  2.2021
 6152TIP3    H239948   5.308   3.659  16.395  0.9225  0.9902 -2.3374
 6153TIP3   OH239949   4.501   3.338  15.018  0.0658  0.6049 -0.2980
 6153TIP3    H139950   4.410   3.365  15.012 -0.3007 -0.5113 -0.0565
 6153TIP3    H239951   4.524   3.347  15.110  0.1768  0.8162 -0.3461
 6154TIP3   OH239952   4.042   6.006  16.924 -0.3262 -0.3104 -0.3239
 6154TIP3    H139953   4.062   6.046  17.008  2.0635 -0.4908 -0.7365
 6154TIP3    H239954   4.022   5.914  16.944 -1.5973  0.0649  0.1958
 6155TIP3   OH239955   4.082   5.943  10.450 -0.4095 -0.4917  0.0854
 6155TIP3    H139956   4.046   5.991  10.525 -1.7914 -0.6946 -0.4217
 6155TIP3    H239957   4.174   5.970  10.446 -0.3799 -0.2592  1.6699
 6156TIP3   OH239958   4.499   2.650  11.821  0.5539  0.4876 -0.0364
 6156TIP3    H139959   4.529   2.648  11.912 -0.3750  0.7634  0.2889
 6156TIP3    H239960   4.450   2.733  11.814  0.1339  0.1979 -0.6235
 6157TIP3   OH239961   0.002   5.746  14.157  0.1122  0.2199 -0.1411
 6157TIP3    H139962   0.019   5.829  14.201  0.0814  0.9792 -1.4977
 6157TIP3    H239963   0.072   5.739  14.092  0.2211 -0.9144  0.0839
 6158TIP3   OH239964   2.331   0.852  16.207 -0.0715 -0.8817 -0.2876
 6158TIP3    H139965   2.287   0.926  16.165 -2.1662 -2.0874 -0.3386
 6158TIP3    H239966   2.407   0.835  16.151  0.1690  0.8741 -0.5511
 6159TIP3   OH239967   3.981   5.069   4.787  0.4957  0.1078 -0.0175
 6159TIP3    H139968   4.048   5.100   4.847  0.8405 -0.3339 -0.1671
 6159TIP3    H239969   3.906   5.126   4.803  0.9746  0.7394 -0.0014
 6160TIP3   OH239970   2.924   3.667  11.237  0.1249 -0.2999 -0.3491
 6160TIP3    H139971   2.880   3.648  11.320  0.2903  0.6892 -0.0190
 6160TIP3    H239972   2.878   3.614  11.172 -0.2611 -0.7871  0.3104
 6161TIP3   OH239973   2.495   0.469  16.581 -0.8508 -0.3683  0.0025
 6161TIP3    H139974   2.546   0.425  16.513  0.4963  0.4569  0.4428
 6161TIP3    H239975   2.415   0.418  16.587  0.7407 -2.9516  0.6827
 6162TIP3   OH239976   1.511   0.187  11.392  0.5339  0.3004 -0.0014
 6162TIP3    H139977   1.550   0.211  11.308  0.2559  1.1792  0.1064
 6162TIP3    H239978   1.488   0.271  11.433  0.4883 -0.1206  0.8677
 6163TIP3   OH239979   4.145   3.226  16.165 -0.4629  0.1862  0.0870
 6163TIP3    H139980   4.080   3.188  16.223 -0.6898  1.6331  0.8363
 6163TIP3    H239981   4.110   3.312  16.143  1.5950  1.4463  1.3225
 6164TIP3   OH239982   1.200   2.881   0.104  0.2009  0.6824  0.5756
 6164TIP3    H139983   1.170   2.819   0.171  0.5513 -0.2851 -0.1451
 6164TIP3    H239984   1.294   2.889   0.120  0.1761  0.9320  0.5894
 6165TIP3   OH239985   0.902   3.493  11.551 -0.5683  0.2100 -0.4609
 6165TIP3    H139986   0.947   3.489  11.635 -0.4941  3.3057 -0.2228
 6165TIP3    H239987   0.822   3.442  11.563 -0.5341  0.5474  1.4851
 6166TIP3   OH239988   1.365   5.599  13.023  0.4025  0.5715 -0.1312
 6166TIP3    H139989   1.428   5.666  13.048  1.0044  0.1759 -0.5530
 6166TIP3    H239990   1.369   5.534  13.093  1.8695 -0.3892 -1.0610
 6167TIP3   OH239991   4.237   6.708   3.544 -0.5516 -0.0927 -0.3208
 6167TIP3    H139992   4.210   6.791   3.582  0.2925  0.8041 -1.5795
 6167TIP3    H239993   4.159   6.653   3.548 -1.2577  0.9145  0.1440
 6168TIP3   OH239994   4.522   2.166   4.821 -0.3017 -0.1869 -0.2851
 6168TIP3    H139995   4.438   2.120   4.827 -1.6182  2.0012 -0.7160
 6168TIP3    H239996   4.543   2.166   4.728 -0.1650 -0.1543 -0.2545
 6169TIP3   OH239997   6.754   0.274   1.997 -0.1234  0.2038  0.1390
 6169TIP3    H139998   6.693   0.239   2.062  0.0640 -0.2310  0.0886
 6169TIP3    H239999   6.804   0.341   2.044  0.4509 -0.5516  0.6375
 6170TIP3   OH240000   2.228   3.762   6.275  0.1472 -0.3995  0.0088
 6170TIP3    H140001   2.297   3.723   6.221 -0.8931  1.3805 -2.7835
 6170TIP3    H240002   2.271   3.834   6.321  0.4121 -0.0646 -0.7636
 6171TIP3   OH240003   6.631   4.839   5.316  0.9563  0.0903 -0.0609
 6171TIP3    H140004   6.638   4.819   5.222 -0.7232 -1.3761  0.0667
 6171TIP3    H240005   6.690   4.775   5.358 -0.2802 -1.0437  0.0088
 6172TIP3   OH240006   2.321   2.300   0.302  0.1045 -0.1978 -0.1202
 6172TIP3    H140007   2.262   2.299   0.377 -2.4927 -0.3686 -2.0357
 6172TIP3    H240008   2.385   2.231   0.321 -1.1140 -0.9530  1.4702
 6173TIP3   OH240009   0.096   6.776   1.654  1.1283  0.3585 -0.5411
 6173TIP3    H140010   0.046   6.823   1.720  0.5623  1.5185 -1.7626
 6173TIP3    H240011   0.172   6.741   1.702 -0.4237 -0.8109  1.1825
 6174TIP3   OH240012   2.703   1.091  11.736  0.0739  0.4836  0.7875
 6174TIP3    H140013   2.666   1.171  11.774 -0.7686  1.0452 -1.1057
 6174TIP3    H240014   2.787   1.080  11.782  0.0228  2.2199  1.3892
 6175TIP3   OH240015   6.415   5.978  14.980  0.4320 -0.1754 -0.1892
 6175TIP3    H140016   6.342   5.919  14.994 -0.9297  1.4828  0.0044
 6175TIP3    H240017   6.425   5.982  14.884 -0.2660  0.1849 -0.2546
 6176TIP3   OH240018   0.011   3.037   4.182 -0.5422 -0.2133 -0.8802
 6176TIP3    H140019  -0.021   3.022   4.271 -0.2321 -0.6679 -0.8428
 6176TIP3    H240020  -0.069   3.041   4.129 -0.7718  0.7332 -0.4981
 6177TIP3   OH240021   4.816   2.967   2.242  0.5416  0.1407  0.1849
 6177TIP3    H140022   4.724   2.946   2.253  0.3122  1.0995  0.2016
 6177TIP3    H240023   4.854   2.952   2.329 -0.2546  2.7531  1.0910
 6178TIP3   OH240024   0.916   5.131  15.874  0.5781  0.0368  0.4932
 6178TIP3    H140025   1.004   5.118  15.908  1.9815  1.0503 -2.4616
 6178TIP3    H240026   0.881   5.203  15.926  2.1962  0.8305  0.5427
 6179TIP3   OH240027   4.841   1.570   0.066 -0.9752  0.0894 -0.7043
 6179TIP3    H140028   4.836   1.515  -0.012 -1.3384  1.3932 -1.6467
 6179TIP3    H240029   4.760   1.621   0.065 -0.6217  0.6993  0.0773
 6180TIP3   OH240030   6.760   1.778   5.023  0.5855  0.1550 -0.6175
 6180TIP3    H140031   6.845   1.734   5.015 -0.1570 -1.5420  0.2442
 6180TIP3    H240032   6.781   1.865   5.055  2.1939  0.8997 -3.3908
 6181TIP3   OH240033   6.354   0.303   6.680 -0.0992 -0.2073 -0.2675
 6181TIP3    H140034   6.323   0.380   6.727 -0.7325 -0.8230  0.3355
 6181TIP3    H240035   6.416   0.262   6.739 -0.2718 -0.5281 -0.3053
 6182TIP3   OH240036   0.096   3.797  15.562 -0.4384  0.7658  0.3643
 6182TIP3    H140037   0.062   3.708  15.554  1.4497  0.0229  0.1775
 6182TIP3    H240038   0.027   3.845  15.608 -0.6018 -1.3465  2.5334
 6183TIP3   OH240039   6.331   3.396   0.009  0.1658 -0.3727  0.4063
 6183TIP3    H140040   6.322   3.490   0.027  1.8312 -0.0149 -0.4855
 6183TIP3    H240041   6.248   3.358   0.040 -1.2808  1.6094 -0.7784
 6184TIP3   OH240042   4.227   2.562  14.119  0.0466 -0.5570  0.2704
 6184TIP3    H140043   4.198   2.646  14.154  0.4075 -0.0304 -0.6599
 6184TIP3    H240044   4.288   2.528  14.185 -1.3925 -0.9168  1.4680
 6185TIP3   OH240045   6.466   0.724   0.976  0.3438  0.3423  0.0454
 6185TIP3    H140046   6.448   0.649   1.032 -3.3496  0.7948 -0.2745
 6185TIP3    H240047   6.506   0.788   1.034  1.5445 -1.0627  0.8255
 6186TIP3   OH240048   3.189   3.952  14.062  0.2154  0.4675 -0.3311
 6186TIP3    H140049   3.148   4.019  14.006 -0.2147 -0.1556 -0.7740
 6186TIP3    H240050   3.267   3.995  14.097  1.1399  0.5402 -2.3213
 6187TIP3   OH240051   4.630   4.201  15.229  0.1199 -0.0570 -0.1079
 6187TIP3    H140052   4.566   4.218  15.299  0.0777  3.2230 -0.7905
 6187TIP3    H240053   4.579   4.159  15.160 -0.8707  0.7579  0.1052
 6188TIP3   OH240054   2.253   5.804  16.080  0.0479  0.3713  0.2367
 6188TIP3    H140055   2.173   5.834  16.037  0.5504 -1.7821 -2.4341
 6188TIP3    H240056   2.222   5.750  16.153 -0.9373 -0.0368 -0.4673
 6189TIP3   OH240057   3.746   0.137  12.151 -0.1239 -0.2294  0.0385
 6189TIP3    H140058   3.781   0.220  12.185 -0.5376 -0.5185  1.2021
 6189TIP3    H240059   3.804   0.116  12.077  1.0925  0.1761  0.8403
 6190TIP3   OH240060   6.078   6.552  11.732  0.2487 -0.3422 -0.1692
 6190TIP3    H140061   6.126   6.590  11.657 -0.7039  0.3734 -0.4352
 6190TIP3    H240062   6.077   6.622  11.797 -2.3573  0.5350 -1.0253
 6191TIP3   OH240063   3.227   4.716   1.245 -0.4671 -0.0279 -0.1751
 6191TIP3    H140064   3.264   4.793   1.203 -1.4255  0.9518  0.7201
 6191TIP3    H240065   3.167   4.751   1.311  1.5298 -1.4665  2.5883
 6192TIP3   OH240066   6.685   0.743  11.252  0.0310 -0.1731 -0.2447
 6192TIP3    H140067   6.680   0.792  11.170 -2.4880  0.5420  0.2377
 6192TIP3    H240068   6.606   0.689  11.252  0.4945 -0.9153  1.2814
 6193TIP3   OH240069   6.507   5.101   4.788  0.1088  0.0484  0.2043
 6193TIP3    H140070   6.569   5.171   4.766  0.0341  0.3097  0.8109
 6193TIP3    H240071   6.446   5.100   4.714  0.2771  0.4349  0.0566
 6194TIP3   OH240072   0.452   0.363   1.879 -0.2257 -0.1651  0.4823
 6194TIP3    H140073   0.506   0.442   1.871 -1.3060  0.4025 -2.5794
 6194TIP3    H240074   0.512   0.297   1.916  1.8867  1.0555 -0.5560
 6195TIP3   OH240075   3.861   6.037   0.241 -0.6456  0.3444  0.5366
 6195TIP3    H140076   3.788   6.026   0.181 -0.8288  1.5869  0.5149
 6195TIP3    H240077   3.902   6.119   0.214  1.4912 -0.8942 -0.2184
 6196TIP3   OH240078   0.577   3.917   3.110 -0.2333 -0.0808 -0.2821
 6196TIP3    H140079   0.586   3.864   3.189  0.3700  0.4328  0.0037
 6196TIP3    H240080   0.591   3.855   3.038 -2.0781 -0.8204 -0.0627
 6197TIP3   OH240081   6.108   0.222   5.455  0.6157  0.1553 -0.2179
 6197TIP3    H140082   6.012   0.223   5.457  0.5126 -0.7794 -2.2705
 6197TIP3    H240083   6.132   0.315   5.449 -0.0207  0.5506  2.1917
 6198TIP3   OH240084   6.472   0.771   5.341  0.7028  0.1487  0.2873
 6198TIP3    H140085   6.417   0.841   5.305  0.0534  0.0475  1.0738
 6198TIP3    H240086   6.495   0.800   5.429  1.9255  0.1860 -0.0185
 6199TIP3   OH240087   6.075   4.171  16.574 -0.0874  0.7945 -0.1858
 6199TIP3    H140088   5.982   4.151  16.565  0.0589  0.2811 -0.5778
 6199TIP3    H240089   6.080   4.224  16.654 -0.6813  0.6223 -0.0298
 6200TIP3   OH240090   5.018   4.368  15.155 -0.2523  0.2036  0.2372
 6200TIP3    H140091   5.028   4.399  15.065 -1.3421 -1.4143 -0.4924
 6200TIP3    H240092   5.091   4.408  15.202 -1.1488  3.2878 -0.6980
 6201TIP3   OH240093   0.263   4.574  11.412  0.1683  0.7452 -0.6022
 6201TIP3    H140094   0.280   4.582  11.319 -0.7039  1.5977 -0.6997
 6201TIP3    H240095   0.331   4.627  11.454  0.9740 -0.1884 -0.7075
 6202TIP3   OH240096   5.684   3.615  13.106  0.2807 -0.4936  0.0604
 6202TIP3    H140097   5.718   3.700  13.136  1.0508 -0.6968 -0.1962
 6202TIP3    H240098   5.611   3.637  13.049  1.3427  0.0805 -1.1267
 6203TIP3   OH240099   1.034   0.736  14.894 -0.4498  0.2032 -0.3234
 6203TIP3    H140100   1.047   0.641  14.899 -1.0491  0.1776  0.8995
 6203TIP3    H240101   1.117   0.773  14.925 -0.9715  0.0520  1.3379
 6204TIP3   OH240102   6.356   3.134  12.097 -0.0846 -0.4211  0.2004
 6204TIP3    H140103   6.272   3.148  12.053 -0.2776 -0.9712  0.3864
 6204TIP3    H240104   6.404   3.075  12.039 -0.1399 -0.7427  0.4782
 6205TIP3   OH240105   1.751   5.500  12.350 -0.0119  0.5186 -0.0236
 6205TIP3    H140106   1.838   5.497  12.390 -0.5785  1.0113  1.2913
 6205TIP3    H240107   1.764   5.462  12.263  1.4023  0.0644  0.3520
 6206TIP3   OH240108   0.594   0.149   1.990  0.0287  0.6354 -0.2854
 6206TIP3    H140109   0.685   0.120   1.998 -0.9606 -4.4753 -3.1374
 6206TIP3    H240110   0.557   0.137   2.077  1.0629 -2.0815 -0.1389
 6207TIP3   OH240111   1.797   6.554   0.100 -0.0988  0.7126 -0.1966
 6207TIP3    H140112   1.799   6.546   0.195  1.4065  2.1676 -0.0546
 6207TIP3    H240113   1.838   6.473   0.068  0.3349  0.6712  0.4473
 6208TIP3   OH240114   2.041   6.607   3.214  0.2991 -0.2736 -0.3099
 6208TIP3    H140115   1.960   6.610   3.165 -0.1809  0.6566  0.5044
 6208TIP3    H240116   2.075   6.519   3.199  0.5684  0.2072 -2.8845
 6209TIP3   OH240117   0.680   5.870  15.430 -0.3722 -0.6383 -0.1002
 6209TIP3    H140118   0.756   5.825  15.467 -1.0317 -1.1222  0.6919
 6209TIP3    H240119   0.621   5.884  15.504 -1.3170 -0.7841 -0.8008
 6210TIP3   OH240120   2.502   0.706  13.448 -0.0572 -0.2946  0.0401
 6210TIP3    H140121   2.420   0.683  13.405 -0.3180  0.0343  0.3515
 6210TIP3    H240122   2.564   0.720  13.376 -0.8100  1.4922 -0.3213
 6211TIP3   OH240123   4.543   2.467   2.493 -0.4491 -0.7427 -0.3194
 6211TIP3    H140124   4.561   2.374   2.482 -0.6944 -0.9731  1.0316
 6211TIP3    H240125   4.621   2.503   2.536  0.1396 -0.0644 -1.8918
 6212TIP3   OH240126   4.057   4.160   2.620 -0.1223  0.0626  0.0308
 6212TIP3    H140127   4.038   4.132   2.710 -0.3096  0.4620  0.1159
 6212TIP3    H240128   4.142   4.203   2.626  1.0800 -2.0685 -0.4146
 6213TIP3   OH240129   0.575   2.994  12.703  0.3122 -0.8788  0.4475
 6213TIP3    H140130   0.631   3.043  12.643 -0.5506 -1.0385 -0.5030
 6213TIP3    H240131   0.487   3.000  12.665 -0.3425 -0.6227  1.9117
 6214TIP3   OH240132   3.818   5.488   2.123  0.6140  0.2282  0.0721
 6214TIP3    H140133   3.870   5.520   2.197 -0.1295 -0.8308  1.0727
 6214TIP3    H240134   3.789   5.401   2.149 -0.8988  0.4187 -0.8481
 6215TIP3   OH240135   2.574   2.154   0.250  0.2400  0.3651 -0.3524
 6215TIP3    H140136   2.628   2.187   0.322 -0.7309 -1.0073  1.0684
 6215TIP3    H240137   2.562   2.061   0.270 -1.6160  0.3675 -1.2678
 6216TIP3   OH240138   4.234   5.462  14.961 -0.1431 -0.4639  0.1694
 6216TIP3    H140139   4.313   5.516  14.966 -0.5871  0.5909 -2.6513
 6216TIP3    H240140   4.171   5.506  15.018  0.6905 -0.2724  0.9800
 6217TIP3   OH240141   0.634   2.577  16.161 -0.0353  0.2315 -0.5591
 6217TIP3    H140142   0.582   2.654  16.183  1.4845  0.5990  2.1007
 6217TIP3    H240143   0.685   2.604  16.084 -2.3706  0.4431 -2.1354
 6218TIP3   OH240144   0.444   4.587   3.933  0.5753 -0.4040  0.1652
 6218TIP3    H140145   0.423   4.496   3.952  0.3817 -0.7322 -1.4228
 6218TIP3    H240146   0.403   4.604   3.848  1.7598  0.7302 -0.2288
 6219TIP3   OH240147   3.046   3.689  14.436  0.0315 -0.6586  0.5463
 6219TIP3    H140148   3.001   3.607  14.420 -0.5048  0.2288 -3.8062
 6219TIP3    H240149   3.135   3.674  14.405  1.1641 -0.6259  3.4661
 6220TIP3   OH240150   1.135   5.830  13.175 -0.3065 -0.3662 -0.4847
 6220TIP3    H140151   1.139   5.873  13.090  0.2990  1.3730  0.3695
 6220TIP3    H240152   1.172   5.894  13.236 -0.0108 -1.8648  0.9777
 6221TIP3   OH240153   1.266   1.435  12.107  0.6531  0.1415  0.4244
 6221TIP3    H140154   1.297   1.446  12.016  0.6933  0.8029  0.5136
 6221TIP3    H240155   1.319   1.363  12.141 -0.5218 -1.2707 -0.5943
 6222TIP3   OH240156   3.066   1.163  14.850 -0.4049 -0.6275 -0.3699
 6222TIP3    H140157   3.158   1.159  14.824 -0.2913 -2.9965  0.2056
 6222TIP3    H240158   3.033   1.074  14.838 -2.1277 -0.2775  1.2263
 6223TIP3   OH240159   0.928   6.819  10.373 -0.3156 -0.0973 -0.1556
 6223TIP3    H140160   0.988   6.841  10.445 -0.8375 -0.1307  0.2955
 6223TIP3    H240161   0.909   6.726  10.385  1.4927 -0.7605 -1.7697
 6224TIP3   OH240162   0.778   3.740  13.637 -0.5847 -0.0438 -0.3985
 6224TIP3    H140163   0.818   3.657  13.663  0.4087  0.4369 -0.3180
 6224TIP3    H240164   0.710   3.715  13.575  0.3714 -0.8755 -1.1648
 6225TIP3   OH240165   0.683   5.763   3.133 -0.1028  0.0526 -0.5416
 6225TIP3    H140166   0.739   5.725   3.200  0.9770 -2.3742 -2.6406
 6225TIP3    H240167   0.714   5.853   3.124  0.7938 -0.0599  1.0565
 6226TIP3   OH240168   0.120   0.516  12.461 -0.1216  0.3918 -0.0167
 6226TIP3    H140169   0.211   0.510  12.491 -0.9886 -0.1043  2.8329
 6226TIP3    H240170   0.096   0.427  12.439  0.1432  0.5678 -1.0565
 6227TIP3   OH240171   6.838   1.443   5.233 -0.3775  0.2386  0.3560
 6227TIP3    H140172   6.879   1.362   5.205 -1.7873 -0.0935 -0.9158
 6227TIP3    H240173   6.882   1.466   5.315  1.1944 -0.8987 -0.1189
 6228TIP3   OH240174   6.053   2.342   1.619 -0.2781  0.3135 -0.2311
 6228TIP3    H140175   6.061   2.377   1.530  0.8722 -1.3259 -0.8224
 6228TIP3    H240176   6.122   2.386   1.669  0.6723 -0.5096 -0.7794
 6229TIP3   OH240177   4.892   4.766  15.235  0.2664  0.7626 -0.2757
 6229TIP3    H140178   4.797   4.775  15.239  0.2081 -0.1958  2.0066
 6229TIP3    H240179   4.908   4.719  15.153 -1.2093  1.0257 -0.7438
 6230TIP3   OH240180   1.209   2.795  15.315  0.2074 -0.1029  0.0134
 6230TIP3    H140181   1.157   2.876  15.318  0.7347  0.2884 -1.0005
 6230TIP3    H240182   1.289   2.816  15.364 -0.4077 -0.5992  1.2847
 6231TIP3   OH240183   4.068   3.251  14.459  0.2429 -0.2238 -0.1357
 6231TIP3    H140184   4.051   3.333  14.413 -1.6501  0.1094  1.0364
 6231TIP3    H240185   4.046   3.271  14.551 -0.0316 -1.9723  0.2102
 6232TIP3   OH240186   3.982   0.041   3.237 -0.4914 -0.3008  0.4649
 6232TIP3    H140187   3.935   0.072   3.315 -0.2081  1.8354 -0.1446
 6232TIP3    H240188   4.075   0.045   3.262 -0.1795  3.0405 -0.7159
 6233TIP3   OH240189   3.466   2.478   2.945  0.1182 -0.0782  0.0879
 6233TIP3    H140190   3.413   2.454   3.021 -3.1265  2.4886 -1.1056
 6233TIP3    H240191   3.520   2.551   2.975 -0.1876  0.0878  0.2320
 6234TIP3   OH240192   1.879   0.473  11.921  0.2377  0.0614  0.4593
 6234TIP3    H140193   1.858   0.382  11.941  1.7016 -0.0323  1.7384
 6234TIP3    H240194   1.967   0.470  11.884 -0.0576  0.8897 -0.3660
 6235TIP3   OH240195   2.620   1.720  14.607  0.2780 -0.0114 -0.6933
 6235TIP3    H140196   2.555   1.762  14.551 -1.2108 -0.5581  0.5211
 6235TIP3    H240197   2.608   1.626  14.591  1.1257 -0.1025 -0.8198
 6236TIP3   OH240198   0.178   5.266   5.878 -0.1204 -0.0630 -0.6864
 6236TIP3    H140199   0.231   5.342   5.853 -1.8324  0.7814 -1.9668
 6236TIP3    H240200   0.089   5.291   5.854 -1.1490 -1.3780  1.5296
 6237TIP3   OH240201   3.425   0.351  15.573 -0.3762  0.1866 -0.6478
 6237TIP3    H140202   3.367   0.424  15.593  0.1057  0.3825  0.0645
 6237TIP3    H240203   3.511   0.391  15.560 -0.5494 -0.0014 -2.5837
 6238TIP3   OH240204   6.234   6.302   4.646 -0.0814 -0.5683 -0.6743
 6238TIP3    H140205   6.268   6.222   4.687 -0.8354 -1.0169 -0.9061
 6238TIP3    H240206   6.139   6.293   4.651 -0.1794  0.5041 -0.3522
 6239TIP3   OH240207   4.330   5.119   1.621  0.0548  0.1880  0.2036
 6239TIP3    H140208   4.399   5.182   1.598 -2.4105  2.2477 -2.2619
 6239TIP3    H240209   4.269   5.170   1.675 -2.2922  0.3133 -2.3278
 6240TIP3   OH240210   2.873   1.273   3.902  0.6138 -0.1343 -0.3913
 6240TIP3    H140211   2.882   1.253   3.996  2.3801  0.9673 -0.2667
 6240TIP3    H240212   2.877   1.188   3.859 -0.5815 -0.6906  0.5269
 6241TIP3   OH240213   5.066   3.615   3.713  0.8774 -0.6833  0.3738
 6241TIP3    H140214   5.085   3.705   3.688  2.0802 -0.5160  1.7497
 6241TIP3    H240215   5.042   3.621   3.806 -0.1914 -1.6533  0.1904
 6242TIP3   OH240216   5.368   5.562  14.478 -0.4355 -0.3566  0.6383
 6242TIP3    H140217   5.274   5.563  14.460 -0.0840  1.2592 -1.6545
 6242TIP3    H240218   5.408   5.589  14.395  1.8004  3.2862  2.6029
 6243TIP3   OH240219   5.081   6.308   0.897  0.4700 -0.2773 -0.2711
 6243TIP3    H140220   5.010   6.329   0.958  1.2728  0.0753  0.5745
 6243TIP3    H240221   5.078   6.212   0.889 -0.1730 -0.2542 -0.3375
 6244TIP3   OH240222   5.746   2.380  16.895  0.8425 -0.2470  0.4771
 6244TIP3    H140223   5.759   2.434  16.816  1.2367 -2.6034 -1.1839
 6244TIP3    H240224   5.800   2.422  16.961  1.3755  1.2129 -0.8051
 6245TIP3   OH240225   2.362   3.827   5.589 -0.1573  0.2214  0.7439
 6245TIP3    H140226   2.453   3.856   5.582 -0.4759  1.5951  1.7355
 6245TIP3    H240227   2.319   3.866   5.512  0.0083 -0.0721  0.5032
 6246TIP3   OH240228   5.391   6.658   5.977  0.7118 -0.6580 -0.0118
 6246TIP3    H140229   5.334   6.734   5.990  0.0253 -0.9483 -1.2102
 6246TIP3    H240230   5.425   6.639   6.065  0.5176  0.7236  0.3951
 6247TIP3   OH240231   1.440   2.168   5.079  0.3188 -0.2903  0.0801
 6247TIP3    H140232   1.499   2.233   5.042  0.7327  1.6893  3.7653
 6247TIP3    H240233   1.354   2.210   5.077  0.2523 -0.3787  0.7894
 6248TIP3   OH240234   6.347   5.121  14.518  0.3384 -0.2432  0.4113
 6248TIP3    H140235   6.304   5.035  14.523 -0.3903  0.0836 -0.0603
 6248TIP3    H240236   6.429   5.110  14.567 -0.4333 -0.7812  1.6150
 6249TIP3   OH240237   0.623   2.416  14.146  0.2154  0.4493 -0.2922
 6249TIP3    H140238   0.681   2.340  14.156  1.2735  1.2102 -0.4689
 6249TIP3    H240239   0.537   2.378  14.128  0.8924 -0.7060 -1.2570
 6250TIP3   OH240240   6.064   0.160   6.554  0.1352 -0.6933 -0.6148
 6250TIP3    H140241   6.076   0.251   6.581  1.5971 -0.0923 -3.0171
 6250TIP3    H240242   6.121   0.109   6.611 -2.3421 -0.5114  2.2804
 6251TIP3   OH240243   3.798   2.902   2.668  0.1446 -0.2481 -0.2291
 6251TIP3    H140244   3.781   2.965   2.738  1.7125  1.2694 -1.1132
 6251TIP3    H240245   3.882   2.930   2.631  0.3458 -2.2190 -1.4028
 6252TIP3   OH240246   3.994   0.216   0.810  0.2296 -0.6140 -0.1246
 6252TIP3    H140247   3.972   0.174   0.893 -0.8462  0.3702  0.1104
 6252TIP3    H240248   4.014   0.143   0.751 -0.0541 -1.3710  0.6870
 6253TIP3   OH240249   0.415   2.829  16.856  0.2494  0.7411  0.0559
 6253TIP3    H140250   0.507   2.805  16.870 -0.3024 -1.8966 -0.1751
 6253TIP3    H240251   0.392   2.880  16.934  1.1196 -1.2403  1.7395
 6254TIP3   OH240252   4.838   2.499   0.233 -0.3542  0.2429  0.7748
 6254TIP3    H140253   4.810   2.450   0.310 -0.2032 -0.7853  0.1976
 6254TIP3    H240254   4.933   2.506   0.242 -0.2853 -0.2605  0.4725
 6255TIP3   OH240255   4.322   2.694   0.336  0.5403  0.5527 -0.8747
 6255TIP3    H140256   4.309   2.611   0.383 -0.6079 -0.2147 -2.4688
 6255TIP3    H240257   4.415   2.695   0.313  0.8645  0.3906  0.3290
 6256TIP3   OH240258   4.594   3.975  10.382 -0.1418  0.0678  0.1026
 6256TIP3    H140259   4.535   4.036  10.425 -1.2168  0.1700 -1.4349
 6256TIP3    H240260   4.588   3.997  10.289 -0.7677 -2.5133 -0.5476
 6257TIP3   OH240261   1.015   2.572   2.362  0.0928 -0.2592 -0.3069
 6257TIP3    H140262   0.953   2.539   2.297 -1.6535 -1.0550  1.6627
 6257TIP3    H240263   1.053   2.493   2.401  0.7816  0.2010 -0.0244
 6258TIP3   OH240264   3.968   0.539   3.299 -0.3063 -0.2808  0.6434
 6258TIP3    H140265   3.892   0.595   3.283 -1.2396 -1.7824 -0.4153
 6258TIP3    H240266   3.941   0.482   3.371  0.5949  0.5077  1.6381
 6259TIP3   OH240267   1.821   6.304   4.463  0.1871  0.5075  0.1552
 6259TIP3    H140268   1.775   6.262   4.536 -0.4144  0.1796 -0.4068
 6259TIP3    H240269   1.890   6.356   4.505  0.2782 -0.2107  0.9206
 6260TIP3   OH240270   0.193   3.017  16.045  0.5613 -0.3173  0.3407
 6260TIP3    H140271   0.134   3.078  16.089  0.7127  0.5963 -0.6613
 6260TIP3    H240272   0.188   2.937  16.096  1.4623  0.9643  2.5954
 6261TIP3   OH240273   6.843   1.451  13.483  0.4271 -0.6894 -0.6141
 6261TIP3    H140274   6.770   1.458  13.544  1.2751 -4.2264  1.0064
 6261TIP3    H240275   6.804   1.414  13.404  0.3835 -2.3617  0.1676
 6262TIP3   OH240276   4.429   0.282  14.689  0.3629  0.9951 -0.4520
 6262TIP3    H140277   4.487   0.336  14.635  0.4373 -0.1021 -1.4951
 6262TIP3    H240278   4.362   0.343  14.720 -0.1935  1.4922 -2.5071
 6263TIP3   OH240279   4.076   0.357  13.574  0.2988  0.2584  0.2036
 6263TIP3    H140280   4.060   0.273  13.531  0.5658  0.6704 -0.7411
 6263TIP3    H240281   4.081   0.337  13.667  3.5102 -1.3294 -0.1870
 6264TIP3   OH240282   0.358   5.105  13.732  0.1512 -0.3295  0.2217
 6264TIP3    H140283   0.277   5.151  13.711  0.0606 -0.3640  0.4824
 6264TIP3    H240284   0.366   5.037  13.665  0.9786  0.9040 -0.9574
 6265TIP3   OH240285   5.199   2.703   4.146  0.7061  0.4477 -0.5690
 6265TIP3    H140286   5.240   2.761   4.210  0.7354  0.0389 -0.2076
 6265TIP3    H240287   5.270   2.678   4.087  1.2673 -1.1288  0.6967
 6266TIP3   OH240288   0.963   6.509  12.964  0.5854  0.3571 -0.5193
 6266TIP3    H140289   0.956   6.414  12.957  3.8341 -0.1797  1.3246
 6266TIP3    H240290   0.881   6.537  13.005 -0.0082 -1.7810 -0.1497
 6267TIP3   OH240291   5.651   0.603  11.662  1.0859 -0.1305  0.6646
 6267TIP3    H140292   5.567   0.590  11.707  0.4213 -2.0861 -0.9831
 6267TIP3    H240293   5.644   0.549  11.583  3.0540  1.4031 -0.6518
 6268TIP3   OH240294   5.772   1.674  12.872 -0.3634  0.2976 -0.6600
 6268TIP3    H140295   5.709   1.664  12.801 -0.1386 -0.2774 -0.7840
 6268TIP3    H240296   5.730   1.734  12.933 -0.6993  0.5350 -1.1142
 6269TIP3   OH240297   1.998   4.331  15.871 -0.2349 -0.1574 -0.8832
 6269TIP3    H140298   1.989   4.422  15.844  2.0637  0.1724 -0.7589
 6269TIP3    H240299   1.976   4.280  15.792  1.3139  0.6266 -1.8626
 6270TIP3   OH240300   2.394   4.081  16.265  0.2033  0.2174 -0.2370
 6270TIP3    H140301   2.359   4.020  16.331  1.0600  0.2120  0.2213
 6270TIP3    H240302   2.478   4.043  16.240  0.0897  0.4655 -1.0091
 6271TIP3   OH240303   3.319   1.775  13.126  1.4237 -0.0616 -0.3905
 6271TIP3    H140304   3.388   1.747  13.066  2.5625  2.3024 -0.2872
 6271TIP3    H240305   3.364   1.796  13.207  0.2408 -0.6896  0.4640
 6272TIP3   OH240306   5.125   4.385  12.391 -0.2378  0.4142  0.4285
 6272TIP3    H140307   5.083   4.333  12.323 -0.7719  0.4970  0.6905
 6272TIP3    H240308   5.216   4.395  12.361 -0.2509 -0.2677  0.1548
 6273TIP3   OH240309   4.790   4.673  12.829  0.0769  0.0346  0.1199
 6273TIP3    H140310   4.739   4.659  12.749  0.0414  0.4598  0.0678
 6273TIP3    H240311   4.852   4.742  12.806 -1.7329  2.1732  1.2444
 6274TIP3   OH240312   0.446   0.677   6.310  0.0319 -0.2893 -0.0932
 6274TIP3    H140313   0.392   0.753   6.288  1.3111  0.6781  0.0100
 6274TIP3    H240314   0.384   0.604   6.313 -1.6335  1.0737  1.9219
 6275TIP3   OH240315   6.129   3.782  11.861 -0.1973 -0.4730 -0.3172
 6275TIP3    H140316   6.148   3.856  11.804  1.0413 -0.8220 -0.3918
 6275TIP3    H240317   6.071   3.726  11.809  0.8458 -0.7437 -1.2220
 6276TIP3   OH240318   5.570   3.817   4.768 -0.1008 -0.1242 -0.0926
 6276TIP3    H140319   5.569   3.722   4.780 -0.0797 -0.3768 -1.8592
 6276TIP3    H240320   5.481   3.838   4.740  0.5159 -0.0185 -2.1401
 6277TIP3   OH240321   0.937   1.815  16.567  0.0713  0.1928 -0.0810
 6277TIP3    H140322   0.958   1.890  16.623  0.0599 -0.6646  1.1133
 6277TIP3    H240323   0.948   1.847  16.478 -0.6850  1.8335  0.3858
 6278TIP3   OH240324   3.869   4.629   3.339  0.0335  0.6505 -0.3537
 6278TIP3    H140325   3.914   4.707   3.373  0.1483  1.1254 -1.5481
 6278TIP3    H240326   3.896   4.624   3.247 -0.7257 -0.2588 -0.5398
 6279TIP3   OH240327   1.763   4.171  13.718  0.3296 -0.3419  0.0164
 6279TIP3    H140328   1.805   4.252  13.690  1.1627 -0.8963 -0.3745
 6279TIP3    H240329   1.770   4.113  13.643  1.7798 -1.5492  1.0126
 6280TIP3   OH240330   3.992   4.884   4.166 -0.4733 -0.2347 -0.0204
 6280TIP3    H140331   4.088   4.882   4.176 -0.5059  1.2072  0.9546
 6280TIP3    H240332   3.969   4.796   4.137  1.0811 -0.8482  0.4901
 6281TIP3   OH240333   5.883   1.295  15.472  1.0155 -0.6453  0.3788
 6281TIP3    H140334   5.908   1.218  15.421  2.6585 -0.3125  0.6296
 6281TIP3    H240335   5.883   1.367  15.409  0.3493 -0.6884  0.3216
 6282TIP3   OH240336   0.310   3.449   3.630 -0.1949  0.3342 -0.2950
 6282TIP3    H140337   0.363   3.383   3.675  1.2637  1.2174 -0.6676
 6282TIP3    H240338   0.222   3.437   3.667  0.5475 -0.1741  1.4453
 6283TIP3   OH240339   5.789   4.527   0.185 -0.1242 -0.3421  0.7927
 6283TIP3    H140340   5.788   4.483   0.100  1.8150  0.8766  0.0701
 6283TIP3    H240341   5.713   4.491   0.231  0.0500 -2.7104 -0.5784
 6284TIP3   OH240342   6.371   6.254  13.018  0.5762 -0.3637  0.1295
 6284TIP3    H140343   6.392   6.342  12.987  0.6408  0.4920  2.3704
 6284TIP3    H240344   6.456   6.211  13.027  0.7922  0.2664  1.4125
 6285TIP3   OH240345   1.022   5.026  15.521 -0.0885 -0.1693  0.4399
 6285TIP3    H140346   1.013   4.964  15.449 -0.8847 -1.2413  1.4112
 6285TIP3    H240347   0.934   5.060  15.535  0.3455  1.2822 -0.1201
 6286TIP3   OH240348   4.289   1.072   1.148  0.5457 -0.0688  0.0007
 6286TIP3    H140349   4.267   1.006   1.214  0.6510 -0.3325 -0.2290
 6286TIP3    H240350   4.331   1.023   1.078  0.6029  0.2401 -0.1812
 6287TIP3   OH240351   1.449   6.744   0.728  0.2875  0.1015  0.1197
 6287TIP3    H140352   1.382   6.811   0.740  0.4481  0.6103 -1.6060
 6287TIP3    H240353   1.511   6.760   0.800 -0.5732  0.6734  0.7577
 6288TIP3   OH240354   4.233   1.038  11.015 -0.2801 -0.3912 -0.3825
 6288TIP3    H140355   4.263   0.970  11.075  1.1694  0.5811  0.0476
 6288TIP3    H240356   4.152   1.003  10.977  1.0758 -2.9065 -1.1792
 6289TIP3   OH240357   6.049   0.881   2.148 -0.5567 -0.1056  0.6605
 6289TIP3    H140358   6.094   0.963   2.128  1.5352 -0.6927  2.5288
 6289TIP3    H240359   6.072   0.822   2.077 -0.2026  0.2629  0.4690
 6290TIP3   OH240360   3.527   4.991  10.928  0.3847 -0.1613 -1.1941
 6290TIP3    H140361   3.577   5.029  10.856  0.6802 -0.6316 -1.2422
 6290TIP3    H240362   3.588   4.930  10.970  0.5021  0.7372 -0.0075
 6291TIP3   OH240363   2.332   1.091   1.048  0.4549 -0.2790 -0.7888
 6291TIP3    H140364   2.337   1.080   1.143 -0.7653  0.8169 -0.5754
 6291TIP3    H240365   2.239   1.095   1.029  0.7013  0.6139 -1.8947
 6292TIP3   OH240366   2.205   2.262  14.339  0.2441  0.0112  0.2929
 6292TIP3    H140367   2.249   2.259  14.424 -1.6269 -0.9556  1.2880
 6292TIP3    H240368   2.173   2.173  14.325 -0.2576  0.3689 -0.9909
 6293TIP3   OH240369   5.393   3.164   5.647 -0.5158  0.3802  0.0680
 6293TIP3    H140370   5.330   3.093   5.661  1.5929 -1.3177  1.6426
 6293TIP3    H240371   5.441   3.138   5.568  0.1433  0.0851  0.5502
 6294TIP3   OH240372   5.577   1.223  14.302  0.5254 -0.1429  0.2380
 6294TIP3    H140373   5.561   1.251  14.213  0.2851 -0.6725  0.1083
 6294TIP3    H240374   5.559   1.300  14.356 -0.4590 -0.1454 -0.0754
 6295TIP3   OH240375   3.607   1.142   5.272  0.0193 -0.3465  0.3414
 6295TIP3    H140376   3.551   1.142   5.350 -0.9991  0.7388 -0.3588
 6295TIP3    H240377   3.648   1.056   5.272 -0.4229 -0.5908  1.7412
 6296TIP3   OH240378   3.782   6.787   5.343  0.5437  0.1233 -0.0946
 6296TIP3    H140379   3.783   6.848   5.417 -2.3324 -0.5275  0.5820
 6296TIP3    H240380   3.700   6.739   5.351  1.5896 -2.2360 -1.9484
 6297TIP3   OH240381   1.549   4.418  15.904  0.3704 -0.4128  0.1435
 6297TIP3    H140382   1.521   4.469  15.980  0.3111 -0.1435 -0.0584
 6297TIP3    H240383   1.615   4.358  15.938 -0.3751 -0.9816  0.6033
 6298TIP3   OH240384   4.819   6.510   2.064 -0.2088 -0.0480  0.2162
 6298TIP3    H140385   4.773   6.444   2.012 -0.0368  0.1177 -0.1462
 6298TIP3    H240386   4.752   6.576   2.083 -0.1399  0.1597 -0.2557
 6299TIP3   OH240387   6.067   2.994   3.672  0.1347 -0.3188  0.0495
 6299TIP3    H140388   6.077   2.942   3.592  3.0859 -2.1735  1.4365
 6299TIP3    H240389   5.980   2.972   3.704 -0.8046 -0.1358 -2.1886
 6300TIP3   OH240390   5.376   5.458   2.568 -0.0604  0.3377 -0.4108
 6300TIP3    H140391   5.348   5.408   2.644  1.6782  0.2500  0.2104
 6300TIP3    H240392   5.402   5.543   2.603 -1.2184  1.0498 -1.2109
 6301TIP3   OH240393   0.915   5.592   0.458 -0.3939  0.2818  0.2043
 6301TIP3    H140394   0.865   5.591   0.376 -0.6063 -0.3586  0.3358
 6301TIP3    H240395   0.877   5.521   0.510  1.4923 -1.1133 -0.2042
 6302TIP3   OH240396   0.765   1.717   0.679  0.9605  0.2686  0.9675
 6302TIP3    H140397   0.802   1.727   0.766  0.4832  0.8644  1.1136
 6302TIP3    H240398   0.681   1.762   0.684 -0.1256 -1.6414  0.8478
 6303TIP3   OH240399   3.448   6.764  14.859  0.2348 -0.1515  0.5807
 6303TIP3    H140400   3.396   6.691  14.891  0.1864 -0.0787  0.6707
 6303TIP3    H240401   3.383   6.829  14.829  0.2747 -0.0910  0.6245
 6304TIP3   OH240402   3.631   1.190  12.696 -0.4298 -0.2573 -0.5494
 6304TIP3    H140403   3.575   1.120  12.663 -0.9502  0.6294 -1.6434
 6304TIP3    H240404   3.693   1.207  12.626  2.4100 -2.3268  1.2428
 6305TIP3   OH240405   5.754   4.433  16.067 -0.4551 -0.4172 -0.7519
 6305TIP3    H140406   5.703   4.403  15.992 -1.3260 -0.6446 -0.0818
 6305TIP3    H240407   5.770   4.526  16.049 -1.3687 -0.2673 -0.8293
 6306TIP3   OH240408   2.516   4.708  16.402  0.0298 -0.2091 -0.3490
 6306TIP3    H140409   2.493   4.615  16.398  0.4922 -0.3372 -0.1463
 6306TIP3    H240410   2.599   4.710  16.450 -0.2984  0.3679  0.2126
 6307TIP3   OH240411   3.600   4.041  15.845  0.7058  0.3196 -0.2630
 6307TIP3    H140412   3.609   4.091  15.763  0.2545  1.3797  0.3165
 6307TIP3    H240413   3.540   4.093  15.898 -0.1883 -1.1208  0.1756
 6308TIP3   OH240414   2.348   6.515  12.055 -0.6855 -0.0492  0.3025
 6308TIP3    H140415   2.295   6.474  11.986  0.7443 -1.7563  0.1440
 6308TIP3    H240416   2.293   6.585  12.089 -2.5631 -0.9859 -0.6493
 6309TIP3   OH240417   1.117   1.114   1.973 -0.0562 -0.2632  0.3966
 6309TIP3    H140418   1.168   1.160   2.039 -1.4587  1.8244  0.1033
 6309TIP3    H240419   1.144   1.022   1.981  1.6971  0.3501  2.0613
 6310TIP3   OH240420   4.639   1.195   3.221  0.1379  0.5872  0.1802
 6310TIP3    H140421   4.673   1.274   3.178  1.2516  0.4011  0.6797
 6310TIP3    H240422   4.700   1.125   3.195 -0.2673  0.0959  0.5274
 6311TIP3   OH240423   4.030   3.771  17.088  0.1323 -0.2261  0.2064
 6311TIP3    H140424   4.049   3.693  17.141  1.9177  0.5474  0.7882
 6311TIP3    H240425   3.981   3.829  17.147  0.7714 -0.0021  0.5267
 6312TIP3   OH240426   3.716   3.221  12.696 -0.1377  0.5992  0.1208
 6312TIP3    H140427   3.708   3.162  12.771  0.7414 -1.0663 -1.0209
 6312TIP3    H240428   3.641   3.200  12.640  1.0786 -0.7391 -1.0980
 6313TIP3   OH240429   2.895   4.136  12.102 -0.1810  0.0736 -0.1219
 6313TIP3    H140430   2.854   4.114  12.018 -0.3244  0.7778 -0.2409
 6313TIP3    H240431   2.847   4.212  12.133 -0.8892 -0.8693  1.1699
 6314TIP3   OH240432   2.190   2.859   5.505  0.1725  0.1506  0.6243
 6314TIP3    H140433   2.141   2.816   5.575 -0.1845 -0.2526  0.1366
 6314TIP3    H240434   2.147   2.944   5.495  1.6011  1.1531  2.3812
 6315TIP3   OH240435   1.531   1.170   4.401  0.3100 -0.3351  0.1926
 6315TIP3    H140436   1.597   1.201   4.339 -0.5475  0.3849 -0.3866
 6315TIP3    H240437   1.504   1.249   4.449 -1.0624 -0.3654 -0.4923
 6316TIP3   OH240438   4.954   1.076  14.311  0.3404  0.3183  0.0354
 6316TIP3    H140439   4.957   1.161  14.354 -2.4824  0.8621 -0.7039
 6316TIP3    H240440   4.941   1.095  14.219 -0.2334 -0.9125 -0.1597
 6317TIP3   OH240441   5.891   2.608  12.903 -0.3738  0.0399  0.0604
 6317TIP3    H140442   5.861   2.606  12.995  0.8450 -0.6377  0.4594
 6317TIP3    H240443   5.837   2.542  12.860 -0.3726 -0.2293  0.4664
 6318TIP3   OH240444   0.027   5.217  10.382 -0.5851 -0.4101  0.5114
 6318TIP3    H140445   0.007   5.305  10.349  2.3548 -0.2945 -1.3121
 6318TIP3    H240446   0.102   5.229  10.440 -1.1190 -1.5687  1.4936
 6319TIP3   OH240447   1.670   1.792   3.358  0.1672  0.1283 -0.1066
 6319TIP3    H140448   1.624   1.844   3.292  0.0606 -0.5652 -0.5830
 6319TIP3    H240449   1.701   1.715   3.311 -1.4776 -1.2742  1.0038
 6320TIP3   OH240450   2.464   3.340  12.965  0.2536 -0.1453  0.6321
 6320TIP3    H140451   2.421   3.337  13.050  0.9472 -0.1179  0.9862
 6320TIP3    H240452   2.473   3.248  12.940  0.5613 -0.1786  0.8546
 6321TIP3   OH240453   3.693   2.737   3.366 -0.1251  0.3425  0.1422
 6321TIP3    H140454   3.776   2.719   3.323  0.0179  2.5873 -0.6690
 6321TIP3    H240455   3.702   2.701   3.454  0.8348 -1.3901 -0.6142
 6322TIP3   OH240456   3.802   1.467  11.947  0.3866 -0.0797 -0.3052
 6322TIP3    H140457   3.738   1.424  11.890 -0.7514  1.2749 -0.0785
 6322TIP3    H240458   3.794   1.560  11.927  0.1373  0.4184  1.8598
 6323TIP3   OH240459   0.041   5.720  16.444 -0.5062  0.0475  0.6166
 6323TIP3    H140460   0.121   5.692  16.400 -1.6112 -0.5420 -1.0994
 6323TIP3    H240461   0.065   5.804  16.485  0.8889  0.0454 -0.1348
 6324TIP3   OH240462   4.028   0.816  11.644 -0.1579 -0.2124  0.4835
 6324TIP3    H140463   4.009   0.814  11.738 -0.3983  1.4229  0.5069
 6324TIP3    H240464   3.959   0.871  11.607  1.5674  1.6555 -0.1877
 6325TIP3   OH240465   2.153   1.740  16.291 -0.0457  0.0400 -0.4986
 6325TIP3    H140466   2.158   1.832  16.316  1.3759 -0.1119 -0.1998
 6325TIP3    H240467   2.137   1.693  16.373  0.4371 -0.0791 -0.4691
 6326TIP3   OH240468   5.787   1.662   5.042  0.0417  0.4027  0.4049
 6326TIP3    H140469   5.742   1.593   5.090  1.3321  0.1984  1.3708
 6326TIP3    H240470   5.880   1.645   5.056  0.4418  1.0073 -1.2504
 6327TIP3   OH240471   1.176   5.640   0.517  0.1082 -0.2927  0.0696
 6327TIP3    H140472   1.219   5.597   0.443 -0.5598  1.3159 -1.3117
 6327TIP3    H240473   1.083   5.620   0.505  0.0776 -0.7118  0.9589
 6328TIP3   OH240474   6.100   6.799  13.889 -0.0237 -0.2983  0.6801
 6328TIP3    H140475   6.051   6.794  13.807  1.1489 -3.0172  0.0299
 6328TIP3    H240476   6.035   6.785  13.958 -0.5852 -0.9060  0.0326
 6329TIP3   OH240477   5.057   6.808   1.579 -0.1104  0.0607  0.1665
 6329TIP3    H140478   5.101   6.839   1.658 -2.1017  2.3622  0.4932
 6329TIP3    H240479   4.967   6.794   1.605 -0.9268  1.3308 -1.7528
 6330TIP3   OH240480   0.109   1.798   0.797 -0.4164  0.3801  0.0113
 6330TIP3    H140481   0.037   1.827   0.854  0.2716 -0.6166  1.4419
 6330TIP3    H240482   0.158   1.735   0.850  0.8423  0.1547 -1.3539
 6331TIP3   OH240483   2.550   1.557   0.809 -0.5309  0.1718  0.2034
 6331TIP3    H140484   2.563   1.650   0.824  0.4618  0.4642 -2.0474
 6331TIP3    H240485   2.635   1.517   0.830 -0.4542  0.0197 -0.3697
 6332TIP3   OH240486   3.984   0.905   5.073 -0.0441 -0.4877  0.9719
 6332TIP3    H140487   4.075   0.900   5.043 -0.5458 -0.7898 -0.6363
 6332TIP3    H240488   3.950   0.816   5.064 -0.9677 -0.0523 -0.1443
 6333TIP3   OH240489   0.198   1.249   5.134  0.1584  0.2279  0.0330
 6333TIP3    H140490   0.226   1.318   5.074  0.4093 -1.4411 -1.8948
 6333TIP3    H240491   0.247   1.265   5.215  0.0105  2.4046 -0.2714
 6334TIP3   OH240492   1.987   5.219   5.127  0.0749 -0.7012  0.3325
 6334TIP3    H140493   1.945   5.160   5.065 -1.0763 -0.4865  0.8709
 6334TIP3    H240494   2.048   5.270   5.075  0.4448 -1.7588 -0.2923
 6335TIP3   OH240495   6.422   1.659  17.026  0.0641 -0.6653  0.1278
 6335TIP3    H140496   6.368   1.590  16.987 -0.2380  0.8276 -2.2769
 6335TIP3    H240497   6.427   1.727  16.959  5.9012 -1.0902 -0.3910
 6336TIP3   OH240498   4.790   1.932   4.869  0.0368  0.1271 -0.6245
 6336TIP3    H140499   4.816   2.015   4.909  1.5251 -0.7776  0.3816
 6336TIP3    H240500   4.789   1.949   4.775  1.4698  1.0000 -0.5064
 6337TIP3   OH240501   0.008   1.832  15.189  0.0104 -0.0018 -0.1198
 6337TIP3    H140502   0.019   1.740  15.161  0.8991 -0.4083  1.4498
 6337TIP3    H240503   0.060   1.882  15.126 -0.6152 -0.5399 -1.0952
 6338TIP3   OH240504   4.072   4.584  17.084  0.1906  0.3840  0.0590
 6338TIP3    H140505   4.151   4.631  17.058  0.6090  0.1722  0.9229
 6338TIP3    H240506   4.031   4.559  17.001  1.3517 -0.0373 -0.4039
 6339TIP3   OH240507   2.240   0.045  16.263 -0.1484  0.3554  0.4743
 6339TIP3    H140508   2.277  -0.020  16.322  0.6490  1.4603  1.2346
 6339TIP3    H240509   2.306   0.114  16.259 -1.2965  1.4848  0.3023
 6340TIP3   OH240510   5.418   3.409  12.447 -0.2023  0.4992  0.8719
 6340TIP3    H140511   5.452   3.485  12.399 -0.4296  0.5404  0.7754
 6340TIP3    H240512   5.324   3.423  12.451 -0.3888 -0.3846 -0.1989
 6341TIP3   OH240513   1.993   4.389   1.144 -0.3296  0.7651 -0.2155
 6341TIP3    H140514   1.956   4.304   1.168  0.7698 -0.0366 -1.1998
 6341TIP3    H240515   1.968   4.448   1.215 -0.4462 -0.5832  0.8997
 6342TIP3   OH240516   5.149   3.807  14.351 -0.1167  0.1633 -0.8010
 6342TIP3    H140517   5.053   3.806  14.343 -0.4300 -1.2077  1.8949
 6342TIP3    H240518   5.180   3.843  14.268 -2.9830  1.2137 -1.5230
 6343TIP3   OH240519   0.019   1.274   3.314 -0.1703 -0.2428  0.2733
 6343TIP3    H140520   0.083   1.315   3.256  1.4858  0.1252  2.2518
 6343TIP3    H240521   0.069   1.207   3.361 -1.5901 -0.9328  0.8695
 6344TIP3   OH240522   4.325   3.154  14.470  0.0460 -0.5022  0.3593
 6344TIP3    H140523   4.235   3.157  14.504 -0.0256  0.5234  0.1087
 6344TIP3    H240524   4.361   3.241  14.489  0.3886 -0.2920 -1.1183
 6345TIP3   OH240525   4.971   1.855   6.278  0.3932  0.1110 -0.0785
 6345TIP3    H140526   4.899   1.804   6.242 -0.6635  1.2044  0.3971
 6345TIP3    H240527   5.009   1.799   6.345  1.1391 -1.1690 -1.4956
 6346TIP3   OH240528   1.769   4.439   5.640 -0.0448 -0.1484  0.4175
 6346TIP3    H140529   1.792   4.394   5.721  1.6960  1.2655  0.7683
 6346TIP3    H240530   1.717   4.514   5.669  0.5849  0.3623  0.2576
 6347TIP3   OH240531   6.273   3.079   4.975  0.1460  1.0373  0.2690
 6347TIP3    H140532   6.369   3.080   4.981  0.1184 -0.1926  1.3469
 6347TIP3    H240533   6.244   3.046   5.060 -1.0696 -2.6588 -1.3927
 6348TIP3   OH240534   5.966   3.399  13.159  0.2744  0.0873  0.0402
 6348TIP3    H140535   5.886   3.382  13.110 -0.1126  0.1321  0.6413
 6348TIP3    H240536   6.016   3.459  13.103  0.4390 -0.8770 -0.8763
 6349TIP3   OH240537   1.714   3.164  12.972  0.4999  0.3035  0.1562
 6349TIP3    H140538   1.761   3.198  13.048 -0.0373  0.7416  0.2968
 6349TIP3    H240539   1.753   3.209  12.897 -0.5347  1.6276  0.3786
 6350TIP3   OH240540   4.158   4.296   3.618  1.0968  0.0651  0.2608
 6350TIP3    H140541   4.091   4.356   3.585  1.4815  0.2717 -0.1529
 6350TIP3    H240542   4.157   4.309   3.713  1.6009  1.1761  0.1206
 6351TIP3   OH240543   5.874   2.250   5.761  0.1018 -0.5002  0.7610
 6351TIP3    H140544   5.924   2.212   5.833 -0.9789 -1.0697  1.2279
 6351TIP3    H240545   5.799   2.192   5.750 -0.4219  0.2870  0.0120
 6352TIP3   OH240546   6.088   6.314  13.045 -0.4075 -0.3060  0.0823
 6352TIP3    H140547   6.179   6.284  13.046 -0.1331  0.4984  0.2279
 6352TIP3    H240548   6.089   6.392  12.990 -0.7091  0.5961  1.3068
 6353TIP3   OH240549   4.363   4.855   1.702  0.0059 -0.1992 -0.2393
 6353TIP3    H140550   4.449   4.812   1.697  0.1365  0.0362 -0.0254
 6353TIP3    H240551   4.379   4.943   1.669  0.7492  1.2005  3.3996
 6354TIP3   OH240552   2.204   2.108   4.507  0.5178 -0.2627 -0.2585
 6354TIP3    H140553   2.174   2.196   4.489  0.5987  0.0606  1.0305
 6354TIP3    H240554   2.295   2.119   4.535  0.5300 -0.7384 -0.0939
 6355TIP3   OH240555   4.430   2.292   3.904 -0.5474  0.4863 -0.1716
 6355TIP3    H140556   4.461   2.203   3.885 -1.9147 -0.4257  1.5924
 6355TIP3    H240557   4.481   2.320   3.979  0.8461  1.8008 -1.5395
 6356TIP3   OH240558   3.411   2.960   2.718 -0.2808 -0.8938  0.3531
 6356TIP3    H140559   3.363   2.999   2.791 -0.4708 -2.2293  0.9837
 6356TIP3    H240560   3.455   3.033   2.676 -0.2136 -0.0798  1.7830
 6357TIP3   OH240561   3.804   5.168   2.473  0.2718 -0.1294 -0.1870
 6357TIP3    H140562   3.771   5.181   2.384 -0.8364  0.9394  0.3506
 6357TIP3    H240563   3.732   5.124   2.518  0.4385  0.2221  0.4320
 6358TIP3   OH240564   0.751   6.513  11.767 -0.8343 -0.0357  0.0727
 6358TIP3    H140565   0.680   6.450  11.755 -0.8064 -0.1111  0.3063
 6358TIP3    H240566   0.720   6.592  11.722 -1.1425 -0.0097  0.3194
 6359TIP3   OH240567   6.211   6.247   2.768  0.4914 -0.1742 -0.1254
 6359TIP3    H140568   6.296   6.216   2.736  1.5733  1.5027  0.9451
 6359TIP3    H240569   6.231   6.331   2.809 -1.9405  0.9398 -1.0709
 6360TIP3   OH240570   3.764   2.752   4.040  0.4169  0.1650 -0.2265
 6360TIP3    H140571   3.721   2.825   4.085  0.0369 -0.1954  0.0019
 6360TIP3    H240572   3.848   2.787   4.011  0.2717  0.6678 -0.0417
 6361TIP3   OH240573   6.169   4.739   5.634  0.4579 -0.6996  0.3429
 6361TIP3    H140574   6.078   4.720   5.659  0.1082  0.3427 -0.0668
 6361TIP3    H240575   6.199   4.659   5.591 -0.7006 -0.6285 -0.6658
 6362TIP3   OH240576   5.198   3.216  13.575  0.2982  0.1364 -0.2737
 6362TIP3    H140577   5.170   3.148  13.635 -0.4178 -0.4461 -1.2396
 6362TIP3    H240578   5.220   3.291  13.631  1.0634 -0.8582  0.7934
 6363TIP3   OH240579   3.061   3.983   0.246 -0.7956 -0.4495 -0.0696
 6363TIP3    H140580   3.101   4.027   0.171  1.9242 -1.2833  0.7689
 6363TIP3    H240581   3.122   3.913   0.268 -1.1079  0.1484  3.3051
 6364TIP3   OH240582   1.466   4.247   4.587  0.3912  0.2682  0.0565
 6364TIP3    H140583   1.473   4.331   4.633 -0.0987  0.1704  0.3151
 6364TIP3    H240584   1.371   4.232   4.580  0.4502  0.4516 -1.2849
 6365TIP3   OH240585   0.603   2.120   2.967 -0.1442 -0.3102 -0.3701
 6365TIP3    H140586   0.511   2.134   2.989 -0.2076  0.6221 -1.1906
 6365TIP3    H240587   0.602   2.051   2.901 -0.2299 -0.4389 -0.2354
 6366TIP3   OH240588   2.949   6.393  14.105  0.2781 -0.2114 -0.2706
 6366TIP3    H140589   2.869   6.390  14.052 -0.2607 -3.1944  0.4860
 6366TIP3    H240590   3.011   6.337  14.057  0.8522 -0.3702  0.6382
 6367TIP3   OH240591   4.184   1.464   1.442  0.1389 -0.2112  0.2824
 6367TIP3    H140592   4.213   1.532   1.502 -0.7573 -0.1933  0.7122
 6367TIP3    H240593   4.260   1.408   1.429  1.3390  1.6385 -1.1817
 6368TIP3   OH240594   4.657   0.808  16.793  0.4582 -0.5002  0.0749
 6368TIP3    H140595   4.700   0.722  16.796  0.4595 -0.4650  2.2088
 6368TIP3    H240596   4.706   0.861  16.855 -1.8321 -0.0786  1.6130
 6369TIP3   OH240597   1.908   4.650  15.171 -0.1399 -0.2134  0.1644
 6369TIP3    H140598   1.939   4.629  15.083  0.5047  2.1187 -0.2242
 6369TIP3    H240599   1.933   4.575  15.224  1.5502 -0.6603 -1.1827
 6370TIP3   OH240600   6.405   0.255   5.945  0.0664  0.4491 -0.1055
 6370TIP3    H140601   6.453   0.216   6.018 -1.8124 -0.2207  0.8531
 6370TIP3    H240602   6.361   0.181   5.903  2.1839  0.6034 -2.8715
 6371TIP3   OH240603   0.403   0.426   6.133  0.6703  0.0156 -0.6430
 6371TIP3    H140604   0.411   0.462   6.045  2.2618  1.1314 -0.0808
 6371TIP3    H240605   0.486   0.382   6.149 -0.5287 -2.4502 -0.6086
 6372TIP3   OH240606   3.832   5.891   5.508 -0.6639  0.1016  0.7474
 6372TIP3    H140607   3.835   5.915   5.601 -0.2236  0.4737  0.6383
 6372TIP3    H240608   3.856   5.971   5.461  2.0075 -0.7864  0.4305
 6373TIP3   OH240609   5.632   4.349   0.356 -0.1251 -0.2924 -0.1725
 6373TIP3    H140610   5.551   4.299   0.354 -1.6070  1.9055  0.8039
 6373TIP3    H240611   5.629   4.397   0.439  2.0332  0.0792 -0.2451
 6374TIP3   OH240612   6.057   0.095  11.474  0.1156  0.1847  0.2015
 6374TIP3    H140613   6.107   0.169  11.440  0.6045  0.0753  0.6726
 6374TIP3    H240614   6.122   0.040  11.517 -0.6916  1.4830  3.4590
 6375TIP3   OH240615   4.649   0.197  15.848  0.0404  0.0386  0.8279
 6375TIP3    H140616   4.647   0.275  15.793  0.1231  0.6767  1.7060
 6375TIP3    H240617   4.672   0.125  15.788  1.4209  0.9116  0.2747
 6376TIP3   OH240618   6.775   0.338  10.684 -0.3356  0.5290  0.1903
 6376TIP3    H140619   6.772   0.265  10.746 -0.3019  1.6323  1.5331
 6376TIP3    H240620   6.868   0.357  10.673 -0.3729  1.0363  0.6822
 6377TIP3   OH240621   5.937   6.728  13.370  0.2494 -0.3489 -0.8105
 6377TIP3    H140622   5.942   6.642  13.412  0.9147 -0.0612 -0.2734
 6377TIP3    H240623   5.979   6.715  13.285  0.1899 -0.5971 -0.8045
 6378TIP3   OH240624   2.892   5.687   1.586 -0.0382  0.5083  0.2382
 6378TIP3    H140625   2.970   5.646   1.549 -0.2520  0.7385 -0.4836
 6378TIP3    H240626   2.864   5.626   1.654  0.3145  0.0265 -0.0357
 6379TIP3   OH240627   3.714   0.207   4.174  0.1855  0.6404  0.6511
 6379TIP3    H140628   3.708   0.113   4.191  0.8408  0.4212 -0.2359
 6379TIP3    H240629   3.662   0.248   4.243 -1.0911 -0.4365  0.3702
 6380TIP3   OH240630   3.455   0.300  11.366 -0.3782 -0.3248  0.0995
 6380TIP3    H140631   3.536   0.290  11.416 -0.7744 -0.6645  0.6921
 6380TIP3    H240632   3.479   0.279  11.276  0.6578  1.6217 -0.1289
 6381TIP3   OH240633   2.353   3.195  12.030  0.3973 -0.3798 -0.4889
 6381TIP3    H140634   2.443   3.222  12.015  1.0563 -2.2390 -0.1216
 6381TIP3    H240635   2.325   3.246  12.106  0.9260  0.6412 -0.9625
 6382TIP3   OH240636   1.820   4.233   5.378  0.0313 -0.3722 -0.1196
 6382TIP3    H140637   1.896   4.291   5.376  1.0225 -1.5103  1.3345
 6382TIP3    H240638   1.794   4.231   5.470 -3.4005  1.9001 -0.8647
 6383TIP3   OH240639   3.852   3.140   4.879  0.6734 -0.2919 -0.0671
 6383TIP3    H140640   3.918   3.095   4.932 -0.1752 -0.7952  0.5857
 6383TIP3    H240641   3.782   3.076   4.868  0.6579 -0.0715 -1.5039
 6384TIP3   OH240642   5.279   3.165   3.943  0.0338  0.2289  0.1936
 6384TIP3    H140643   5.184   3.175   3.951  0.3149  3.0049  1.3421
 6384TIP3    H240644   5.305   3.119   4.023 -0.3197 -0.4685 -0.0857
 6385TIP3   OH240645   0.719   4.062  15.927  0.1461 -0.2936  0.1261
 6385TIP3    H140646   0.639   4.055  15.980  0.0073  2.2973  0.3868
 6385TIP3    H240647   0.762   3.977  15.937 -1.7250 -1.1674  1.3568
 6386TIP3   OH240648   0.615   4.482   5.431 -0.6478  0.1213 -0.0388
 6386TIP3    H140649   0.690   4.511   5.379 -1.9984  1.5735 -1.2871
 6386TIP3    H240650   0.623   4.529   5.514 -0.1593  0.2361 -0.1499
 6387TIP3   OH240651   2.044   2.997  14.403 -0.5840 -0.2660 -0.3380
 6387TIP3    H140652   2.047   2.923  14.463 -1.0248  0.8454  1.1089
 6387TIP3    H240653   2.127   3.043  14.415 -1.2364  0.7419  0.4875
 6388TIP3   OH240654   5.705   2.751   5.161 -0.0159  0.0346  0.4136
 6388TIP3    H140655   5.673   2.799   5.085 -0.9985  0.4005  1.0327
 6388TIP3    H240656   5.800   2.755   5.155 -0.0914  0.8148 -0.3176
 6389TIP3   OH240657   1.486   5.222   5.491  0.4446  0.5364  0.5490
 6389TIP3    H140658   1.522   5.231   5.579  0.8956  3.4294  0.1781
 6389TIP3    H240659   1.392   5.241   5.501 -0.3468 -2.8234  0.8583
 6390TIP3   OH240660   2.112   6.577  10.932 -0.2390  0.1953 -0.4986
 6390TIP3    H140661   2.164   6.537  10.863  0.6669  3.1002 -1.6745
 6390TIP3    H240662   2.055   6.639  10.886 -0.8531  0.9659  1.2249
 6391TIP3   OH240663   2.823   2.982  10.902  0.1046 -0.5497 -0.6734
 6391TIP3    H140664   2.865   2.991  10.817 -0.7253  1.0618 -0.9415
 6391TIP3    H240665   2.736   3.019  10.891 -0.4241 -1.3295  0.5924
 6392TIP3   OH240666   6.376   2.111  12.862 -0.3503 -0.1373  0.0613
 6392TIP3    H140667   6.405   2.029  12.822 -0.1358  0.0887 -0.2587
 6392TIP3    H240668   6.296   2.134  12.814 -0.2011  0.0335 -0.1087
 6393TIP3   OH240669   0.140   2.667  14.783  0.1825 -0.2051 -0.3968
 6393TIP3    H140670   0.076   2.679  14.713  1.4109  0.8773 -1.3971
 6393TIP3    H240671   0.089   2.635  14.857 -1.3935 -0.0357 -1.3585
 6394TIP3   OH240672   1.329   2.172  16.979 -0.8181  0.3572 -0.2661
 6394TIP3    H140673   1.379   2.104  16.933 -1.5133 -0.2794 -0.0970
 6394TIP3    H240674   1.383   2.251  16.970 -0.4128 -0.0089 -1.2143
 6395TIP3   OH240675   0.931   0.333   6.228 -0.3013  0.5521  0.4783
 6395TIP3    H140676   0.960   0.418   6.196  0.2405  1.0324  2.1557
 6395TIP3    H240677   0.987   0.269   6.183 -0.0383  1.1331 -0.0277
 6396TIP3   OH240678   4.219   0.317  15.581  0.2891 -0.2015  0.5009
 6396TIP3    H140679   4.212   0.255  15.654  0.6431  0.5787  1.2124
 6396TIP3    H240680   4.255   0.397  15.621  2.1127 -0.3102 -0.8533
 6397TIP3   OH240681   1.718   6.411   1.715 -0.1918  0.1168 -0.4561
 6397TIP3    H140682   1.766   6.382   1.792 -0.3871  2.2960  0.5450
 6397TIP3    H240683   1.633   6.367   1.723  0.9885 -2.6268 -1.4971
 6398TIP3   OH240684   0.126   3.881  16.664  0.3846  0.1832 -0.5315
 6398TIP3    H140685   0.142   3.870  16.570  0.3956  0.9706 -0.6294
 6398TIP3    H240686   0.206   3.922  16.697  1.0108 -1.4769  0.1184
 6399TIP3   OH240687   0.494   0.163   2.706  0.0174  0.8795 -0.0361
 6399TIP3    H140688   0.496   0.211   2.788  0.1610 -0.6439  0.8890
 6399TIP3    H240689   0.553   0.212   2.648  1.9283  0.5980  1.5756
 6400TIP3   OH240690   4.719   5.502  14.957  0.1921 -0.4817 -0.2942
 6400TIP3    H140691   4.738   5.409  14.945 -0.3312 -0.5201 -0.8697
 6400TIP3    H240692   4.801   5.546  14.937  0.2633 -0.7805 -0.6735
 6401TIP3   OH240693   3.596   3.773   3.021 -0.1977  0.2290  0.4634
 6401TIP3    H140694   3.639   3.852   2.987 -2.7133  1.0983 -0.9307
 6401TIP3    H240695   3.511   3.770   2.976 -1.0532 -2.1495  2.0363
 6402TIP3   OH240696   5.537   0.268   4.025  0.2734 -0.0345  0.2909
 6402TIP3    H140697   5.583   0.267   3.941  0.3489  1.1516  0.3024
 6402TIP3    H240698   5.601   0.231   4.087  1.6529  2.4268  0.4794
 6403TIP3   OH240699   1.781   2.136   2.748 -0.2400 -0.4481 -0.2380
 6403TIP3    H140700   1.862   2.137   2.697 -0.9728  1.9142 -1.5138
 6403TIP3    H240701   1.737   2.055   2.722  1.2886 -1.3467 -0.1524
 6404TIP3   OH240702   5.469   0.325  14.746  0.0888 -0.5498 -0.0907
 6404TIP3    H140703   5.502   0.249  14.794  0.7537 -0.1250  0.1394
 6404TIP3    H240704   5.501   0.400  14.795 -0.2495 -0.1160 -0.5251
 6405TIP3   OH240705   5.217   5.282   3.782 -0.0078 -0.2479 -0.2656
 6405TIP3    H140706   5.160   5.256   3.854 -2.0812 -0.1139 -1.7774
 6405TIP3    H240707   5.171   5.354   3.739  1.1454 -0.3467 -1.7617
 6406TIP3   OH240708   2.879   4.724  14.033  0.5394  0.1472  0.6209
 6406TIP3    H140709   2.825   4.645  14.026  2.1369 -1.0408  1.0840
 6406TIP3    H240710   2.843   4.784  13.968 -0.6396 -0.9941  0.1748
 6407TIP3   OH240711   4.488   5.332   0.912  0.5714 -0.5009  0.4293
 6407TIP3    H140712   4.480   5.318   0.817 -3.2484  0.9442  0.3729
 6407TIP3    H240713   4.576   5.367   0.923  1.9480 -2.7212 -2.2485
 6408TIP3   OH240714   6.409   6.317   1.354 -0.1589 -0.2210 -0.1276
 6408TIP3    H140715   6.436   6.397   1.399  0.2183 -0.9098  0.8835
 6408TIP3    H240716   6.357   6.269   1.418 -0.3950 -0.7925 -0.7317
 6409TIP3   OH240717   4.298   2.614  10.803  0.5522  0.3665 -0.5876
 6409TIP3    H140718   4.279   2.559  10.727  1.0890  0.7159 -0.9778
 6409TIP3    H240719   4.213   2.627  10.845  0.5094 -1.3660 -0.0653
 6410TIP3   OH240720   3.381   6.674  16.369 -0.0040 -0.3931  0.0512
 6410TIP3    H140721   3.394   6.586  16.334 -1.3863  0.1720 -2.0700
 6410TIP3    H240722   3.438   6.729  16.315 -1.1936  0.3298 -0.5157
 6411TIP3   OH240723   0.712   3.477   5.130 -0.1704 -0.0130  0.1941
 6411TIP3    H140724   0.711   3.417   5.205  1.1118  1.0894  1.1581
 6411TIP3    H240725   0.804   3.502   5.122 -0.3843  0.3526 -1.4108
 6412TIP3   OH240726   4.527   3.604   2.569  0.1161 -0.4312  0.6409
 6412TIP3    H140727   4.548   3.526   2.519  0.4881 -0.4803  0.8748
 6412TIP3    H240728   4.504   3.572   2.656 -0.0893 -0.3095  0.6328
 6413TIP3   OH240729   4.300   5.467   5.154  0.7463 -0.0230 -0.3370
 6413TIP3    H140730   4.252   5.548   5.142 -0.8415 -0.5250  1.8854
 6413TIP3    H240731   4.279   5.414   5.077  2.2439  1.7983 -2.0873
 6414TIP3   OH240732   1.962   6.662  16.741 -0.8474 -0.1855 -0.4539
 6414TIP3    H140733   1.904   6.702  16.806 -0.9196 -0.0604 -0.5949
 6414TIP3    H240734   2.040   6.637  16.791 -1.0119 -0.3318 -0.2712
 6415TIP3   OH240735   6.766   3.556   2.210 -0.0234  0.1510  0.1118
 6415TIP3    H140736   6.811   3.481   2.249  0.5583  0.1560 -0.5252
 6415TIP3    H240737   6.790   3.630   2.266 -1.1047 -0.2164  1.1133
 6416TIP3   OH240738   3.887   6.656  11.192 -0.9020  0.1144  0.6605
 6416TIP3    H140739   3.814   6.610  11.232 -1.0978  1.2552  1.6752
 6416TIP3    H240740   3.953   6.588  11.177 -2.0830 -0.8988 -0.1282
 6417TIP3   OH240741   5.972   3.029   5.979 -0.0661 -0.4786  0.9258
 6417TIP3    H140742   5.991   3.111   6.025  1.8236 -0.4461  0.1582
 6417TIP3    H240743   5.891   3.047   5.931  0.4599  1.0536  0.5546
 6418TIP3   OH240744   2.762   0.978   5.770 -0.1782 -0.2111 -0.1147
 6418TIP3    H140745   2.828   0.942   5.711 -1.1476  0.6657 -1.8091
 6418TIP3    H240746   2.699   1.021   5.712 -0.7186  1.4685  1.6183
 6419TIP3   OH240747   4.381   0.355   5.794 -0.5030  0.1057  0.5095
 6419TIP3    H140748   4.450   0.311   5.843  0.1281  1.4582  0.8756
 6419TIP3    H240749   4.303   0.345   5.849 -0.3986 -0.6165  0.5384
 6420TIP3   OH240750   3.249   5.965   1.898 -0.0578 -0.7278 -0.3288
 6420TIP3    H140751   3.316   6.026   1.867  1.4559 -1.7256  0.8217
 6420TIP3    H240752   3.244   5.899   1.830 -1.6705  0.5867 -1.5592
 6421TIP3   OH240753   2.329   1.462  15.339 -0.2819  0.4775  0.1838
 6421TIP3    H140754   2.386   1.521  15.290  1.7315 -1.3814  0.1733
 6421TIP3    H240755   2.327   1.499  15.427 -0.5717  1.5464 -0.2483
 6422TIP3   OH240756   6.677   1.048  15.730  0.5322 -0.1416  0.3514
 6422TIP3    H140757   6.694   0.965  15.685  0.2886  0.2232 -0.4165
 6422TIP3    H240758   6.741   1.109  15.694 -0.0442  0.3051  0.0627
 6423TIP3   OH240759   1.368   4.203  14.760 -0.3524 -0.6495 -0.0988
 6423TIP3    H140760   1.296   4.260  14.785  2.1189  2.3328  0.8745
 6423TIP3    H240761   1.340   4.162  14.678 -2.7221  1.0918 -0.2380
 6424TIP3   OH240762   5.059   4.972  11.610  0.1822 -0.8418  0.2054
 6424TIP3    H140763   5.124   4.927  11.557  0.1454  1.1627 -1.6879
 6424TIP3    H240764   5.106   4.997  11.690  2.3508  1.8135 -1.6868
 6425TIP3   OH240765   1.031   6.209  13.137 -0.2366  0.1089  0.3194
 6425TIP3    H140766   1.113   6.168  13.163  0.1187  0.8065  0.3409
 6425TIP3    H240767   0.970   6.137  13.126  0.5405 -0.4812 -0.2956
 6426TIP3   OH240768   0.712   3.555  17.138 -0.2161 -0.0941 -0.1607
 6426TIP3    H140769   0.764   3.560  17.059  1.8915  1.8747  1.2179
 6426TIP3    H240770   0.772   3.521  17.205 -0.1115  3.3906  1.7725
 6427TIP3   OH240771   2.579   3.807  12.877 -0.1767 -0.7050  0.1027
 6427TIP3    H140772   2.550   3.896  12.860  1.2529 -0.1885  0.2310
 6427TIP3    H240773   2.573   3.797  12.973 -3.8440 -2.0634 -0.0820
 6428TIP3   OH240774   5.696   5.598  15.990  0.2786  0.2148  0.0023
 6428TIP3    H140775   5.725   5.552  15.912 -0.1231  0.2236 -0.1537
 6428TIP3    H240776   5.685   5.529  16.056 -0.9480 -0.0216 -0.4108
 6429TIP3   OH240777   1.933   6.823   5.276  0.4851  0.5291 -0.1496
 6429TIP3    H140778   1.886   6.846   5.196  1.2338 -0.8083 -1.0072
 6429TIP3    H240779   2.011   6.878   5.276  0.2179  0.9160 -0.0407
 6430TIP3   OH240780   2.361   5.577   2.173 -0.2434 -0.3683 -0.1214
 6430TIP3    H140781   2.338   5.642   2.108 -2.2905 -0.9428 -0.0585
 6430TIP3    H240782   2.380   5.628   2.252 -1.8946  0.2033 -0.0460
 6431TIP3   OH240783   0.013   5.416   3.191 -0.3501  0.0382 -0.1586
 6431TIP3    H140784   0.051   5.480   3.251 -0.6541 -3.2768  4.0736
 6431TIP3    H240785   0.085   5.356   3.171 -1.4020 -1.8265  1.3524
 6432TIP3   OH240786   0.917   4.179  14.063 -0.0130 -0.0217 -0.1831
 6432TIP3    H140787   0.851   4.217  14.006  0.1114 -0.5072 -0.6523
 6432TIP3    H240788   0.884   4.092  14.085  0.2586 -0.0951 -0.0548
 6433TIP3   OH240789   3.452   6.779   3.656  0.2753  0.0159  0.4054
 6433TIP3    H140790   3.500   6.774   3.738 -1.3629 -1.9455  1.3439
 6433TIP3    H240791   3.438   6.688   3.630  0.2471  0.5740 -1.7721
 6434TIP3   OH240792   4.432   0.832  11.863  0.4521 -0.7811  0.2984
 6434TIP3    H140793   4.499   0.879  11.914 -0.3708 -1.1529  1.7960
 6434TIP3    H240794   4.396   0.768  11.925  0.3653 -2.2376 -1.1942
 6435TIP3   OH240795   0.489   1.591  14.052  0.0346  0.2822  0.6124
 6435TIP3    H140796   0.529   1.519  14.003 -2.5949 -3.1842  3.0482
 6435TIP3    H240797   0.453   1.648  13.985 -3.7107 -4.3450 -1.9768
 6436TIP3   OH240798   2.729   1.913   3.615 -0.5457  0.3514 -0.7872
 6436TIP3    H140799   2.665   1.846   3.640 -1.2370  0.7716 -1.4145
 6436TIP3    H240800   2.677   1.992   3.599  0.1189  0.6745 -1.3962
 6437TIP3   OH240801   3.867   4.359  15.865  0.0045  0.4504  0.2724
 6437TIP3    H140802   3.876   4.369  15.770 -0.0004 -0.7098  0.1329
 6437TIP3    H240803   3.951   4.323  15.893  0.2253  1.3610  0.8085
 6438TIP3   OH240804   5.969   6.299  11.554 -0.0337  0.3238 -0.5837
 6438TIP3    H140805   6.009   6.373  11.507  1.5667 -0.5253 -0.6421
 6438TIP3    H240806   5.986   6.223  11.498 -0.7729 -0.2458 -0.0577
 6439TIP3   OH240807   2.430   6.161   3.571 -0.1047  0.0138  0.1797
 6439TIP3    H140808   2.524   6.158   3.587 -0.2747  0.1595  1.3141
 6439TIP3    H240809   2.412   6.251   3.546  0.2454 -0.3384 -1.4723
 6440TIP3   OH240810   3.628   3.265   4.252 -0.1872 -0.1019 -0.2972
 6440TIP3    H140811   3.625   3.310   4.337 -0.9897 -1.5595  0.4923
 6440TIP3    H240812   3.547   3.290   4.208  0.3606  0.8822 -0.7890
 6441TIP3   OH240813   0.558   0.697  11.382 -0.1242  0.1820 -0.2773
 6441TIP3    H140814   0.584   0.789  11.379  0.5135  0.0345  0.4336
 6441TIP3    H240815   0.564   0.674  11.475 -0.9184 -0.4001 -0.3611
 6442TIP3   OH240816   2.460   1.981  16.095 -0.4481 -0.3782 -0.4752
 6442TIP3    H140817   2.537   2.031  16.122 -0.0852 -0.2504 -1.7007
 6442TIP3    H240818   2.469   1.897  16.139 -0.4017  0.1657  0.5930
 6443TIP3   OH240819   4.205   4.799   4.972  0.4689 -0.0936  0.5942
 6443TIP3    H140820   4.235   4.725   5.024  0.8704  0.0081  0.5136
 6443TIP3    H240821   4.258   4.873   5.002  3.0911 -0.6539 -2.1373
 6444TIP3   OH240822   4.202   1.544   6.005 -0.3227  0.1389  0.3430
 6444TIP3    H140823   4.109   1.546   6.027  0.2130 -2.9744  3.9512
 6444TIP3    H240824   4.209   1.480   5.935 -0.8342  0.2359  0.1974
 6445TIP3   OH240825   3.375   0.705   3.566  0.1359  0.7081 -0.2729
 6445TIP3    H140826   3.330   0.628   3.532 -0.2224  0.1164  1.4072
 6445TIP3    H240827   3.334   0.721   3.651  0.8514  2.1857 -0.1661
 6446TIP3   OH240828   2.919   5.692   1.207  0.1338 -0.7207  0.2772
 6446TIP3    H140829   2.831   5.661   1.228  0.4121 -0.6010  1.7331
 6446TIP3    H240830   2.916   5.710   1.113 -0.8269 -2.5250 -0.0849
 6447TIP3   OH240831   2.266   0.613  13.357 -0.5731  0.5981 -0.3393
 6447TIP3    H140832   2.292   0.625  13.266 -0.0847 -2.3036 -0.6632
 6447TIP3    H240833   2.181   0.657  13.363  0.1244  2.2525 -1.7134
 6448TIP3   OH240834   6.240   2.191   5.924  0.8798  0.3735 -0.1223
 6448TIP3    H140835   6.167   2.249   5.941 -0.1187 -1.0724  0.7087
 6448TIP3    H240836   6.262   2.153   6.009  1.0758 -0.9392 -0.7272
 6449TIP3   OH240837   0.938   4.462  14.815 -0.9346 -0.2654 -0.1934
 6449TIP3    H140838   0.886   4.382  14.805 -0.4764 -1.0166  2.6036
 6449TIP3    H240839   1.002   4.441  14.882  0.2712  1.9800 -0.5357
 6450TIP3   OH240840   2.636   3.780   5.264 -0.2647  0.5085  0.1588
 6450TIP3    H140841   2.666   3.700   5.221  1.7942  0.8251  0.8944
 6450TIP3    H240842   2.570   3.750   5.326  0.6054 -0.6815  0.5528
 6451TIP3   OH240843   0.191   3.517  16.743  0.0060  0.2175  0.0202
 6451TIP3    H140844   0.114   3.545  16.793 -0.7020  0.3887 -1.1288
 6451TIP3    H240845   0.238   3.459  16.803 -1.7372 -1.0176  0.2838
 6452TIP3   OH240846   3.632   5.586  14.856  0.2043 -0.1966 -0.3202
 6452TIP3    H140847   3.622   5.550  14.944 -0.5062 -3.8177 -1.7126
 6452TIP3    H240848   3.714   5.634  14.859  0.0506  0.0335  2.3761
 6453TIP3   OH240849   4.310   3.257  10.985 -0.1195 -0.2158 -0.2630
 6453TIP3    H140850   4.373   3.286  10.919  1.2093 -2.2284  0.0309
 6453TIP3    H240851   4.250   3.200  10.937  1.2755 -2.2691  0.2944
 6454TIP3   OH240852   5.630   5.106  13.626 -0.1005  0.0320 -0.0703
 6454TIP3    H140853   5.539   5.080  13.612 -0.1138  1.1322 -2.6025
 6454TIP3    H240854   5.625   5.180  13.687 -0.6408 -1.3816  1.6716
 6455TIP3   OH240855   1.046   5.594  13.080  0.5776  1.3139  0.3341
 6455TIP3    H140856   1.106   5.660  13.114 -0.1137  1.9077  0.4384
 6455TIP3    H240857   0.971   5.595  13.140  1.2307 -0.7206  1.2767
 6456TIP3   OH240858   5.466   6.686   0.765  0.3148 -0.4808 -0.1156
 6456TIP3    H140859   5.400   6.617   0.761 -0.8937  0.5754  0.8205
 6456TIP3    H240860   5.529   6.655   0.830  0.2211 -1.0474 -0.2860
 6457TIP3   OH240861   0.620   1.598  16.232 -0.0748 -0.1818  0.0195
 6457TIP3    H140862   0.611   1.507  16.203  0.4708 -0.8564  1.8070
 6457TIP3    H240863   0.531   1.622  16.260 -0.8014  0.7611 -2.7571
 6458TIP3   OH240864   3.127   6.681  15.504 -0.1692  0.8130 -0.1457
 6458TIP3    H140865   3.081   6.748  15.453 -2.3234 -0.5596 -0.1482
 6458TIP3    H240866   3.118   6.601  15.452  1.6748  0.3274  0.2189
 6459TIP3   OH240867   3.262   4.238   1.923  0.8838  0.2563 -0.5302
 6459TIP3    H140868   3.217   4.172   1.976  0.4699  1.1294  0.2494
 6459TIP3    H240869   3.293   4.302   1.987  1.6910  0.5725 -1.2257
 6460TIP3   OH240870   4.796   1.483  11.969 -0.1267  0.0218  0.4364
 6460TIP3    H140871   4.882   1.516  11.940  0.6969 -0.1741  2.5025
 6460TIP3    H240872   4.740   1.494  11.892  1.4184  1.3580 -0.5842
 6461TIP3   OH240873   3.090   0.490  15.452  0.1706  0.5922 -0.1100
 6461TIP3    H140874   3.054   0.449  15.531  0.2978  0.5968 -0.0500
 6461TIP3    H240875   3.167   0.538  15.483 -0.1810  1.1739 -0.1242
 6462TIP3   OH240876   4.119   3.699  16.283  0.1901  0.9504 -0.0253
 6462TIP3    H140877   4.191   3.756  16.312  1.8541  0.2010 -2.4383
 6462TIP3    H240878   4.097   3.648  16.361  2.9045  0.5912  0.6300
 6463TIP3   OH240879   3.650   3.094  15.881 -0.4487 -0.1306 -0.2668
 6463TIP3    H140880   3.563   3.059  15.864 -0.4490  0.6324 -2.1042
 6463TIP3    H240881   3.654   3.174  15.829  1.9751 -1.1096 -1.7461
 6464TIP3   OH240882   2.454   4.550  11.583  0.7588 -0.3474  0.0575
 6464TIP3    H140883   2.534   4.500  11.598  0.0632 -1.2884  0.7916
 6464TIP3    H240884   2.479   4.619  11.522  1.7052 -1.7040 -1.1538
 6465TIP3   OH240885   0.716   0.692   3.340 -0.7884 -0.3683  0.1078
 6465TIP3    H140886   0.753   0.623   3.284 -0.5255 -0.1711  0.0363
 6465TIP3    H240887   0.731   0.661   3.429  0.6701  0.2799  0.1053
 6466TIP3   OH240888   3.597   4.900   5.237 -0.2727  0.1105 -0.0942
 6466TIP3    H140889   3.591   4.804   5.237  3.1569 -0.2808 -2.0660
 6466TIP3    H240890   3.574   4.925   5.147  1.3777  0.7991 -0.3625
 6467TIP3   OH240891   6.213   4.257  12.472  0.5906 -0.2495  0.5935
 6467TIP3    H140892   6.168   4.340  12.484  1.4466  0.1106  1.4700
 6467TIP3    H240893   6.226   4.249  12.378 -1.6135 -0.5488  0.2768
 6468TIP3   OH240894   4.021   2.397   4.918  0.0900  0.0764 -0.0157
 6468TIP3    H140895   4.013   2.455   4.843 -1.3534  0.1965  0.2019
 6468TIP3    H240896   4.001   2.453   4.994 -2.3782 -0.8539  0.1186
 6469TIP3   OH240897   6.684   3.335  11.564  0.0222  0.2032 -0.8415
 6469TIP3    H140898   6.714   3.423  11.545 -0.1351  0.6724  0.9382
 6469TIP3    H240899   6.742   3.278  11.513  2.1374  1.2075  0.3210
 6470TIP3   OH240900   1.253   3.036   5.328  0.1729 -0.6611 -0.7022
 6470TIP3    H140901   1.317   2.981   5.282  2.1911  0.6053  0.4421
 6470TIP3    H240902   1.297   3.121   5.336 -1.4579  0.0918  0.6210
 6471TIP3   OH240903   5.238   3.682   5.399 -0.0345  0.8919  0.2609
 6471TIP3    H140904   5.175   3.614   5.377  0.3567  0.5537  0.1841
 6471TIP3    H240905   5.188   3.745   5.452 -0.1651  0.0962  1.0922
 6472TIP3   OH240906   6.515   6.803   2.392  0.9169  0.8985  0.3532
 6472TIP3    H140907   6.528   6.891   2.429 -0.4909  1.6178 -0.7577
 6472TIP3    H240908   6.603   6.773   2.370  1.4152  2.0568  0.6908
 6473TIP3   OH240909   3.072   3.060  13.877 -0.4166 -0.5857 -0.0630
 6473TIP3    H140910   2.993   3.008  13.860  0.4676 -2.8840  2.2167
 6473TIP3    H240911   3.039   3.143  13.913 -1.8257  0.0536 -2.6094
 6474TIP3   OH240912   6.033   5.520  12.955 -0.5397  0.0267  0.3124
 6474TIP3    H140913   5.948   5.537  12.914 -0.6831 -0.2505  0.4943
 6474TIP3    H240914   6.031   5.573  13.035 -0.2127  0.6635 -0.0887
 6475TIP3   OH240915   5.372   6.040   3.596 -0.0409 -0.3978  0.1459
 6475TIP3    H140916   5.384   6.068   3.687  0.6663  0.3677 -0.1762
 6475TIP3    H240917   5.460   6.031   3.562 -0.0185  4.5707 -2.0378
 6476TIP3   OH240918   6.687   6.471  11.194  0.2852 -0.0966 -0.9312
 6476TIP3    H140919   6.646   6.522  11.124 -1.7073  0.6589  0.6736
 6476TIP3    H240920   6.715   6.537  11.258  1.7713 -0.7920 -0.8250
 6477TIP3   OH240921   5.927   2.817  12.495  0.0794  0.3774 -0.0564
 6477TIP3    H140922   6.012   2.841  12.532 -0.3605 -0.6219  1.7493
 6477TIP3    H240923   5.901   2.892  12.442  1.4990  1.2238  0.3969
 6478TIP3   OH240924   2.827   2.129   5.682  0.5923 -0.2557 -0.9316
 6478TIP3    H140925   2.830   2.220   5.652  2.6457 -0.2570 -0.8511
 6478TIP3    H240926   2.858   2.132   5.772  3.0282 -1.2473 -1.6517
 6479TIP3   OH240927   5.574   0.554   5.786  0.0710 -0.0053 -0.1064
 6479TIP3    H140928   5.638   0.555   5.715  0.2830  1.8477  0.0733
 6479TIP3    H240929   5.622   0.589   5.861 -0.1373 -1.9748  1.0056
 6480TIP3   OH240930   5.369   5.354   1.003  0.0082 -0.4581  0.4825
 6480TIP3    H140931   5.273   5.359   0.997  0.1370  3.1657 -0.5091
 6480TIP3    H240932   5.391   5.405   1.080  1.2083  0.3517 -0.3631
 6481TIP3   OH240933   2.100   0.995   3.044 -0.0359 -0.1420 -0.4877
 6481TIP3    H140934   2.022   0.972   3.095  0.1756  0.2718  0.0253
 6481TIP3    H240935   2.101   0.932   2.973 -1.3503  0.4007 -1.0207
 6482TIP3   OH240936   3.334   3.850   2.325 -0.2931 -0.9491  0.2033
 6482TIP3    H140937   3.366   3.793   2.255 -2.0721  0.6342 -2.0359
 6482TIP3    H240938   3.243   3.869   2.302 -0.8865 -0.1233  2.8414
 6483TIP3   OH240939   0.368   3.593  13.659  0.1114 -0.0931  0.1646
 6483TIP3    H140940   0.392   3.509  13.699  1.4546  0.7168  1.1470
 6483TIP3    H240941   0.427   3.601  13.584  0.1656  0.0809  0.2249
 6484TIP3   OH240942   1.397   1.268  11.303 -0.5224  0.6201 -0.1500
 6484TIP3    H140943   1.481   1.298  11.268 -1.0414  1.3462 -0.8148
 6484TIP3    H240944   1.416   1.245  11.394  1.0303 -2.0890 -1.0611
 6485TIP3   OH240945   1.708   6.631  11.565  0.3561 -0.6810  0.1223
 6485TIP3    H140946   1.634   6.689  11.546 -0.0112 -0.3996  2.1738
 6485TIP3    H240947   1.691   6.553  11.512 -0.5731  0.0102 -0.6331
 6486TIP3   OH240948   0.911   1.271  13.159  0.2276  0.0184  0.4730
 6486TIP3    H140949   0.927   1.365  13.148  0.4566 -0.1007 -0.2378
 6486TIP3    H240950   0.958   1.230  13.087  0.3119 -0.6642  0.9102
 6487TIP3   OH240951   0.754   4.025  11.616 -0.4686  0.1737 -0.0974
 6487TIP3    H140952   0.670   4.009  11.573  0.2716 -0.2887 -1.4317
 6487TIP3    H240953   0.782   4.111  11.584 -0.1288  0.0386 -0.1646
 6488TIP3   OH240954   6.267   5.473   0.536 -0.0885 -0.4467 -0.7420
 6488TIP3    H140955   6.321   5.527   0.478 -1.4497  0.1108 -1.5445
 6488TIP3    H240956   6.330   5.423   0.588  1.1875  0.3090 -1.5059
 6489TIP3   OH240957   1.731   1.441   4.263  0.1203 -0.4798  0.1818
 6489TIP3    H140958   1.754   1.348   4.254 -0.1832 -0.3458 -2.8088
 6489TIP3    H240959   1.782   1.485   4.195 -2.5411  1.0101 -0.9762
 6490TIP3   OH240960   6.516   2.497  11.432  0.0334  0.1440 -0.1784
 6490TIP3    H140961   6.427   2.461  11.429 -0.3651  0.8109  1.9461
 6490TIP3    H240962   6.504   2.591  11.423  0.4067  0.3313  1.1162
 6491TIP3   OH240963   1.063   0.685  12.567 -0.1154 -0.8830 -0.4076
 6491TIP3    H140964   0.980   0.705  12.524  0.2489  1.6688 -0.1187
 6491TIP3    H240965   1.068   0.748  12.639  1.9860 -1.0788 -0.3259
 6492TIP3   OH240966   2.492   4.147   1.887  0.0603 -0.5088  0.0558
 6492TIP3    H140967   2.474   4.170   1.795 -1.1044 -0.2598  0.3343
 6492TIP3    H240968   2.587   4.155   1.895  0.3390 -1.7746 -1.4616
 6493TIP3   OH240969   0.726   3.239   5.338 -0.0823 -0.0358 -0.0357
 6493TIP3    H140970   0.818   3.226   5.357 -0.0397 -1.1749 -0.9417
 6493TIP3    H240971   0.681   3.221   5.420  0.3838 -1.1648 -0.0099
 6494TIP3   OH240972   1.891   5.560  16.305  0.1753  0.1626  0.2901
 6494TIP3    H140973   1.850   5.512  16.233  1.0524 -2.1111  1.2055
 6494TIP3    H240974   1.825   5.624  16.333 -1.7251 -1.6020  0.0338
 6495TIP3   OH240975   2.648   4.958   2.720 -0.7515 -0.6258 -0.0806
 6495TIP3    H140976   2.622   5.035   2.771 -2.6114 -0.6591 -0.8925
 6495TIP3    H240977   2.722   4.989   2.667 -0.9134  0.3355  0.2357
 6496TIP3   OH240978   2.603   1.785   2.942 -0.1300  0.3837  0.0049
 6496TIP3    H140979   2.528   1.803   2.885 -0.6028 -0.7944  0.2157
 6496TIP3    H240980   2.566   1.782   3.030  0.2004  0.0421  0.1370
 6497TIP3   OH240981   4.607   2.273  12.518 -0.2341 -0.0001 -0.9664
 6497TIP3    H140982   4.702   2.265  12.521 -0.2589 -0.0431  1.0348
 6497TIP3    H240983   4.592   2.368  12.512 -0.0389  0.1467  0.4577
 6498TIP3   OH240984   6.404   5.123   1.001 -0.0715 -0.0433 -0.2265
 6498TIP3    H140985   6.373   5.196   1.055 -2.5252 -0.3797 -1.0550
 6498TIP3    H240986   6.337   5.056   1.011  0.5950 -1.0171 -1.8595
 6499TIP3   OH240987   0.777   0.281  13.071  0.0709 -0.4576 -0.1493
 6499TIP3    H140988   0.803   0.190  13.084 -0.3587 -0.4116  1.1568
 6499TIP3    H240989   0.844   0.332  13.118  1.6685  0.0809 -2.7912
 6500TIP3   OH240990   5.200   2.855  13.896  0.0523 -0.2865 -0.0728
 6500TIP3    H140991   5.137   2.911  13.940  0.2946  0.0380 -0.1328
 6500TIP3    H240992   5.244   2.807  13.967  0.7271  0.5348  0.0791
 6501TIP3   OH240993   6.631   0.977   6.025  0.0770 -0.6413 -0.1421
 6501TIP3    H140994   6.707   0.921   6.037  0.8978  0.5871  0.6030
 6501TIP3    H240995   6.557   0.923   6.053  0.8048 -1.4253  0.3168
 6502TIP3   OH240996   5.842   1.887   5.333 -0.6622 -0.0279 -0.1408
 6502TIP3    H140997   5.929   1.864   5.365 -0.8234  1.6667  1.6552
 6502TIP3    H240998   5.784   1.819   5.369 -0.2646 -0.4429 -0.2827
 6503TIP3   OH240999   1.427   4.495  11.343 -0.4337  0.1501  0.6562
 6503TIP3    H141000   1.449   4.456  11.427 -0.5570  1.9745  1.5685
 6503TIP3    H241001   1.335   4.520  11.352  0.0915  2.1864  0.7566
 6504TIP3   OH241002   3.442   0.208   5.473 -0.3089 -0.1755 -0.0640
 6504TIP3    H141003   3.523   0.195   5.523 -2.0589 -2.1826  2.4777
 6504TIP3    H241004   3.442   0.138   5.408 -1.1188 -1.8232  1.6260
 6505TIP3   OH241005   4.736   4.394   5.737  0.2416 -0.3880 -0.3548
 6505TIP3    H141006   4.681   4.317   5.722 -1.3317  0.7159 -0.5984
 6505TIP3    H241007   4.674   4.467   5.741  1.7102  0.9353 -0.5978
 6506TIP3   OH241008   1.043   0.203  15.993 -0.1383  0.0857  0.0479
 6506TIP3    H141009   1.046   0.185  15.899  0.8461  1.4885 -0.2250
 6506TIP3    H241010   1.009   0.292  15.999  0.1805  0.1512  0.9901
 6507TIP3   OH241011   1.284   0.639   1.064  0.4031 -0.2139  0.0230
 6507TIP3    H141012   1.224   0.667   1.133 -0.4438  0.7395 -1.0880
 6507TIP3    H241013   1.362   0.693   1.077 -0.4667  1.3081 -0.8873
 6508TIP3   OH241014   6.742   2.130  12.231  0.5270  1.0451 -0.3617
 6508TIP3    H141015   6.748   2.052  12.285 -2.4210  0.9468  0.0058
 6508TIP3    H241016   6.762   2.100  12.142  0.5145  0.1154 -0.0539
 6509TIP3   OH241017   6.249   1.521  11.333 -0.0485 -0.0327  0.3310
 6509TIP3    H141018   6.343   1.504  11.338 -0.0794 -0.4694 -0.4802
 6509TIP3    H241019   6.214   1.482  11.413  0.6074  1.2475  1.2844
 6510TIP3   OH241020   5.952   0.636   3.982  0.1603 -0.1840 -0.3479
 6510TIP3    H141021   5.905   0.639   4.066 -0.0126  1.7137 -0.4590
 6510TIP3    H241022   6.044   0.636   4.006  0.1104  0.2577 -0.1402
 6511TIP3   OH241023   2.783   0.311   3.736 -0.7103  0.2053 -0.4083
 6511TIP3    H141024   2.780   0.235   3.795  0.0222  0.7357  0.3461
 6511TIP3    H241025   2.736   0.379   3.783 -0.6213  0.4704 -0.7031
 6512TIP3   OH241026   5.792   1.468  14.243  0.7292 -0.5737  0.3430
 6512TIP3    H141027   5.756   1.380  14.234  1.3049 -0.8473  0.6894
 6512TIP3    H241028   5.740   1.507  14.314  1.6729 -1.2729  1.4570
 6513TIP3   OH241029   2.824   1.894  13.674  0.0191 -0.1091  0.6225
 6513TIP3    H141030   2.779   1.939  13.602 -1.0141  0.3242  1.5160
 6513TIP3    H241031   2.854   1.964  13.732 -1.0943 -0.5167  1.7330
 6514TIP3   OH241032   2.900   4.838  15.936  0.2728 -0.3827 -0.0411
 6514TIP3    H141033   2.901   4.900  15.863  0.4124  0.4646  0.6616
 6514TIP3    H241034   2.976   4.863  15.990  0.7131 -1.5808 -0.0772
 6515TIP3   OH241035   0.063   2.586   2.002 -0.8443 -0.1805 -0.7153
 6515TIP3    H141036   0.100   2.673   1.991  0.4641 -0.6490 -0.1440
 6515TIP3    H241037   0.132   2.535   2.045 -1.3930 -1.6246 -1.4665
 6516TIP3   OH241038   2.940   2.288  13.568 -0.0878 -0.1496  0.1882
 6516TIP3    H141039   2.962   2.258  13.656 -1.0833  0.2134  0.5602
 6516TIP3    H241040   2.852   2.255  13.552  0.2225 -0.5247 -0.8175
 6517TIP3   OH241041   0.749   1.294   4.505 -0.4831  0.1506  0.9203
 6517TIP3    H141042   0.742   1.220   4.445  1.3449  0.0901  0.7413
 6517TIP3    H241043   0.673   1.349   4.485 -1.6849 -1.4901  0.8322
 6518TIP3   OH241044   2.332   3.971  11.382  0.7797 -0.5813 -1.0811
 6518TIP3    H141045   2.337   3.984  11.287 -0.3593  0.9971 -0.9570
 6518TIP3    H241046   2.250   3.923  11.395  0.8659 -0.6777 -0.8880
 6519TIP3   OH241047   5.755   6.388  14.581  0.2385  0.1673 -0.3640
 6519TIP3    H141048   5.814   6.400  14.655  0.2208 -4.2908  0.6622
 6519TIP3    H241049   5.667   6.398  14.619  0.2381  1.2778 -0.6262
 6520TIP3   OH241050   5.432   3.451   1.755  0.8026 -0.4512  0.4275
 6520TIP3    H141051   5.523   3.482   1.760  0.3294  0.8779  0.9446
 6520TIP3    H241052   5.398   3.490   1.675  0.5034 -0.4650  0.5490
 6521TIP3   OH241053   6.790   0.106   1.105 -0.1695 -0.6543 -0.1154
 6521TIP3    H141054   6.866   0.049   1.112  0.5650 -0.0512 -2.1787
 6521TIP3    H241055   6.723   0.053   1.062  0.0967 -0.3426 -0.9287
 6522TIP3   OH241056   1.941   6.036   2.839  0.6507  0.0712  0.3483
 6522TIP3    H141057   1.850   6.041   2.868  0.0651 -1.1076 -1.1428
 6522TIP3    H241058   1.936   5.998   2.751  2.6136 -0.3387  0.3649
 6523TIP3   OH241059   6.611   2.574   3.118  0.8023 -0.1394 -0.3571
 6523TIP3    H141060   6.657   2.649   3.158 -2.4905  0.3925  3.0856
 6523TIP3    H241061   6.636   2.499   3.172 -1.0727 -0.1051  0.6366
 6524TIP3   OH241062   4.742   5.506  15.832 -0.2637  0.1279 -0.1119
 6524TIP3    H141063   4.717   5.423  15.873  2.1077 -1.0313 -0.8082
 6524TIP3    H241064   4.742   5.488  15.738  2.1688  0.2191 -0.2059
 6525TIP3   OH241065   4.092   0.939   5.508 -0.3293  0.1139 -0.0994
 6525TIP3    H141066   4.143   0.865   5.476 -0.1879 -0.3625  1.1878
 6525TIP3    H241067   4.056   0.978   5.429 -0.4746 -1.3769 -0.8149
 6526TIP3   OH241068   2.076   0.930  14.277  0.0499 -0.2825  0.4249
 6526TIP3    H141069   2.056   0.950  14.368 -1.4899  0.0727  0.0395
 6526TIP3    H241070   2.092   1.016  14.237  1.7938 -0.4982  0.5477
 6527TIP3   OH241071   2.294   1.928  12.472  0.3224  0.5079  0.4694
 6527TIP3    H141072   2.233   1.952  12.541 -2.3667 -0.0955 -1.5373
 6527TIP3    H241073   2.297   2.005  12.415  1.6091  0.5893  0.6209
 6528TIP3   OH241074   5.527   1.932  12.367  0.1634  0.5204  0.0551
 6528TIP3    H141075   5.460   1.969  12.424  0.4139 -0.5981  1.1104
 6528TIP3    H241076   5.525   1.987  12.289 -2.1688  0.3302 -0.0685
 6529TIP3   OH241077   5.500   4.888  15.996  0.7224  0.3701 -0.0565
 6529TIP3    H141078   5.545   4.835  15.930  0.7404 -0.9560  0.9774
 6529TIP3    H241079   5.414   4.905  15.958  1.2025  0.7805 -0.9876
 6530TIP3   OH241080   4.061   3.373   5.108 -0.5657 -0.1505  0.3583
 6530TIP3    H141081   4.080   3.336   5.195  0.1332 -0.9315 -0.1020
 6530TIP3    H241082   4.147   3.403   5.076 -0.5783 -1.0517 -0.5780
 6531TIP3   OH241083   5.651   1.705   1.541 -0.3369  0.2490  0.5112
 6531TIP3    H141084   5.628   1.663   1.624 -1.3000  0.7214  0.4991
 6531TIP3    H241085   5.670   1.796   1.565 -0.9373  0.4645  0.1717
 6532TIP3   OH241086   2.339   4.913  16.542 -0.1116 -0.0319 -0.2536
 6532TIP3    H141087   2.388   4.843  16.499  1.7229 -0.0525  1.6791
 6532TIP3    H241088   2.372   4.994  16.502  0.4261 -0.1197  0.0071
 6533TIP3   OH241089   5.910   1.052   3.266 -0.5038  0.4507 -0.2968
 6533TIP3    H141090   5.954   1.057   3.181  0.5303  0.8625  0.2442
 6533TIP3    H241091   5.880   1.142   3.282 -1.2715  0.2419 -0.5083
 6534TIP3   OH241092   5.102   1.643  12.494  0.2991 -0.2339 -0.0159
 6534TIP3    H141093   5.178   1.667  12.547 -0.0042  0.1372  0.2546
 6534TIP3    H241094   5.139   1.620  12.409  0.7083  0.0002  0.0949
 6535TIP3   OH241095   3.584   2.846   3.688  0.4541  0.0842 -0.1209
 6535TIP3    H141096   3.641   2.771   3.673  0.5700  0.2094 -0.3208
 6535TIP3    H241097   3.506   2.810   3.728  0.3027 -0.2082 -0.6732
 6536TIP3   OH241098   1.891   4.427   2.107  0.2779 -0.4985 -0.3767
 6536TIP3    H141099   1.966   4.370   2.091 -0.0255 -0.8148 -0.6948
 6536TIP3    H241100   1.925   4.497   2.162  1.1417  0.1200 -1.6607
 6537TIP3   OH241101   1.519   1.882   6.339 -0.1490 -0.7665 -0.1526
 6537TIP3    H141102   1.478   1.946   6.396  0.4214  0.2348 -0.8239
 6537TIP3    H241103   1.462   1.879   6.262 -0.3047 -1.2475 -0.0178
 6538TIP3   OH241104   2.096   1.182  14.112  0.0159 -0.1605 -0.3870
 6538TIP3    H141105   2.099   1.258  14.171 -0.8063 -0.6185  0.2672
 6538TIP3    H241106   2.185   1.174  14.080  0.4427  0.2365  0.6307
 6539TIP3   OH241107   5.734   3.598   3.423  0.7877 -0.1364  0.0668
 6539TIP3    H141108   5.669   3.662   3.451  1.2705  0.5978 -0.4364
 6539TIP3    H241109   5.700   3.514   3.454  0.9630  0.5234  2.2156
 6540TIP3   OH241110   4.832   6.815  15.730  0.2012  0.4506 -0.3117
 6540TIP3    H141111   4.908   6.760  15.711 -0.8021 -1.2512  0.3607
 6540TIP3    H241112   4.772   6.757  15.776 -1.3615  1.8560 -0.4940
 6541TIP3   OH241113   3.818   3.829  11.590 -0.3074  0.1001  0.5337
 6541TIP3    H141114   3.851   3.739  11.595 -0.8010 -0.1837 -0.7076
 6541TIP3    H241115   3.815   3.859  11.680 -1.2622 -1.5576  1.1068
 6542TIP3   OH241116   0.781   5.842  14.153  0.3519  0.3617  0.5255
 6542TIP3    H141117   0.858   5.788  14.168  0.0902 -0.4713 -0.9499
 6542TIP3    H241118   0.713   5.781  14.127 -0.1337  1.3286 -0.5783
 6543TIP3   OH241119   0.739   5.901   3.601 -0.4696 -0.1869 -0.0110
 6543TIP3    H141120   0.796   5.943   3.666  0.8498 -0.0645 -1.2017
 6543TIP3    H241121   0.682   5.972   3.570  0.9970  0.5266 -1.2045
 6544TIP3   OH241122   3.030   5.081   0.862 -0.0956  0.4705 -0.0772
 6544TIP3    H141123   2.936   5.061   0.858  0.1385 -0.4820 -1.2518
 6544TIP3    H241124   3.034   5.173   0.891 -1.3775  0.5422 -0.0824
 6545TIP3   OH241125   0.482   5.580  16.478 -0.5803 -0.4541 -0.4491
 6545TIP3    H141126   0.518   5.655  16.430 -0.6958 -0.8446 -1.1452
 6545TIP3    H241127   0.400   5.560  16.434  0.4324 -2.3144 -1.6120
 6546TIP3   OH241128   0.534   4.313  16.334  0.3883  0.2004  0.1116
 6546TIP3    H141129   0.491   4.398  16.340  1.8718  1.2586 -2.4724
 6546TIP3    H241130   0.571   4.311  16.246  0.2115 -3.2705 -0.0121
 6547TIP3   OH241131   5.288   5.811   5.010  0.0645 -0.2174  0.2046
 6547TIP3    H141132   5.339   5.858   4.945  0.7915 -0.2420  0.7393
 6547TIP3    H241133   5.348   5.802   5.085 -0.5218 -0.7841  0.6135
 6548TIP3   OH241134   4.995   1.249   5.386  0.5628 -0.2243  0.1255
 6548TIP3    H141135   4.989   1.332   5.339 -0.0030 -0.5345 -0.3618
 6548TIP3    H241136   5.021   1.273   5.475  2.1268  0.3324 -0.4571
 6549TIP3   OH241137   3.234   5.784   0.717  0.6021 -0.2685 -0.1314
 6549TIP3    H141138   3.299   5.822   0.775 -0.0140  0.0668  0.3453
 6549TIP3    H241139   3.279   5.776   0.633  1.2045  0.1064  0.1493
 6550TIP3   OH241140   4.612   2.068  15.113 -0.2326  0.1568  0.0505
 6550TIP3    H141141   4.527   2.106  15.092 -1.4627 -1.4300  1.7600
 6550TIP3    H241142   4.623   1.996  15.050 -0.9906 -0.6833  0.8387
 6551TIP3   OH241143   5.965   2.401   5.552 -0.6941  0.2125  0.3753
 6551TIP3    H141144   6.049   2.414   5.597  0.5881 -0.4476 -1.6684
 6551TIP3    H241145   5.920   2.334   5.603  0.4712 -0.1628  0.9574
 6552TIP3   OH241146   6.830   4.658   0.936 -0.3333 -0.2569  0.3688
 6552TIP3    H141147   6.823   4.637   0.843  0.2942  1.2718 -0.0640
 6552TIP3    H241148   6.796   4.581   0.982 -1.8235 -0.5449 -1.1470
 6553TIP3   OH241149   6.767   3.983  15.681  0.3667 -0.4539 -0.1971
 6553TIP3    H141150   6.840   4.030  15.721  1.3315 -1.1592 -1.0816
 6553TIP3    H241151   6.737   4.041  15.611 -0.1748 -0.0129  0.3773
 6554TIP3   OH241152   1.711   5.019  10.385 -0.9643 -0.4233  0.0288
 6554TIP3    H141153   1.626   5.043  10.348 -2.0004 -0.9054  1.9444
 6554TIP3    H241154   1.765   5.096  10.372 -1.7897  0.0206 -0.9383
 6555TIP3   OH241155   2.393   1.764   3.149 -0.4498  0.5054 -0.0184
 6555TIP3    H141156   2.333   1.733   3.217  0.8097  0.1684  0.9922
 6555TIP3    H241157   2.338   1.812   3.087 -2.1980 -2.2039 -0.6981
 6556TIP3   OH241158   0.482   6.653   4.030 -0.7313 -0.0876  0.0389
 6556TIP3    H141159   0.495   6.646   4.124 -2.4443  0.3286  0.3476
 6556TIP3    H241160   0.442   6.569   4.005  1.0909 -0.8110 -0.6208
 6557TIP3   OH241161   2.291   2.326  12.757 -0.5182  0.1369 -0.3635
 6557TIP3    H141162   2.352   2.253  12.747  0.2463  0.7270 -0.1329
 6557TIP3    H241163   2.209   2.294  12.720 -0.1736 -0.8034 -0.3466
 6558TIP3   OH241164   4.315   1.876  14.865  0.2784  0.3593 -0.2156
 6558TIP3    H141165   4.285   1.797  14.820  2.7176 -1.3855  0.9620
 6558TIP3    H241166   4.239   1.905  14.915 -1.9249  1.2404 -3.7250
 6559TIP3   OH241167   3.160   4.942  11.471 -0.1946  0.2673  0.0795
 6559TIP3    H141168   3.199   4.892  11.543 -0.0959  1.3411  0.7859
 6559TIP3    H241169   3.075   4.901  11.457  0.1791 -0.5545  0.1617
 6560TIP3   OH241170   4.171   0.355  11.866 -0.2486 -0.0382 -0.3483
 6560TIP3    H141171   4.218   0.355  11.949 -1.3407 -2.4300  0.3751
 6560TIP3    H241172   4.124   0.439  11.865  2.3878  1.5495 -0.2224
 6561TIP3   OH241173   3.980   6.011   3.084 -0.5375 -0.3006 -0.0856
 6561TIP3    H141174   4.056   6.041   3.134  0.7499  0.0148 -2.1070
 6561TIP3    H241175   3.916   6.082   3.093 -0.4940 -0.4124  1.3458
 6562TIP3   OH241176   4.112   6.616  14.476 -0.2431  0.0250  0.7067
 6562TIP3    H141177   4.077   6.616  14.564 -1.6255  0.0500  0.1731
 6562TIP3    H241178   4.138   6.707  14.460  1.0871 -0.1966  1.4797
 6563TIP3   OH241179   3.338   1.367   3.498 -0.2636 -0.3060 -0.4508
 6563TIP3    H141180   3.357   1.331   3.585  1.3542 -0.3182 -0.7823
 6563TIP3    H241181   3.249   1.402   3.506  0.9333  2.6883  2.2818
 6564TIP3   OH241182   6.453   5.523  16.651  0.5324 -0.4452 -0.0558
 6564TIP3    H141183   6.391   5.474  16.596  1.6614 -1.2231 -0.6663
 6564TIP3    H241184   6.529   5.536  16.595  0.5616  1.3849  0.3433
 6565TIP3   OH241185   4.380   6.441   5.914  0.1685  0.3485  0.5318
 6565TIP3    H141186   4.355   6.438   6.006 -0.6458  1.1240  0.3537
 6565TIP3    H241187   4.447   6.509   5.909  0.4600  0.0654  0.6088
 6566TIP3   OH241188   5.956   5.251  12.500  0.6739 -0.2650 -0.1683
 6566TIP3    H141189   6.019   5.235  12.429  0.7896 -2.1045  0.3039
 6566TIP3    H241190   5.996   5.321  12.551  0.0868  1.8784 -2.4634
 6567TIP3   OH241191   4.959   4.771   2.102 -0.0669  0.5055 -0.0489
 6567TIP3    H141192   4.949   4.839   2.035  1.1394  0.0478 -0.7149
 6567TIP3    H241193   4.938   4.689   2.057  1.9276  0.0546 -0.2367
 6568TIP3   OH241194   3.634   1.298   3.114 -0.3872 -0.3407 -0.1034
 6568TIP3    H141195   3.635   1.225   3.052 -0.3105 -1.4987  1.2131
 6568TIP3    H241196   3.726   1.322   3.125 -0.4884  0.7000 -1.3531
 6569TIP3   OH241197   6.702   4.294  17.168  0.4265 -0.0436  0.3446
 6569TIP3    H141198   6.675   4.347  17.092  0.7431  1.1248  1.0168
 6569TIP3    H241199   6.621   4.283  17.219  0.3989 -0.0263  0.3058
 6570TIP3   OH241200   5.481   0.936   5.638  0.2330  0.3259  0.6149
 6570TIP3    H141201   5.466   0.927   5.544  0.4729 -1.5704  0.7181
 6570TIP3    H241202   5.577   0.934   5.647  0.2001 -0.0702  0.9251
 6571TIP3   OH241203   0.346   6.816  13.926  0.4120  0.5064 -0.0234
 6571TIP3    H141204   0.278   6.845  13.866 -0.5707 -0.5017  0.5785
 6571TIP3    H241205   0.309   6.829  14.013  0.9707 -0.1013  0.3129
 6572TIP3   OH241206   0.425   2.361  12.266 -0.6028  0.1375 -0.1803
 6572TIP3    H141207   0.450   2.419  12.194  0.0134 -0.4954 -0.4765
 6572TIP3    H241208   0.350   2.406  12.307 -0.4821  0.8712 -0.7398
 6573TIP3   OH241209   5.205   6.286   2.266  0.0801  0.7911  0.8192
 6573TIP3    H141210   5.192   6.191   2.258  1.4926  0.5509  1.1873
 6573TIP3    H241211   5.116   6.322   2.273 -0.5173 -0.4107 -0.2433
 6574TIP3   OH241212   1.110   3.587  14.279 -0.5357 -0.3349  0.4718
 6574TIP3    H141213   1.131   3.568  14.187 -2.8942 -1.0015 -0.0103
 6574TIP3    H241214   1.188   3.631  14.313  0.9835 -1.4009 -1.4119
 6575TIP3   OH241215   6.819   1.726   1.068  0.5700 -0.1325  0.4907
 6575TIP3    H141216   6.862   1.811   1.079  1.0925 -0.1421 -1.1585
 6575TIP3    H241217   6.731   1.738   1.103  0.5974  1.1272  0.1602
 6576TIP3   OH241218   6.110   5.393  13.470 -0.4813  0.1177 -0.0692
 6576TIP3    H141219   6.161   5.458  13.422 -1.3606  0.3995 -0.6581
 6576TIP3    H241220   6.121   5.312  13.420 -0.2056  0.0557  0.0909
 6577TIP3   OH241221   1.059   5.478  15.793 -0.0153 -0.2643 -0.0484
 6577TIP3    H141222   1.026   5.489  15.705  0.9235  0.6075 -0.3060
 6577TIP3    H241223   1.149   5.448  15.781  0.7429  1.6242  0.5586
 6578TIP3   OH241224   3.781   1.504  12.881 -0.0890 -0.8568  0.0683
 6578TIP3    H141225   3.877   1.502  12.887 -0.0568  0.8490  0.8476
 6578TIP3    H241226   3.763   1.548  12.798 -0.0750  1.7237  1.3084
 6579TIP3   OH241227   3.689   2.843  13.882 -0.4046  0.2012  0.2220
 6579TIP3    H141228   3.693   2.788  13.803 -1.6983  0.1366  0.1809
 6579TIP3    H241229   3.655   2.927  13.851  1.9334  1.2222  0.2136
 6580TIP3   OH241230   2.772   1.976  14.551 -0.3687 -0.6838  0.3519
 6580TIP3    H141231   2.774   2.054  14.606  0.9923 -2.6193  3.2833
 6580TIP3    H241232   2.703   1.922  14.589 -1.9375 -0.6774 -2.2058
 6581TIP3   OH241233   1.722   5.689  16.034 -0.1302  0.5777  0.3369
 6581TIP3    H141234   1.628   5.705  16.024 -0.2215  0.2481  0.6480
 6581TIP3    H241235   1.729   5.597  16.058 -0.0144  1.3643  3.9624
 6582TIP3   OH241236   4.216   0.052   0.962  0.1000  0.0637 -0.1088
 6582TIP3    H141237   4.292   0.101   0.994  0.1726 -0.0934 -0.0371
 6582TIP3    H241238   4.146   0.071   1.024  0.4872 -0.9628  0.6806
 6583TIP3   OH241239   5.319   5.697  16.979  0.5152 -0.8693  0.2674
 6583TIP3    H141240   5.407   5.719  16.947  0.5624 -0.3375  0.7531
 6583TIP3    H241241   5.303   5.759  17.050 -0.5786 -0.4379 -0.3415
 6584TIP3   OH241242   3.331   6.098   1.073  0.8062 -0.2933  0.3756
 6584TIP3    H141243   3.349   6.192   1.080 -0.0364 -0.2277  2.2904
 6584TIP3    H241244   3.237   6.093   1.054  1.3429 -0.7597 -2.7086
 6585TIP3   OH241245   2.423   3.609  16.498  0.2626  0.0700  0.0299
 6585TIP3    H141246   2.517   3.611  16.482  0.6886  3.0772  2.1070
 6585TIP3    H241247   2.384   3.635  16.414  1.0359 -2.7805 -1.3435
 6586TIP3   OH241248   3.753   0.121   4.477 -0.0057  0.7752  0.1383
 6586TIP3    H141249   3.782   0.057   4.542  0.8038  1.7263  0.7340
 6586TIP3    H241250   3.834   0.157   4.441 -0.4516  0.7705 -0.9156
 6587TIP3   OH241251   2.721   3.304  10.969 -0.1561 -0.1647  0.7783
 6587TIP3    H141252   2.804   3.309  10.921 -0.7091  0.1908 -0.1735
 6587TIP3    H241253   2.682   3.220  10.941 -0.4158 -0.0206  0.7010
 6588TIP3   OH241254   3.638   0.433  16.470  0.4519 -0.8601 -0.4486
 6588TIP3    H141255   3.564   0.457  16.413  0.5330 -2.1177 -1.1140
 6588TIP3    H241256   3.602   0.437  16.559 -0.0942 -0.3431 -0.6877
 6589TIP3   OH241257   0.155   1.105  12.543 -0.4977 -0.0272  0.3299
 6589TIP3    H141258   0.144   1.028  12.489 -0.4600  0.4770 -0.4068
 6589TIP3    H241259   0.152   1.072  12.633 -1.0759 -0.8009  0.0363
 6590TIP3   OH241260   6.220   2.127  15.015  0.6788 -0.7097  0.3470
 6590TIP3    H141261   6.194   2.053  14.960 -0.4974 -0.1518  0.1117
 6590TIP3    H241262   6.230   2.089  15.103 -0.2816 -1.0980  0.3042
 6591TIP3   OH241263   0.721   6.824  11.901 -0.3121  0.3702 -0.0753
 6591TIP3    H141264   0.686   6.849  11.987 -0.3955  0.7723 -0.2261
 6591TIP3    H241265   0.814   6.849  11.904  0.7463 -3.0601  1.3115
 6592TIP3   OH241266   2.198   2.748  14.660  0.1617  0.0780  0.0437
 6592TIP3    H141267   2.279   2.699  14.644 -0.5166 -1.4820  1.1682
 6592TIP3    H241268   2.228   2.835  14.689  1.4322 -0.4565  0.4021
 6593TIP3   OH241269   5.176   5.505   4.129 -0.2301 -0.0053  0.0515
 6593TIP3    H141270   5.188   5.599   4.140  0.6898  0.3643 -3.0194
 6593TIP3    H241271   5.114   5.497   4.056 -0.4231 -1.7846  0.3604
 6594TIP3   OH241272   5.634   4.610  14.812  0.4712 -0.1329 -0.5507
 6594TIP3    H141273   5.575   4.685  14.818 -0.2356 -0.5628 -1.7266
 6594TIP3    H241274   5.719   4.648  14.790  0.5249  0.4391  0.5444
 6595TIP3   OH241275   5.770   2.723   5.893 -0.6407 -0.4453 -0.2084
 6595TIP3    H141276   5.794   2.795   5.835 -1.0339 -0.6598 -0.6437
 6595TIP3    H241277   5.737   2.766   5.973  1.4174 -0.1381  0.5285
 6596TIP3   OH241278   3.760   0.584   2.978  0.9045 -0.1413  0.1654
 6596TIP3    H141279   3.713   0.543   2.906 -0.1268  0.6786  0.3306
 6596TIP3    H241280   3.842   0.535   2.986 -0.0962 -1.8879  0.1211
 6597TIP3   OH241281   2.664   3.452   5.209  0.0720  0.2044 -0.3390
 6597TIP3    H141282   2.569   3.461   5.216  0.2143  1.3988  0.1624
 6597TIP3    H241283   2.677   3.362   5.177 -1.2693  0.4588 -1.7059
 6598TIP3   OH241284   5.043   5.011  11.960  1.0340  0.2810 -0.2130
 6598TIP3    H141285   5.062   5.041  12.049 -2.0113  4.0542 -0.5757
 6598TIP3    H241286   5.073   5.082  11.904 -2.0769  0.6625 -1.6161
 6599TIP3   OH241287   0.356   2.145   4.859  0.3806  0.3875 -0.4886
 6599TIP3    H141288   0.305   2.069   4.885  0.1824  0.9931  1.0039
 6599TIP3    H241289   0.321   2.170   4.773 -1.4622  0.4377  0.2307
 6600TIP3   OH241290   6.103   6.795  11.848 -0.2638 -0.2211  0.3994
 6600TIP3    H141291   6.113   6.888  11.826  0.6630 -0.3673  0.1415
 6600TIP3    H241292   6.170   6.780  11.915  2.8190 -1.6797 -2.6566
 6601TIP3   OH241293   4.425   0.134  16.043  0.4581  0.5276 -0.0801
 6601TIP3    H141294   4.495   0.190  16.008  1.5265 -0.7686 -0.1061
 6601TIP3    H241295   4.399   0.079  15.970  0.7461 -0.2921  0.4235
 6602TIP3   OH241296   6.167   5.069   3.804 -0.2162  0.4324  0.3996
 6602TIP3    H141297   6.189   4.979   3.777  4.0591  0.7852  1.8903
 6602TIP3    H241298   6.187   5.122   3.727 -0.4641  0.2888  0.2377
 6603TIP3   OH241299   3.634   0.179   2.949 -0.7634  0.4843 -0.4176
 6603TIP3    H141300   3.611   0.102   2.897 -1.8672  0.7255 -0.3114
 6603TIP3    H241301   3.717   0.156   2.990 -1.4437 -0.9626  0.2342
 6604TIP3   OH241302   0.171   4.621  15.040 -0.4406 -0.3828  0.2278
 6604TIP3    H141303   0.185   4.688  15.106  0.8492  1.7207 -2.0272
 6604TIP3    H241304   0.174   4.538  15.089  1.0005  1.0022  2.6869
 6605TIP3   OH241305   6.356   2.225   0.604 -0.2565 -0.7122  0.2131
 6605TIP3    H141306   6.381   2.141   0.642  0.3110 -0.2857  0.8103
 6605TIP3    H241307   6.296   2.263   0.669 -1.0261 -0.9314 -0.3581
 6606TIP3   OH241308   6.337   5.977   6.334 -0.8181  0.1883  0.1445
 6606TIP3    H141309   6.422   5.940   6.357 -1.4306  0.3820  3.0439
 6606TIP3    H241310   6.356   6.065   6.304  0.1165 -0.3603 -0.9588
 6607TIP3   OH241311   5.811   5.437  16.958 -0.0197  0.2809 -0.6202
 6607TIP3    H141312   5.727   5.473  16.929 -0.7970 -1.0219 -0.0686
 6607TIP3    H241313   5.787   5.367  17.019  1.4583 -0.6601 -1.0822
 6608TIP3   OH241314   2.863   2.553   0.956 -0.2756 -0.0322  0.0659
 6608TIP3    H141315   2.792   2.496   0.928 -1.3651  1.2969 -0.0007
 6608TIP3    H241316   2.858   2.552   1.051 -1.3329  1.1365  0.0553
 6609TIP3   OH241317   5.626   1.205   0.584  0.0762 -0.1244  0.1555
 6609TIP3    H141318   5.614   1.250   0.668 -0.4813  0.9886 -0.4937
 6609TIP3    H241319   5.560   1.244   0.527  0.2794 -1.0529 -0.7372
 6610TIP3   OH241320   4.151   3.757  15.520 -0.5496 -0.5516 -0.1719
 6610TIP3    H141321   4.083   3.737  15.584 -1.5109  0.2564 -0.9038
 6610TIP3    H241322   4.156   3.678  15.465 -0.1517 -1.0069  0.5109
 6611TIP3   OH241323   3.803   2.365   0.953  0.2519  0.6303 -0.6977
 6611TIP3    H141324   3.882   2.311   0.946 -0.2281 -0.0047 -1.3411
 6611TIP3    H241325   3.835   2.449   0.988  1.1651  0.2938 -0.6856
 6612TIP3   OH241326   4.377   4.901  16.375 -0.3590  0.1420 -0.3650
 6612TIP3    H141327   4.372   4.961  16.301 -2.0002 -0.8038 -1.0718
 6612TIP3    H241328   4.415   4.821  16.339 -2.2086 -0.7187 -0.5262
 6613TIP3   OH241329   6.036   2.802   0.534 -0.0996 -0.3908 -0.2905
 6613TIP3    H141330   6.120   2.760   0.548  0.9511  1.7061  0.0672
 6613TIP3    H241331   6.029   2.866   0.605 -0.0681  2.3077 -2.5589
 6614TIP3   OH241332   1.921   6.727  11.714 -0.0219  0.5525 -0.1462
 6614TIP3    H141333   1.926   6.795  11.647 -1.3792  0.3842 -0.4527
 6614TIP3    H241334   1.830   6.696  11.711  0.4036 -0.8684  0.3883
 6615TIP3   OH241335   2.371   3.003   6.475 -0.0767 -0.0095 -0.4250
 6615TIP3    H141336   2.456   3.040   6.450  0.5653 -1.2252 -0.0858
 6615TIP3    H241337   2.330   2.980   6.391  0.5864 -0.8307 -0.5379
 6616TIP3   OH241338   6.357   4.206   4.342  0.0181  0.3838  0.4554
 6616TIP3    H141339   6.423   4.273   4.325  0.7373 -1.0386 -3.3782
 6616TIP3    H241340   6.403   4.139   4.392  2.0975 -1.0641 -2.9958
 6617TIP3   OH241341   3.514   3.648   4.305 -0.2908  0.0913 -0.0326
 6617TIP3    H141342   3.497   3.737   4.337 -0.1859 -0.3704  1.4012
 6617TIP3    H241343   3.443   3.630   4.244 -0.4621  1.0554 -0.1312
 6618TIP3   OH241344   4.815   5.950  11.449  0.1174 -0.1049  0.4063
 6618TIP3    H141345   4.831   5.945  11.543  0.9069  0.7280  0.3350
 6618TIP3    H241346   4.901   5.931  11.409 -0.1933 -0.3846 -0.1421
 6619TIP3   OH241347   1.468   5.956  15.907 -0.3941  0.0742 -0.1689
 6619TIP3    H141348   1.517   5.975  15.988 -1.2258 -2.1138  0.9347
 6619TIP3    H241349   1.376   5.969  15.931 -0.7341 -1.7892 -0.3692
 6620TIP3   OH241350   3.298   2.090   4.679 -0.7087 -0.5143 -0.0591
 6620TIP3    H141351   3.300   2.154   4.608  2.2169  0.9571  1.1861
 6620TIP3    H241352   3.368   2.028   4.657 -1.1157 -1.2008  0.5455
 6621TIP3   OH241353   3.817   4.974  14.235  0.2353 -0.2521 -0.6431
 6621TIP3    H141354   3.846   4.889  14.267 -1.2030 -0.7617 -0.6452
 6621TIP3    H241355   3.897   5.015  14.200  1.6406 -0.1956  2.3184
 6622TIP3   OH241356   1.064   5.492  14.790  0.2058  0.4014 -0.0996
 6622TIP3    H141357   1.069   5.471  14.883 -0.1819  0.2025 -0.1235
 6622TIP3    H241358   1.147   5.537  14.771  1.2436 -1.4326 -0.1381
 6623TIP3   OH241359   6.465   2.782  13.597 -0.0596  0.1115  0.1989
 6623TIP3    H141360   6.504   2.754  13.680  0.0328 -0.7972 -0.1367
 6623TIP3    H241361   6.524   2.850  13.564 -0.2007  0.6131  0.9572
 6624TIP3   OH241362   4.903   0.583  12.680 -0.2524  0.5512  0.2092
 6624TIP3    H141363   4.839   0.514  12.666 -0.6604  0.8288  0.7053
 6624TIP3    H241364   4.880   0.621  12.764  0.5101  0.7123  0.3528
 6625TIP3   OH241365   6.253   0.321   3.224  0.4601 -0.0819  0.6175
 6625TIP3    H141366   6.208   0.403   3.244 -0.5241 -0.4726  0.0777
 6625TIP3    H241367   6.345   0.339   3.240  0.4689  1.6114 -1.0487
 6626TIP3   OH241368   4.300   1.036  13.113 -0.3079  0.1485  0.2603
 6626TIP3    H141369   4.390   1.057  13.137  0.1117 -0.5086 -0.6712
 6626TIP3    H241370   4.257   1.017  13.197  0.6141 -0.2361  0.6604
 6627TIP3   OH241371   2.721   3.692   3.034 -0.2990 -0.1180  0.0300
 6627TIP3    H141372   2.762   3.779   3.035 -0.5404  0.0684 -2.2414
 6627TIP3    H241373   2.710   3.672   2.941  1.3279 -3.3569  0.4066
 6628TIP3   OH241374   3.643   6.683   2.979 -0.6834  0.0726 -0.0420
 6628TIP3    H141375   3.623   6.601   2.935 -1.4736 -0.2790  0.9350
 6628TIP3    H241376   3.558   6.723   2.995 -0.2903  1.2840 -0.8605
 6629TIP3   OH241377   4.457   3.349  15.721  0.3777  0.7150  0.1153
 6629TIP3    H141378   4.518   3.370  15.792 -0.4032  2.7052  0.2753
 6629TIP3    H241379   4.447   3.254  15.724 -0.3266  0.7902  3.2594
 6630TIP3   OH241380   1.978   2.166  16.140  0.0053  0.2245  0.5256
 6630TIP3    H141381   1.959   2.085  16.187  0.4229  0.1022  0.4888
 6630TIP3    H241382   1.944   2.151  16.052 -2.2079  1.0329  1.1741
 6631TIP3   OH241383   1.219   5.901  16.082 -0.7197  0.1699 -0.4701
 6631TIP3    H141384   1.193   5.989  16.055 -1.8745 -0.5377 -1.8268
 6631TIP3    H241385   1.181   5.843  16.015  1.7349 -1.2149 -0.8091
 6632TIP3   OH241386   1.354   2.763   2.061 -0.0243  0.7473 -0.1365
 6632TIP3    H141387   1.369   2.838   2.118 -2.0224  0.1859  1.2334
 6632TIP3    H241388   1.399   2.690   2.104  0.4248  0.7796 -0.5365
 6633TIP3   OH241389   6.075   3.884  13.027 -0.3206  0.1931 -0.2989
 6633TIP3    H141390   6.153   3.837  13.058 -0.6540  0.2008  0.5985
 6633TIP3    H241391   6.096   3.976  13.042  0.3767  0.3653 -2.1605
 6634TIP3   OH241392   3.459   6.361  16.349  0.6078 -0.0384  0.4631
 6634TIP3    H141393   3.475   6.276  16.307  0.1945 -0.5634  1.3411
 6634TIP3    H241394   3.536   6.374  16.404  0.1625 -0.3835  1.1815
 6635TIP3   OH241395   4.720   4.099   1.359 -0.3899 -0.0613 -0.8698
 6635TIP3    H141396   4.776   4.084   1.284 -0.7497  1.0176 -1.3685
 6635TIP3    H241397   4.632   4.076   1.328 -0.4486 -0.2395 -0.5766
 6636TIP3   OH241398   5.290   2.834   4.390  0.0186  0.0612 -0.5308
 6636TIP3    H141399   5.282   2.787   4.473 -1.4795 -0.4157 -0.8991
 6636TIP3    H241400   5.382   2.825   4.365  0.2697 -0.6336  0.5892
 6637TIP3   OH241401   5.357   1.468  16.166 -0.3271 -0.0782  0.0487
 6637TIP3    H141402   5.423   1.535  16.183  0.8882 -1.4627  1.0311
 6637TIP3    H241403   5.397   1.387  16.197 -2.1863 -1.0904 -0.0846
 6638TIP3   OH241404   4.916   0.404  13.221 -0.0608  0.4727  0.2610
 6638TIP3    H141405   4.983   0.442  13.164 -1.0338  1.5400 -0.1920
 6638TIP3    H241406   4.937   0.438  13.308  1.7579 -1.5945  0.7209
 6639TIP3   OH241407   6.806   3.157   3.740 -0.2700  0.5767  0.2120
 6639TIP3    H141408   6.716   3.151   3.707 -0.4992  0.6627  0.8075
 6639TIP3    H241409   6.811   3.088   3.807 -0.7656  2.3296  2.1664
 6640TIP3   OH241410   1.055   6.734   3.024  0.3313 -0.4104 -0.1820
 6640TIP3    H141411   1.136   6.781   3.043 -0.1312  0.2030  0.3081
 6640TIP3    H241412   0.998   6.799   2.983 -1.0388  0.0695  2.2931
 6641TIP3   OH241413   1.230   2.811   0.729  0.0803 -0.7333  0.5400
 6641TIP3    H141414   1.228   2.726   0.686  1.9587  0.0996 -1.3758
 6641TIP3    H241415   1.321   2.825   0.753 -0.2264  0.6367  1.0307
 6642TIP3   OH241416   1.388   0.302  12.478 -0.3268 -0.2856 -0.0207
 6642TIP3    H141417   1.444   0.356  12.533 -0.1157 -2.7077  2.3500
 6642TIP3    H241418   1.308   0.353  12.468 -0.7790 -0.0758  3.4747
 6643TIP3   OH241419   3.682   4.630   5.015 -0.4526 -0.0735  0.1101
 6643TIP3    H141420   3.737   4.559   5.048 -0.2618  0.6303  1.3584
 6643TIP3    H241421   3.743   4.702   4.998 -0.5412 -0.4123 -1.8518
 6644TIP3   OH241422   4.325   5.184  10.781  0.2833  0.1033  0.0146
 6644TIP3    H141423   4.359   5.094  10.773 -0.0446  0.0424 -0.8947
 6644TIP3    H241424   4.382   5.236  10.725  0.6509  0.5258  0.7672
 6645TIP3   OH241425   5.941   3.998   0.792 -0.0076  0.0626  0.0179
 6645TIP3    H141426   5.912   4.053   0.719 -1.3275 -2.5669 -1.6202
 6645TIP3    H241427   6.028   3.967   0.765  0.0951  0.1663  0.2292
 6646TIP3   OH241428   6.002   2.995   4.636 -0.4188  0.2881  0.8793
 6646TIP3    H141429   6.025   3.005   4.544 -0.4686  2.0321  1.0228
 6646TIP3    H241430   6.069   2.936   4.671 -2.3086 -3.2283 -0.9348
 6647TIP3   OH241431   2.789   3.987   2.467 -0.0409 -0.4652  0.3486
 6647TIP3    H141432   2.845   4.041   2.411 -0.9695 -0.4489 -0.5987
 6647TIP3    H241433   2.712   4.041   2.484  0.4105 -0.3086  2.0317
 6648TIP3   OH241434   1.812   0.011   2.589  0.7625  0.1340  0.7191
 6648TIP3    H141435   1.859   0.023   2.672 -0.4644  0.4297  1.3982
 6648TIP3    H241436   1.732  -0.034   2.614 -0.2726  1.4496 -0.0903
 6649TIP3   OH241437   6.013   3.395   5.807 -0.1252  0.5197  0.2706
 6649TIP3    H141438   6.030   3.485   5.781 -1.0469  0.2380 -1.5070
 6649TIP3    H241439   5.918   3.391   5.820 -0.6018 -0.8305 -2.7546
 6650TIP3   OH241440   6.559   4.637   1.507 -0.5380 -0.7373 -0.0335
 6650TIP3    H141441   6.635   4.592   1.469 -0.3110 -1.3060  1.0566
 6650TIP3    H241442   6.597   4.707   1.560 -0.8750  0.4028 -1.2516
 6651TIP3   OH241443   5.743   0.445  16.135  0.3987 -0.5160 -0.3818
 6651TIP3    H141444   5.716   0.373  16.191 -1.1013 -1.5174 -2.2592
 6651TIP3    H241445   5.661   0.492  16.116  1.3554  1.8117  0.8924
 6652TIP3   OH241446   3.853   5.382  15.013 -0.0184 -0.3724 -0.1394
 6652TIP3    H141447   3.877   5.440  15.085 -0.7541 -0.5097  0.2318
 6652TIP3    H241448   3.759   5.368  15.025  0.2765 -2.2349  0.2124
 6653TIP3   OH241449   0.005   6.272  14.308 -0.8421 -0.1039 -0.2544
 6653TIP3    H141450   0.066   6.313  14.370 -0.4081 -1.6346  0.3727
 6653TIP3    H241451   0.044   6.287  14.222 -0.4123  0.3056  0.0085
 6654TIP3   OH241452   5.096   6.201  13.075 -0.0884  0.3745  0.4949
 6654TIP3    H141453   5.124   6.217  13.165  1.2154 -0.6176  0.2883
 6654TIP3    H241454   5.113   6.284  13.030 -0.5408  0.8045  1.1108
 6655TIP3   OH241455   5.739   4.418  17.122  0.3999 -0.3201 -0.5825
 6655TIP3    H141456   5.673   4.441  17.056  0.4670  1.7697 -0.0134
 6655TIP3    H241457   5.812   4.381  17.073 -0.5457 -1.1765 -1.3858
 6656TIP3   OH241458   0.517   6.122   1.512 -0.0981  0.3111 -0.1160
 6656TIP3    H141459   0.501   6.162   1.598  0.7560 -1.2437  0.8152
 6656TIP3    H241460   0.599   6.073   1.524  0.2940  0.4509 -1.9718
 6657TIP3   OH241461   6.493   3.082   4.630 -0.5304  0.3683  0.0056
 6657TIP3    H141462   6.559   3.091   4.698 -1.5816 -0.1764  1.1378
 6657TIP3    H241463   6.506   3.158   4.573  1.1195  0.2062  0.1339
 6658TIP3   OH241464   0.984   3.340   0.826 -0.0055  0.4257 -0.0991
 6658TIP3    H141465   0.980   3.246   0.811 -1.5656  0.7362 -2.0014
 6658TIP3    H241466   1.042   3.373   0.758 -0.2473  0.9561 -0.0522
 6659TIP3   OH241467   4.459   0.813  15.219 -1.0529  0.0089  0.3193
 6659TIP3    H141468   4.388   0.792  15.280 -1.2931 -0.1058  0.0073
 6659TIP3    H241469   4.414   0.840  15.139 -0.7525 -0.6914 -0.0983
 6660TIP3   OH241470   0.562   6.644  16.209  0.2879  0.0105 -0.1292
 6660TIP3    H141471   0.627   6.579  16.235  0.2692 -0.0259 -0.1729
 6660TIP3    H241472   0.504   6.652  16.284  0.1923 -0.1466 -0.1854
 6661TIP3   OH241473   1.474   0.982   3.903 -0.0566 -0.1904  0.2865
 6661TIP3    H141474   1.445   1.013   3.818  0.7479  0.9271  0.4016
 6661TIP3    H241475   1.429   1.039   3.966  1.3927  0.7612  0.5002
 6662TIP3   OH241476   1.139   4.487  13.591  0.3343  0.2612  0.5277
 6662TIP3    H141477   1.067   4.426  13.606  1.1042 -0.8422 -0.0431
 6662TIP3    H241478   1.126   4.517  13.501  0.2869  0.4743  0.6057
 6663TIP3   OH241479   2.539   5.455  12.366 -0.1083  0.0723 -0.4611
 6663TIP3    H141480   2.610   5.440  12.429 -0.8328 -2.0902 -0.0834
 6663TIP3    H241481   2.579   5.437  12.281  0.4081  1.3108 -0.5114
 6664TIP3   OH241482   4.521   1.780   1.139 -0.4813  0.1742 -0.1774
 6664TIP3    H141483   4.476   1.859   1.167  0.7106  0.7336  0.2128
 6664TIP3    H241484   4.455   1.711   1.147 -1.3651  1.0190  0.0204
 6665TIP3   OH241485   4.045   6.709  11.976 -0.3050 -0.6168 -0.0150
 6665TIP3    H141486   3.984   6.665  12.034  0.1006 -0.8635  0.2233
 6665TIP3    H241487   4.083   6.639  11.923 -1.8021 -0.2467 -1.6674
 6666TIP3   OH241488   2.244   3.907  16.684 -0.4006  0.1970 -0.5263
 6666TIP3    H141489   2.230   3.966  16.758  2.5741  0.3084  0.0464
 6666TIP3    H241490   2.275   3.963  16.614  2.7327 -0.5440  0.1048
 6667TIP3   OH241491   2.731   0.568  13.869 -0.1600 -0.4578 -0.0911
 6667TIP3    H141492   2.723   0.572  13.964 -0.3290 -1.4170 -0.0586
 6667TIP3    H241493   2.825   0.559  13.853  0.1592  2.0813 -0.1376
 6668TIP3   OH241494   5.892   2.059  15.606 -0.0940  0.4621 -0.1380
 6668TIP3    H141495   5.980   2.075  15.572 -0.0758 -2.0990 -1.5078
 6668TIP3    H241496   5.835   2.111  15.550  0.4322  0.9555 -0.2239
 6669TIP3   OH241497   3.061   3.850  12.386 -0.1134  0.8523 -0.7629
 6669TIP3    H141498   3.066   3.841  12.291  0.1106 -0.0262 -0.6823
 6669TIP3    H241499   3.137   3.800  12.419  0.0723  1.5279 -0.1429
 6670TIP3   OH241500   5.090   1.992  15.409  0.1397 -0.5694  0.0728
 6670TIP3    H141501   5.043   2.067  15.446  1.2980 -0.7176  2.0049
 6670TIP3    H241502   5.144   1.959  15.481 -1.2215 -4.0601 -0.2744
 6671TIP3   OH241503   1.574   1.785   0.232  0.2362 -0.5474 -0.5231
 6671TIP3    H141504   1.563   1.690   0.222 -0.0917 -0.7185  1.1471
 6671TIP3    H241505   1.484   1.819   0.239  0.3283 -0.0231 -1.6531
 6672TIP3   OH241506   4.575   6.650  13.211  0.1216  0.2732 -0.4030
 6672TIP3    H141507   4.606   6.740  13.208  1.4342 -0.1229  0.6055
 6672TIP3    H241508   4.621   6.606  13.140 -2.3886  0.8740 -2.5960
 6673TIP3   OH241509   1.869   1.991   1.086  0.0307 -0.2028 -0.2246
 6673TIP3    H141510   1.964   1.989   1.091  0.0129 -1.1367 -0.0426
 6673TIP3    H241511   1.846   2.084   1.095  0.8021 -0.1832  2.0370
 6674TIP3   OH241512   3.821   2.244   0.276  0.1983  0.1662 -0.0715
 6674TIP3    H141513   3.867   2.163   0.297 -0.3199 -0.2234 -0.4003
 6674TIP3    H241514   3.736   2.236   0.320  0.3368  0.7589  0.3163
 6675TIP3   OH241515   4.874   0.837   2.011 -0.6225  0.3166  0.8295
 6675TIP3    H141516   4.892   0.744   1.995 -3.7886 -0.6197  1.9724
 6675TIP3    H241517   4.946   0.865   2.068  1.6961 -0.6878 -1.4201
 6676TIP3   OH241518   2.911   1.804   4.926 -0.1920 -0.0239  0.1391
 6676TIP3    H141519   3.005   1.811   4.943 -0.4692 -1.1906  2.7574
 6676TIP3    H241520   2.901   1.720   4.880 -0.1311 -1.6591  2.8667
 6677TIP3   OH241521   2.595   6.734   4.943 -0.2056  0.0296  0.1561
 6677TIP3    H141522   2.499   6.724   4.946 -0.0664 -1.4658  0.3061
 6677TIP3    H241523   2.628   6.658   4.990  1.0918 -0.0920 -0.9127
 6678TIP3   OH241524   4.141   5.167   5.006 -0.3349 -0.2862  0.0669
 6678TIP3    H141525   4.069   5.145   5.065 -0.4845 -1.2593 -0.4683
 6678TIP3    H241526   4.129   5.261   4.988 -1.9450 -0.5909 -0.6324
 6679TIP3   OH241527   5.994   2.217   5.067  0.0806 -0.3813 -0.3690
 6679TIP3    H141528   5.934   2.238   5.139  0.1112  0.2291 -0.5185
 6679TIP3    H241529   5.943   2.158   5.011 -0.3611  0.0640 -0.4488
 6680TIP3   OH241530   1.927   1.898   2.690  1.0234 -0.2993 -0.3049
 6680TIP3    H141531   2.004   1.949   2.666  1.0887  1.7323  3.4248
 6680TIP3    H241532   1.955   1.844   2.764 -0.9493  0.0885  0.8036
 6681TIP3   OH241533   4.876   5.953   2.390 -0.1326  0.5362  0.1084
 6681TIP3    H141534   4.859   6.047   2.390 -0.3720  0.4917  0.1387
 6681TIP3    H241535   4.911   5.936   2.478 -3.1406  0.0453  1.3157
 6682TIP3   OH241536   1.963   1.085   1.835  0.2235 -0.2061 -0.2658
 6682TIP3    H141537   1.964   1.181   1.838 -0.8022 -0.2085  0.8244
 6682TIP3    H241538   1.954   1.059   1.927  3.2907 -1.4357 -0.2177
 6683TIP3   OH241539   5.684   5.106  13.910 -0.5419  0.0252  0.2880
 6683TIP3    H141540   5.695   5.013  13.891  0.6668 -0.0001  0.9937
 6683TIP3    H241541   5.765   5.146  13.877 -1.0171  0.8195  0.0656
 6684TIP3   OH241542   3.130   3.545   1.351  0.3696 -0.4498 -0.2213
 6684TIP3    H141543   3.200   3.521   1.413 -0.4695 -1.1419  0.4800
 6684TIP3    H241544   3.173   3.603   1.288  1.4362 -0.3735  0.5469
 6685TIP3   OH241545   3.351   4.300   0.112  0.2165 -0.1576 -0.5965
 6685TIP3    H141546   3.320   4.215   0.081  0.6753 -0.1933 -0.9668
 6685TIP3    H241547   3.303   4.314   0.194 -1.1369  0.0212 -1.4006
 6686TIP3   OH241548   0.650   6.575  15.190  0.2495 -0.4260 -0.4631
 6686TIP3    H141549   0.714   6.562  15.261 -1.3511  0.3952  1.2269
 6686TIP3    H241550   0.573   6.527  15.219 -0.6991  0.5646 -1.2694
 6687TIP3   OH241551   4.225   3.692   5.560 -0.5652  0.6065  0.3060
 6687TIP3    H141552   4.144   3.705   5.609 -0.4560  0.3974  0.5478
 6687TIP3    H241553   4.241   3.597   5.566 -0.6269  0.5571 -0.2529
 6688TIP3   OH241554   2.385   0.186   4.350 -0.8932  0.0850 -0.0185
 6688TIP3    H141555   2.368   0.234   4.431 -0.7577 -1.6826  1.1077
 6688TIP3    H241556   2.342   0.238   4.282 -4.4415 -0.3376  1.6600
 6689TIP3   OH241557   0.529   4.230  10.364  0.3165 -0.2306 -0.9368
 6689TIP3    H141558   0.470   4.305  10.364  1.9771  1.6217  4.8882
 6689TIP3    H241559   0.471   4.155  10.376 -1.1097  0.9842  0.2231
 6690TIP3   OH241560   4.457   2.759   2.494 -0.2399 -0.7297  0.3263
 6690TIP3    H141561   4.535   2.792   2.538 -0.4100 -1.2614  1.0526
 6690TIP3    H241562   4.455   2.666   2.515 -1.3672 -0.6216  0.8101
 6691TIP3   OH241563   3.432   3.540  11.664  0.2294 -0.0672  0.1513
 6691TIP3    H141564   3.478   3.593  11.729  0.1536 -0.4357  0.5130
 6691TIP3    H241565   3.341   3.541  11.692 -0.1014  1.1322 -0.8856
 6692TIP3   OH241566   4.265   0.432  16.404 -0.5195 -0.0094 -0.4864
 6692TIP3    H141567   4.354   0.402  16.386 -0.0548  1.8174 -1.5588
 6692TIP3    H241568   4.243   0.394  16.489  1.2999 -0.4556 -0.1702
 6693TIP3   OH241569   4.676   5.740   3.786 -0.2784  0.1187  0.0625
 6693TIP3    H141570   4.637   5.657   3.762 -1.8114  1.1801 -1.3590
 6693TIP3    H241571   4.643   5.802   3.721  2.3535  1.4856 -0.1286
 6694TIP3   OH241572   5.016   0.489  14.765  0.5093  0.1408 -0.1561
 6694TIP3    H141573   4.959   0.419  14.734  1.6125 -0.4016 -1.0336
 6694TIP3    H241574   5.098   0.475  14.719  0.7627  2.0262 -0.3529
 6695TIP3   OH241575   6.665   3.794  11.181 -0.4111 -0.0657  0.0148
 6695TIP3    H141576   6.582   3.825  11.146 -0.3173  1.0808  0.7525
 6695TIP3    H241577   6.725   3.796  11.106 -1.1840 -1.6032 -0.6992
 6696TIP3   OH241578   2.052   1.582   1.595 -0.4861 -0.2575 -0.3813
 6696TIP3    H141579   2.004   1.528   1.659  0.4593  2.8066  3.2609
 6696TIP3    H241580   2.124   1.526   1.566 -1.3110 -2.0000  0.7678
 6697TIP3   OH241581   2.042   1.234  10.674 -0.2783 -0.1455  0.2191
 6697TIP3    H141582   2.038   1.179  10.753 -0.4114  1.0056  1.0422
 6697TIP3    H241583   2.135   1.256  10.665 -0.1469 -0.9398 -0.4284
 6698TIP3   OH241584   0.158   4.942   2.259  0.3772 -0.5988 -0.3793
 6698TIP3    H141585   0.117   4.871   2.209 -0.7471  0.5260 -1.1302
 6698TIP3    H241586   0.246   4.911   2.278  0.3762 -1.6288 -1.9019
 6699TIP3   OH241587   6.791   4.371  15.538  0.8640 -0.0159 -0.3971
 6699TIP3    H141588   6.729   4.345  15.470  0.1947  0.1825  0.1338
 6699TIP3    H241589   6.829   4.453  15.507 -0.4483  0.7985  0.0988
 6700TIP3   OH241590   3.374   3.343  14.897 -0.3248  0.0770  0.3883
 6700TIP3    H141591   3.354   3.260  14.853 -2.4773  0.9742 -0.4743
 6700TIP3    H241592   3.407   3.400  14.827 -1.3995  0.7415  0.3922
 6701TIP3   OH241593   1.826   3.799   1.366 -0.1537 -0.1981  0.1294
 6701TIP3    H141594   1.864   3.711   1.372  1.3652  0.4020 -0.1165
 6701TIP3    H241595   1.876   3.841   1.296 -0.9504  0.8195  0.1567
 6702TIP3   OH241596   5.190   0.623  10.797 -0.3595  0.5362 -0.7573
 6702TIP3    H141597   5.130   0.567  10.847  0.5928 -1.2234 -1.5547
 6702TIP3    H241598   5.152   0.711  10.806 -1.9982 -0.2357  0.3432
 6703TIP3   OH241599   2.911   2.485   2.904  0.1749  0.5446  0.1839
 6703TIP3    H141600   2.889   2.442   2.821  0.8492 -0.1557  0.3535
 6703TIP3    H241601   2.831   2.529   2.930 -0.1002  0.6175 -0.7499
 6704TIP3   OH241602   3.631   0.184  11.713  0.3259 -0.1970 -0.1490
 6704TIP3    H141603   3.693   0.224  11.773 -0.3004  2.7271 -1.2522
 6704TIP3    H241604   3.574   0.256  11.686 -0.4849 -1.7194 -2.9207
 6705TIP3   OH241605   0.553   0.533   5.413 -0.3220  0.1143  0.3452
 6705TIP3    H141606   0.604   0.603   5.454  1.3729 -0.5917 -0.4785
 6705TIP3    H241607   0.530   0.568   5.327 -2.2022  0.8334  1.0835
 6706TIP3   OH241608   4.946   0.941   1.166 -0.6646 -0.1219  0.4241
 6706TIP3    H141609   4.923   1.015   1.223  2.0677  0.8103  0.4457
 6706TIP3    H241610   5.015   0.894   1.214 -0.5194 -1.1632 -0.7512
 6707TIP3   OH241611   1.589   1.390  14.683  0.3551 -0.8282 -0.2428
 6707TIP3    H141612   1.541   1.320  14.638  1.2707 -0.2919 -2.1332
 6707TIP3    H241613   1.523   1.456  14.701  0.0134 -0.9228 -1.0923
 6708TIP3   OH241614   0.979   6.118   5.070  0.1928  0.5635 -1.0714
 6708TIP3    H141615   0.887   6.136   5.087  0.1711  2.0855 -2.5526
 6708TIP3    H241616   1.025   6.196   5.100  0.9895 -0.0515 -0.6408
 6709TIP3   OH241617   0.326   2.174  13.626 -0.3824  0.1973 -0.6122
 6709TIP3    H141618   0.245   2.218  13.651 -0.4133 -0.1772 -0.0074
 6709TIP3    H241619   0.306   2.130  13.544 -0.7763  0.1653 -0.5015
 6710TIP3   OH241620   1.950   2.683  10.837  0.1926 -0.1468  0.1113
 6710TIP3    H141621   1.974   2.729  10.756  2.3674  0.3967  0.9899
 6710TIP3    H241622   2.007   2.607  10.839  0.3892  0.0185  1.2872
 6711TIP3   OH241623   0.802   5.943  11.045  0.7110 -0.1610 -0.2485
 6711TIP3    H141624   0.745   5.920  10.971  0.4294  1.4537 -0.5760
 6711TIP3    H241625   0.742   5.973  11.113  1.0543 -0.3372  0.1326
 6712TIP3   OH241626   1.893   6.685  13.519  0.4493 -0.2651  0.3907
 6712TIP3    H141627   1.916   6.592  13.521  3.2438  0.3511  1.1610
 6712TIP3    H241628   1.966   6.729  13.563  1.1576  2.6577 -3.2318
 6713TIP3   OH241629   0.749   6.609  14.933  0.2632  0.1508  0.2974
 6713TIP3    H141630   0.691   6.659  14.877  1.3442  0.5353 -0.4995
 6713TIP3    H241631   0.697   6.591  15.012 -0.3827  1.8674  0.2845
 6714TIP3   OH241632   6.740   0.196  12.552  0.4156 -0.0307 -0.0069
 6714TIP3    H141633   6.738   0.234  12.465  2.5263 -1.1476 -0.6228
 6714TIP3    H241634   6.796   0.118  12.543 -0.3785 -0.9150  2.0545
 6715TIP3   OH241635   5.355   6.024  15.217 -0.1302 -0.3170  0.7368
 6715TIP3    H141636   5.280   6.084  15.212  1.0726  1.2951  1.1201
 6715TIP3    H241637   5.402   6.038  15.135  0.6799  0.0117  1.2442
 6716TIP3   OH241638   3.662   6.722  16.737 -0.0760 -0.2487  0.2912
 6716TIP3    H141639   3.727   6.690  16.800  1.6189  1.2079 -0.6277
 6716TIP3    H241640   3.705   6.712  16.652 -0.9643  0.9331 -0.3236
 6717TIP3   OH241641   5.442   5.511   5.691  0.7796  0.5331  0.0342
 6717TIP3    H141642   5.517   5.509   5.750 -0.1425  1.0663  1.2831
 6717TIP3    H241643   5.366   5.513   5.749 -0.1637  1.6060 -1.1644
 6718TIP3   OH241644   0.046   5.863  15.071  0.5172 -0.3121 -0.4713
 6718TIP3    H141645   0.079   5.829  15.154 -0.6710 -1.7532 -0.5585
 6718TIP3    H241646  -0.046   5.884  15.089  0.7381  1.1548 -0.9344
 6719TIP3   OH241647   1.816   2.270   1.410  0.7557 -0.4725 -0.6196
 6719TIP3    H141648   1.798   2.180   1.436  1.6232 -0.5332 -0.2002
 6719TIP3    H241649   1.734   2.301   1.372  0.1935 -1.1600  0.0147
 6720TIP3   OH241650   1.285   1.340   0.814 -0.6564 -0.4550 -0.2314
 6720TIP3    H141651   1.374   1.377   0.816 -1.0215  0.4503 -0.2434
 6720TIP3    H241652   1.244   1.380   0.737 -0.9202 -1.2473 -0.5079
 6721TIP3   OH241653   2.628   2.037   2.378 -0.3681  0.3866 -0.4392
 6721TIP3    H141654   2.567   2.110   2.367  1.4496  1.8209 -1.7359
 6721TIP3    H241655   2.704   2.076   2.422 -0.4980 -1.4500  1.6041
 6722TIP3   OH241656   4.543   5.647   4.171 -0.4529  0.6551  0.7724
 6722TIP3    H141657   4.447   5.649   4.164 -0.4225  1.1073  0.3949
 6722TIP3    H241658   4.568   5.739   4.172 -0.1547  0.6063  3.0741
 6723TIP3   OH241659   1.548   3.288   2.864  0.2389 -0.6711 -0.4236
 6723TIP3    H141660   1.598   3.353   2.816 -1.1779 -0.1044 -1.2110
 6723TIP3    H241661   1.477   3.263   2.804  0.3160 -2.4002  0.1435
 6724TIP3   OH241662   0.144   4.838  17.152  0.5542 -0.1033  0.1683
 6724TIP3    H141663   0.221   4.853  17.206 -0.7499  0.4191  2.0000
 6724TIP3    H241664   0.159   4.753  17.110  3.2176  1.0985 -1.6170
 6725TIP3   OH241665   5.325   4.957   4.288 -0.6946 -0.7015  0.0192
 6725TIP3    H141666   5.260   4.901   4.247  0.8190 -0.8953 -2.3079
 6725TIP3    H241667   5.292   5.046   4.275 -0.6301 -0.8080 -0.9291
 6726TIP3   OH241668   1.368   6.019   1.534  0.3622 -0.3405 -0.2657
 6726TIP3    H141669   1.337   5.978   1.615 -2.0443  1.0167 -0.4059
 6726TIP3    H241670   1.331   5.967   1.464 -0.5439  0.5073 -0.4433
 6727TIP3   OH241671   2.609   6.210  14.270  0.1310 -0.3315 -0.3321
 6727TIP3    H141672   2.580   6.271  14.338 -0.4864 -0.0069 -0.8707
 6727TIP3    H241673   2.703   6.226  14.262  0.1116  0.0007  0.0756
 6728TIP3   OH241674   5.797   1.784  15.286  0.5055  0.0541  0.4816
 6728TIP3    H141675   5.827   1.875  15.289  1.7213 -0.2077 -1.5501
 6728TIP3    H241676   5.867   1.734  15.330 -0.4263  0.1122  2.1031
 6729TIP3   OH241677   4.533   4.619  12.148  0.6017 -0.2861  0.7819
 6729TIP3    H141678   4.482   4.699  12.142 -0.8617 -1.2190  0.1050
 6729TIP3    H241679   4.616   4.646  12.188  0.1175  1.5216  0.6546
 6730TIP3   OH241680   1.131   3.045  16.875  0.0835  0.1731  0.0553
 6730TIP3    H141681   1.184   3.103  16.820 -0.9936  1.1234 -0.0179
 6730TIP3    H241682   1.168   3.056  16.963  0.5956  0.1133 -0.1453
 6731TIP3   OH241683   0.043   2.999  15.071  0.2843  0.3696  0.3484
 6731TIP3    H141684   0.018   2.939  15.141  0.2580  0.7617  0.6792
 6731TIP3    H241685  -0.017   2.978  14.999 -1.6307  1.8543  1.4101
 6732TIP3   OH241686   4.096   5.353  16.810 -0.3240 -0.4784  0.0275
 6732TIP3    H141687   4.158   5.354  16.738 -2.5785 -1.9803 -2.0945
 6732TIP3    H241688   4.061   5.442  16.812 -0.0299 -0.3433 -0.5452
 6733TIP3   OH241689   2.046   2.067   1.407 -0.1892 -0.6547 -0.6729
 6733TIP3    H141690   2.057   2.017   1.326  1.4738 -1.1093 -0.1948
 6733TIP3    H241691   1.995   2.144   1.381 -1.2927 -1.7298 -1.7604
 6734TIP3   OH241692   0.013   4.391   6.119  0.2357  0.3248  0.1426
 6734TIP3    H141693  -0.054   4.450   6.084  0.2748  0.6591  0.6159
 6734TIP3    H241694   0.026   4.420   6.209  0.1428 -0.5187  0.4361
 6735TIP3   OH241695   4.537   2.897  16.252  0.3374  0.4111  0.3287
 6735TIP3    H141696   4.610   2.952  16.282 -0.4379  1.1959  0.8433
 6735TIP3    H241697   4.461   2.956  16.252 -0.2549 -0.3268 -0.4212
 6736TIP3   OH241698   3.269   4.484   0.398 -0.1364 -0.3122 -0.4416
 6736TIP3    H141699   3.214   4.457   0.325 -0.0705  2.4241 -1.6059
 6736TIP3    H241700   3.246   4.576   0.413  1.9156  0.0168  1.0720
 6737TIP3   OH241701   3.572   4.049  14.663  0.6082 -0.1720 -0.5355
 6737TIP3    H141702   3.588   4.142  14.652  1.6145 -0.1735  0.7257
 6737TIP3    H241703   3.534   4.041  14.751  0.4826 -0.9521 -0.6517
 6738TIP3   OH241704   2.749   2.974   4.972  0.1868 -0.0929 -0.4092
 6738TIP3    H141705   2.792   2.912   4.913 -0.5586 -0.9868 -0.0198
 6738TIP3    H241706   2.664   2.935   4.991 -0.7114  1.5162 -0.9455
 6739TIP3   OH241707   3.461   5.295   3.535 -0.1575 -0.5074 -0.4444
 6739TIP3    H141708   3.555   5.306   3.520 -0.1914 -0.3280 -0.5137
 6739TIP3    H241709   3.451   5.201   3.550  0.3047 -0.3204  1.3439
 6740TIP3   OH241710   0.816   3.005   0.628  0.7753 -0.0543 -0.8445
 6740TIP3    H141711   0.820   3.096   0.600  0.4920  0.1180 -0.3486
 6740TIP3    H241712   0.893   2.965   0.590  2.3379  1.0031  1.0198
 6741TIP3   OH241713   3.174   5.701  14.518  0.9200  0.7108 -0.0881
 6741TIP3    H141714   3.199   5.743  14.601 -0.3213 -2.7787  2.3084
 6741TIP3    H241715   3.222   5.618  14.519 -2.1378 -1.2002 -0.8307
 6742TIP3   OH241716   1.494   2.176   3.479  0.5902  0.1886 -0.5511
 6742TIP3    H141717   1.562   2.218   3.427  2.0063  0.1566  1.1927
 6742TIP3    H241718   1.412   2.202   3.437  1.6133  1.0117 -2.1352
 6743TIP3   OH241719   5.773   3.531  12.681 -0.2864  0.1953 -0.4570
 6743TIP3    H141720   5.820   3.510  12.600  0.7533 -0.1820  0.2115
 6743TIP3    H241721   5.783   3.453  12.735 -1.1364  0.3692 -0.0337
 6744TIP3   OH241722   6.204   4.713   3.150 -0.4249  0.3977 -0.4870
 6744TIP3    H141723   6.251   4.795   3.159  0.1007  0.0837 -0.3287
 6744TIP3    H241724   6.262   4.657   3.098 -0.4141 -0.1432  0.0876
 6745TIP3   OH241725   4.442   5.511  12.961 -0.3312 -0.3969 -0.2559
 6745TIP3    H141726   4.413   5.579  13.021 -2.1261 -1.0254 -0.3423
 6745TIP3    H241727   4.504   5.555  12.903 -1.0697  1.0296 -0.0087
 6746TIP3   OH241728   4.431   1.165   2.924 -0.0984 -0.2377 -0.1257
 6746TIP3    H141729   4.408   1.136   3.012 -0.5098  0.6669  0.0789
 6746TIP3    H241730   4.449   1.258   2.934  1.1968 -0.4047 -0.7517
 6747TIP3   OH241731   1.587   4.398  15.066  0.2895  0.0498  0.0126
 6747TIP3    H141732   1.564   4.408  14.973 -2.4753 -1.6131  0.4299
 6747TIP3    H241733   1.680   4.372  15.064  0.1576 -0.5449 -2.3235
 6748TIP3   OH241734   5.194   6.290  13.332  0.5174  0.5720 -0.3967
 6748TIP3    H141735   5.145   6.321  13.408  1.5055 -0.3520  0.6544
 6748TIP3    H241736   5.258   6.359  13.315  1.6411 -0.0949  0.9235
 6749TIP3   OH241737   4.701   2.327  14.048 -0.2199  0.3112  0.4305
 6749TIP3    H141738   4.712   2.245  14.097  0.5952  1.7772  2.9235
 6749TIP3    H241739   4.761   2.389  14.091 -0.0391  1.9875 -2.0089
 6750TIP3   OH241740   1.525   6.424  10.936  0.3720 -0.4809 -0.7507
 6750TIP3    H141741   1.450   6.483  10.932  1.3815  0.9352  0.2772
 6750TIP3    H241742   1.495   6.351  10.991 -0.6353 -0.5467 -1.3654
 6751TIP3   OH241743   2.652   5.632   4.672  0.3097 -0.3092  0.0182
 6751TIP3    H141744   2.631   5.562   4.611 -0.2487  1.7129 -2.3028
 6751TIP3    H241745   2.568   5.653   4.714  0.7267 -1.8175  1.7338
 6752TIP3   OH241746   1.495   6.500   1.944  0.1706 -0.1665  0.2104
 6752TIP3    H141747   1.436   6.467   1.877  1.2216 -0.9133 -0.3831
 6752TIP3    H241748   1.528   6.422   1.988  1.5598  0.1406 -0.2260
 6753TIP3   OH241749   1.341   4.535   2.315  0.2076 -0.3354 -0.2000
 6753TIP3    H141750   1.431   4.566   2.328  0.9760 -1.9064 -1.3611
 6753TIP3    H241751   1.296   4.609   2.272  0.0503  1.5570  2.9367
 6754TIP3   OH241752   3.416   2.958  11.614 -0.1596  0.4071  0.2009
 6754TIP3    H141753   3.374   2.872  11.622 -0.2961  0.2919 -1.4412
 6754TIP3    H241754   3.467   2.953  11.533 -1.5372  2.4302 -0.8803
 6755TIP3   OH241755   2.676   5.098  15.244 -1.2268 -0.0635  0.2425
 6755TIP3    H141756   2.621   5.165  15.285 -1.3603  0.2186 -0.3852
 6755TIP3    H241757   2.648   5.016  15.285 -0.0650  0.4084  2.0703
 6756TIP3   OH241758   5.758   5.798  10.795 -0.8931  0.0761  0.8807
 6756TIP3    H141759   5.787   5.812  10.705  0.7457  0.2528  1.3993
 6756TIP3    H241760   5.714   5.879  10.819  0.2670  0.7508  0.8047
 6757TIP3   OH241761   4.919   5.446   0.386 -0.4969  0.4293  0.0911
 6757TIP3    H141762   4.924   5.491   0.302 -1.8460  1.3331  0.4629
 6757TIP3    H241763   4.839   5.393   0.380  0.6352 -1.3645 -0.0416
 6758TIP3   OH241764   0.545   3.214  16.195 -0.2552 -0.1712 -0.7607
 6758TIP3    H141765   0.496   3.242  16.273  2.1509 -2.9686  2.0011
 6758TIP3    H241766   0.630   3.257  16.203  1.0889 -2.7343 -0.0422
 6759TIP3   OH241767   0.067   5.400  15.065 -0.3794  0.6607 -0.9284
 6759TIP3    H141768  -0.010   5.343  15.070  0.9332 -1.2797 -1.6056
 6759TIP3    H241769   0.106   5.380  14.980  0.8897  1.5490 -0.5820
 6760TIP3   OH241770   1.311   5.823   1.363 -0.0568 -0.2524 -0.1800
 6760TIP3    H141771   1.236   5.853   1.311 -0.0606  0.1458  0.0516
 6760TIP3    H241772   1.335   5.739   1.323 -0.6809 -0.4304 -0.1931
 6761TIP3   OH241773   3.927   6.219  15.137 -0.5060  0.2664  0.3074
 6761TIP3    H141774   3.923   6.124  15.153 -1.0544  0.4140  1.0626
 6761TIP3    H241775   4.017   6.234  15.107 -0.2997 -0.4393  0.5512
 6762TIP3   OH241776   5.075   3.596  16.962 -0.2194  0.3676 -0.0556
 6762TIP3    H141777   5.139   3.591  17.032  0.6999  1.6163 -0.7748
 6762TIP3    H241778   5.039   3.507  16.955 -2.4984  0.7454  3.9326
 6763TIP3   OH241779   2.611   1.353   6.224  0.5403  0.0727  0.4184
 6763TIP3    H141780   2.626   1.448   6.224 -0.3923  0.2375 -0.4655
 6763TIP3    H241781   2.541   1.340   6.160  0.6170 -1.2136  0.5747
 6764TIP3   OH241782   1.848   0.259  14.160  0.4639 -0.0334  0.3590
 6764TIP3    H141783   1.929   0.270  14.209 -0.0675  0.3522  1.1696
 6764TIP3    H241784   1.813   0.175  14.189  0.5170 -0.1525  0.0845
 6765TIP3   OH241785   3.669   1.775   3.563  0.4769 -0.0036  0.2270
 6765TIP3    H141786   3.599   1.717   3.594  1.1059  0.0296  1.7931
 6765TIP3    H241787   3.750   1.736   3.596  1.0437  0.9828  0.0614
 6766TIP3   OH241788   5.560   4.154   0.671 -0.0551  0.3503 -0.2221
 6766TIP3    H141789   5.586   4.066   0.646 -1.7455 -0.2063 -0.1342
 6766TIP3    H241790   5.588   4.163   0.762  2.3710  0.8624 -0.9477
 6767TIP3   OH241791   1.130   4.657   4.495  0.1633  0.3112 -0.0940
 6767TIP3    H141792   1.078   4.597   4.441  0.3487  0.1089 -0.0476
 6767TIP3    H241793   1.199   4.688   4.437 -0.1367  0.7587 -0.2243
 6768TIP3   OH241794   1.056   2.012  14.372  0.4561 -0.8763 -0.1713
 6768TIP3    H141795   1.121   2.042  14.308 -1.0382  1.1021 -0.8968
 6768TIP3    H241796   1.012   1.939  14.329  0.2616 -0.3288 -0.9225
 6769TIP3   OH241797   4.993   0.100   4.906  0.2695  0.4708  0.4538
 6769TIP3    H141798   4.915   0.062   4.867 -0.4254 -0.8571  2.9346
 6769TIP3    H241799   5.038   0.027   4.948  1.7169  1.5675  0.9333
 6770TIP3   OH241800   0.441   5.560  11.361 -0.2707  0.0998 -0.1032
 6770TIP3    H141801   0.447   5.620  11.436  0.0875  0.4817 -0.4300
 6770TIP3    H241802   0.449   5.617  11.285  0.1739 -0.3775 -0.4163
 6771TIP3   OH241803   2.629   3.239   5.028 -0.0959 -0.2624  0.2533
 6771TIP3    H141804   2.694   3.184   4.985 -0.2790 -0.5132  0.2940
 6771TIP3    H241805   2.559   3.178   5.052  0.2074 -0.2162  1.3143
 6772TIP3   OH241806   1.740   3.179  15.416  0.2622 -0.0582 -0.0402
 6772TIP3    H141807   1.730   3.273  15.400 -1.7401 -0.1220  0.4471
 6772TIP3    H241808   1.652   3.151  15.441  0.9963 -1.9237  0.5890
 6773TIP3   OH241809   0.407   1.406  13.373  0.1970 -0.3801  0.4978
 6773TIP3    H141810   0.490   1.422  13.416  0.2779 -0.8093  0.5081
 6773TIP3    H241811   0.421   1.326  13.321  0.1672  0.2367 -0.4913
 6774TIP3   OH241812   4.012   2.236  13.862 -0.0078  0.4968  0.4426
 6774TIP3    H141813   3.987   2.185  13.939 -0.5522 -0.6447 -0.4681
 6774TIP3    H241814   4.089   2.285  13.891 -0.7560  0.8459  2.0011
 6775TIP3   OH241815   0.640   4.219  11.119 -0.2949 -0.0677  0.7407
 6775TIP3    H141816   0.701   4.207  11.046 -0.6960  0.3896  0.3333
 6775TIP3    H241817   0.575   4.281  11.087 -2.0544 -1.9165  0.5073
 6776TIP3   OH241818   6.122   4.775  12.093  0.3152 -0.3477  0.1727
 6776TIP3    H141819   6.143   4.847  12.152 -0.5240 -0.1189  0.1970
 6776TIP3    H241820   6.080   4.817  12.017 -0.6560 -0.8496  0.4178
 6777TIP3   OH241821   3.407   4.988  15.637  0.8794  0.2562  0.5554
 6777TIP3    H141822   3.370   4.984  15.548  1.9136  0.2068  0.1092
 6777TIP3    H241823   3.465   5.064  15.635  0.2831  0.7503  1.4550
 6778TIP3   OH241824   0.305   6.730   1.359  0.7636  0.1551  0.9592
 6778TIP3    H141825   0.228   6.695   1.405  0.8846 -1.4740 -0.0105
 6778TIP3    H241826   0.336   6.657   1.305  1.9143  1.3526 -0.0573
 6779TIP3   OH241827   0.961   5.226  16.848 -0.1228  0.0066  0.0727
 6779TIP3    H141828   0.899   5.250  16.916 -0.3598  1.6580 -0.6691
 6779TIP3    H241829   0.923   5.261  16.767  0.7053 -0.8942 -0.7291
 6780TIP3   OH241830   0.477   1.188  11.222 -0.5535  0.7435 -0.1490
 6780TIP3    H141831   0.516   1.242  11.290 -0.7168  0.5543  0.0998
 6780TIP3    H241832   0.551   1.144  11.180 -0.5430 -0.4034  0.9965
 6781TIP3   OH241833   0.527   0.843   2.578  0.3637 -0.3232  0.1933
 6781TIP3    H141834   0.466   0.863   2.648 -2.4150 -1.0081 -1.8724
 6781TIP3    H241835   0.511   0.910   2.512  3.5602  0.8737  0.4503
 6782TIP3   OH241836   1.375   6.783   3.867 -0.1690  0.3001  0.2661
 6782TIP3    H141837   1.449   6.843   3.878 -0.2546  0.1909  1.6434
 6782TIP3    H241838   1.376   6.730   3.947  0.1526 -1.8181 -1.0727
 6783TIP3   OH241839   0.259   5.163  13.177  0.0196  0.0200  0.4289
 6783TIP3    H141840   0.348   5.183  13.207  0.8397 -0.1547 -1.7418
 6783TIP3    H241841   0.252   5.068  13.186  0.0586  0.0293  0.5632
 6784TIP3   OH241842   2.489   6.730  16.175  0.2547  0.3312  0.3618
 6784TIP3    H141843   2.585   6.739  16.180  0.5587 -2.2791  0.4121
 6784TIP3    H241844   2.458   6.755  16.261  0.9685  0.4082  0.6056
 6785TIP3   OH241845   4.840   3.030   4.505  0.2564 -0.3214 -0.1660
 6785TIP3    H141846   4.810   3.079   4.428 -0.6112 -0.4260  0.0936
 6785TIP3    H241847   4.840   2.939   4.476 -0.8312 -0.4460  0.1741
 6786TIP3   OH241848   5.131   0.647  11.128  0.6138 -0.3652 -0.3435
 6786TIP3    H141849   5.221   0.648  11.095 -0.0123  1.2585 -2.1828
 6786TIP3    H241850   5.085   0.585  11.070  0.2811 -0.2551 -0.2007
 6787TIP3   OH241851   5.740   4.132  11.623 -0.0491  0.0468  0.0898
 6787TIP3    H141852   5.816   4.173  11.665 -0.3088  0.2173  0.3940
 6787TIP3    H241853   5.763   4.039  11.619  1.2362  0.4029 -2.0649
 6788TIP3   OH241854   3.665   1.657  14.525 -0.0458  0.0666  0.4681
 6788TIP3    H141855   3.681   1.750  14.541 -0.7709  0.1967  0.4890
 6788TIP3    H241856   3.625   1.626  14.606 -1.1244  0.0760 -0.0390
 6789TIP3   OH241857   5.257   4.854  14.575 -0.0255 -0.0335 -0.3309
 6789TIP3    H141858   5.330   4.880  14.632 -0.5715 -1.0322  0.8638
 6789TIP3    H241859   5.245   4.929  14.517  2.1864  0.0253 -0.8215
 6790TIP3   OH241860   3.944   4.897  16.423 -0.1519  0.1470 -0.0851
 6790TIP3    H141861   3.890   4.898  16.501  0.4973  1.8725  0.3987
 6790TIP3    H241862   4.007   4.827  16.438 -1.0148 -0.5744  0.2176
 6791TIP3   OH241863   3.436   2.849   0.240  0.2464 -0.6316 -0.7231
 6791TIP3    H141864   3.500   2.784   0.211 -0.7725 -2.0491  0.1028
 6791TIP3    H241865   3.355   2.824   0.197 -0.8068 -1.5543  1.6403
 6792TIP3   OH241866   4.604   2.405   4.108 -0.3298  0.0362  0.3082
 6792TIP3    H141867   4.696   2.381   4.119  0.1236  0.9597 -1.1882
 6792TIP3    H241868   4.602   2.500   4.119 -0.8997  0.1663 -0.7342
 6793TIP3   OH241869   2.096   0.754  11.292  0.0350  0.3818  0.3766
 6793TIP3    H141870   2.099   0.843  11.256  1.1144  1.2248  2.3600
 6793TIP3    H241871   2.184   0.719  11.276  0.3391  0.5481  1.5745
 6794TIP3   OH241872   5.381   4.301   3.024 -0.2747 -0.0085  0.3528
 6794TIP3    H141873   5.444   4.303   2.952 -0.6307  0.0320  0.0399
 6794TIP3    H241874   5.435   4.292   3.102  0.0513 -1.5079 -0.0168
 6795TIP3   OH241875   6.589   1.520  12.644 -0.1816 -0.0701  0.3851
 6795TIP3    H141876   6.656   1.507  12.577  0.7918  2.1817  0.8186
 6795TIP3    H241877   6.554   1.608  12.627 -0.0869  0.4794  2.6032
 6796TIP3   OH241878   5.133   3.101  12.254  0.4558  0.3604 -0.0491
 6796TIP3    H141879   5.155   3.135  12.167  0.3714  1.2884  0.2863
 6796TIP3    H241880   5.139   3.006  12.244  1.1334  0.4766 -0.8885
 6797TIP3   OH241881   4.436   1.162   3.682 -0.2774  0.5137  0.4244
 6797TIP3    H141882   4.509   1.194   3.630  0.9217  0.5061  1.9955
 6797TIP3    H241883   4.432   1.221   3.757 -2.4254  0.9810  0.0086
 6798TIP3   OH241884   5.367   2.167   3.976 -0.3234 -0.1667  0.5604
 6798TIP3    H141885   5.282   2.188   3.936 -0.0851 -0.2465 -0.0020
 6798TIP3    H241886   5.421   2.245   3.959 -0.1223 -0.3293  0.4473
 6799TIP3   OH241887   2.885   5.022   3.785  0.3899 -0.3339  0.3891
 6799TIP3    H141888   2.804   5.032   3.735  0.1475 -0.3657  0.7710
 6799TIP3    H241889   2.943   5.088   3.749  0.8606 -1.5199 -1.1893
 6800TIP3   OH241890   0.051   4.437   4.987 -0.7943  0.4997 -1.0079
 6800TIP3    H141891   0.093   4.359   5.022 -2.2521  0.3203  0.4662
 6800TIP3    H241892   0.122   4.501   4.979  0.2892 -0.7367 -1.5705
 6801TIP3   OH241893   0.845   6.487   3.070  0.3678  0.0813  0.5197
 6801TIP3    H141894   0.801   6.476   3.155  0.0327 -0.5352  0.2738
 6801TIP3    H241895   0.885   6.574   3.075  3.3414 -1.2363  2.7062
 6802TIP3   OH241896   2.877   4.735  15.416 -0.0107  0.1971 -0.0138
 6802TIP3    H141897   2.852   4.708  15.328  2.0848 -1.0569 -0.2999
 6802TIP3    H241898   2.889   4.653  15.464  2.9915  0.6416  0.1705
 6803TIP3   OH241899   0.254   1.193   2.486 -0.6452 -0.8735 -0.2335
 6803TIP3    H141900   0.247   1.266   2.424 -1.8576 -2.2040 -1.7582
 6803TIP3    H241901   0.294   1.122   2.435 -0.9038 -1.7481  0.7559
 6804TIP3   OH241902   3.583   5.160  11.772 -0.2227  0.3436  0.1662
 6804TIP3    H141903   3.662   5.110  11.793 -0.4674  0.4696  1.4874
 6804TIP3    H241904   3.518   5.131  11.837 -1.3376  0.0796 -1.0257
 6805TIP3   OH241905   3.843   2.243   3.014 -0.1816  0.2633  0.8625
 6805TIP3    H141906   3.929   2.270   3.047  0.0077 -0.0700  0.6451
 6805TIP3    H241907   3.783   2.312   3.043 -0.0133  0.0091  1.8741
 6806TIP3   OH241908   0.424   5.206  12.730  0.2309 -0.5178  0.2551
 6806TIP3    H141909   0.437   5.212  12.824  1.7044 -1.1379  0.1254
 6806TIP3    H241910   0.506   5.168  12.697 -0.4131 -0.6974 -1.2230
 6807TIP3   OH241911   2.351   4.952   3.156 -1.0181  0.0810 -0.2077
 6807TIP3    H141912   2.356   4.990   3.243 -1.6430  0.5082 -0.3549
 6807TIP3    H241913   2.442   4.938   3.131 -0.7846  1.1543 -0.0041
 6808TIP3   OH241914   2.490   3.770  13.157  0.7804 -0.5212  0.4555
 6808TIP3    H141915   2.433   3.822  13.214  0.7571  0.9575 -0.8482
 6808TIP3    H241916   2.459   3.680  13.168 -1.0238  0.0805  0.6957
 6809TIP3   OH241917   1.509   3.413   1.385 -0.0740  0.5783 -0.4601
 6809TIP3    H141918   1.521   3.424   1.479 -1.4149  0.0256 -0.1988
 6809TIP3    H241919   1.428   3.460   1.364  0.9411  1.9051 -1.6197
 6810TIP3   OH241920   3.590   3.100  12.951  0.2829  0.2903  0.1906
 6810TIP3    H141921   3.558   3.034  12.890  0.7161  0.5028 -0.2686
 6810TIP3    H241922   3.533   3.092  13.027 -0.1476 -0.0928 -0.1715
 6811TIP3   OH241923   3.972   6.039   1.907  0.3079 -0.2185  0.0134
 6811TIP3    H141924   4.026   6.065   1.982  0.4757  0.1917 -0.2454
 6811TIP3    H241925   3.952   6.122   1.863 -4.1777  0.3051  2.4809
 6812TIP3   OH241926   0.519   1.456   4.502  0.7432  0.4238  0.1051
 6812TIP3    H141927   0.497   1.467   4.410  0.5042 -0.3414  0.0684
 6812TIP3    H241928   0.438   1.478   4.549  0.3447 -0.8545  0.0436
 6813TIP3   OH241929   3.073   1.426   6.378  0.2040  0.0682  0.1262
 6813TIP3    H141930   2.982   1.439   6.405 -0.0232 -0.3149 -0.4365
 6813TIP3    H241931   3.075   1.338   6.341  0.7678  0.1386 -0.0243
 6814TIP3   OH241932   3.310   4.227  11.044  0.5199  0.5205  0.3035
 6814TIP3    H141933   3.229   4.277  11.040  0.1760 -0.0894 -1.8971
 6814TIP3    H241934   3.310   4.174  10.964  2.1084 -1.0442  1.2439
 6815TIP3   OH241935   3.699   5.786  13.646 -0.3188 -0.2358  0.1072
 6815TIP3    H141936   3.759   5.861  13.640 -0.7500  0.1895  0.8059
 6815TIP3    H241937   3.640   5.796  13.571 -0.3204  0.0930  0.1469
 6816TIP3   OH241938   5.236   6.578   2.391 -0.3685  0.0957  0.0639
 6816TIP3    H141939   5.152   6.623   2.399  0.4429  1.3645  2.5207
 6816TIP3    H241940   5.278   6.591   2.476  0.9705 -3.3128  0.0837
 6817TIP3   OH241941   1.478   1.336  12.267  0.5963 -0.0955  0.0260
 6817TIP3    H141942   1.552   1.307  12.213 -0.0986 -0.5755 -0.6856
 6817TIP3    H241943   1.491   1.430  12.277  0.8222 -0.0225 -0.8590
 6818TIP3   OH241944   6.788   1.821   2.521 -0.3780 -0.3531  0.2078
 6818TIP3    H141945   6.708   1.793   2.567 -1.4916 -0.4446 -1.6656
 6818TIP3    H241946   6.808   1.907   2.558 -0.5042 -0.9293  1.6921
 6819TIP3   OH241947   5.810   6.070   0.351 -0.6625  0.0657  0.2286
 6819TIP3    H141948   5.805   6.022   0.268 -0.5374  1.3535 -0.5504
 6819TIP3    H241949   5.752   6.021   0.410 -1.5666 -0.3003 -0.9120
 6820TIP3   OH241950   2.556   5.978   0.958 -0.0490  0.1104 -0.2128
 6820TIP3    H141951   2.560   6.073   0.946 -0.3566  0.1628  0.0923
 6820TIP3    H241952   2.577   5.964   1.050 -1.3871 -0.0069  0.0930
 6821TIP3   OH241953   0.922   5.540  11.011 -0.6904 -0.1685 -0.4801
 6821TIP3    H141954   0.886   5.468  10.960 -0.0232 -0.2676 -0.8291
 6821TIP3    H241955   0.982   5.585  10.951 -0.1339 -0.0940  0.1116
 6822TIP3   OH241956   6.823   3.733  10.633 -0.1526  0.6463  0.3997
 6822TIP3    H141957   6.866   3.810  10.595 -1.7306  1.3406 -0.0594
 6822TIP3    H241958   6.894   3.669  10.642  1.2545  2.1948  1.0046
 6823TIP3   OH241959   1.021   2.113   2.757  0.5309 -0.3939 -0.6990
 6823TIP3    H141960   0.966   2.096   2.681  0.0981  0.1388 -0.5152
 6823TIP3    H241961   0.988   2.196   2.793 -0.5545 -1.5875  1.2090
 6824TIP3   OH241962   2.059   3.053  13.875  0.5594 -0.5667 -0.1167
 6824TIP3    H141963   2.018   3.114  13.813  0.8313 -0.0317  0.2187
 6824TIP3    H241964   2.093   2.982  13.820 -0.5919 -0.9047 -0.4203
 6825TIP3   OH241965   6.614   3.810   3.799 -0.2111 -0.0548  0.3132
 6825TIP3    H141966   6.575   3.723   3.799  1.3021 -0.7731  0.8527
 6825TIP3    H241967   6.704   3.795   3.769  0.6355  1.0239  2.1491
 6826TIP3   OH241968   0.606   1.274  14.029  0.0971  0.2502  0.3842
 6826TIP3    H141969   0.544   1.253  13.959  1.0005 -0.6855 -0.1559
 6826TIP3    H241970   0.565   1.236  14.108 -0.5003  0.5341  0.2165
 6827TIP3   OH241971   3.359   0.070  16.028 -0.0225  0.5266 -0.2505
 6827TIP3    H141972   3.356  -0.018  15.989  0.1536  0.6436 -0.5346
 6827TIP3    H241973   3.443   0.073  16.073 -1.1761 -0.4146  2.0924
 6828TIP3   OH241974   3.186   2.407  11.790 -0.0893  0.1344  0.0556
 6828TIP3    H141975   3.104   2.450  11.814  0.2609  1.5270 -1.1035
 6828TIP3    H241976   3.181   2.321  11.831 -0.3369  1.6118  3.5038
 6829TIP3   OH241977   2.134   3.125   0.675  0.6498  0.1727 -0.1664
 6829TIP3    H141978   2.160   3.072   0.751  3.4509 -2.9144 -2.9628
 6829TIP3    H241979   2.084   3.065   0.620  1.7077  1.1537 -2.3046
 6830TIP3   OH241980   2.884   5.526  11.729  0.0210  0.1772  0.9525
 6830TIP3    H141981   2.892   5.543  11.822 -2.0495  0.1617  1.1934
 6830TIP3    H241982   2.814   5.584  11.700  1.5828  1.2189 -0.9260
 6831TIP3   OH241983   4.399   2.936  15.509 -0.1435  0.3280 -0.2149
 6831TIP3    H141984   4.403   2.995  15.585 -1.7837  0.7471 -0.4080
 6831TIP3    H241985   4.346   2.862  15.540  3.8240 -2.3727  0.8082
 6832TIP3   OH241986   0.828   5.255  13.527 -0.1333  0.5061  0.3678
 6832TIP3    H141987   0.808   5.323  13.591  1.2708 -0.4188  1.8772
 6832TIP3    H241988   0.823   5.173  13.577 -0.0546 -0.3415 -0.9644
 6833TIP3   OH241989   6.168   6.765   1.774  0.4774  0.6395 -0.1789
 6833TIP3    H141990   6.204   6.852   1.755 -0.7370  0.8144 -1.9268
 6833TIP3    H241991   6.085   6.783   1.817 -0.0717  0.3855 -1.1075
 6834TIP3   OH241992   4.612   3.264  16.784 -0.6981 -0.1709  0.3928
 6834TIP3    H141993   4.557   3.236  16.858 -2.5007  0.2000 -0.7646
 6834TIP3    H241994   4.583   3.352  16.764 -0.3028 -0.3035 -0.8295
 6835TIP3   OH241995   6.693   1.267   4.722  0.3141 -0.0765 -0.3340
 6835TIP3    H141996   6.631   1.332   4.757 -0.2424 -0.3870 -0.7224
 6835TIP3    H241997   6.765   1.266   4.785 -0.1507  0.1764  0.2091
 6836TIP3   OH241998   1.278   4.940  13.221  0.1733  0.2319 -0.1049
 6836TIP3    H141999   1.261   4.855  13.183  0.0930  0.1256  0.1646
 6836TIP3    H242000   1.240   5.003  13.160 -1.0829  0.0144  0.4218
 6837TIP3   OH242001   5.287   6.446  15.270  0.4912  0.0459  0.0183
 6837TIP3    H142002   5.244   6.527  15.243  0.3124  1.1626  3.3109
 6837TIP3    H242003   5.378   6.457  15.240 -0.2567 -0.1905 -2.6439
 6838TIP3   OH242004   0.285   6.314  11.158 -0.0744 -0.5536 -0.3995
 6838TIP3    H142005   0.270   6.282  11.069 -4.0187 -1.5160  0.3980
 6838TIP3    H242006   0.275   6.237  11.213 -0.7592  0.5014  1.0255
 6839TIP3   OH242007   4.572   6.498  15.371  0.1625  0.6744  0.5250
 6839TIP3    H142008   4.620   6.488  15.453 -2.0303 -1.5847  1.6661
 6839TIP3    H242009   4.628   6.458  15.305  0.2751 -1.1753  1.6722
 6840TIP3   OH242010   2.100   0.257  12.859 -0.0954 -0.2542  0.2650
 6840TIP3    H142011   2.049   0.295  12.931 -1.0923 -1.0805  0.0168
 6840TIP3    H242012   2.184   0.304  12.862 -1.9572  3.6621 -1.4697
 6841TIP3   OH242013   4.472   5.276  13.985 -0.1655 -0.4972 -0.5293
 6841TIP3    H142014   4.462   5.366  13.952  0.2366 -0.2742 -0.0520
 6841TIP3    H242015   4.403   5.227  13.941 -0.5449  0.0989 -0.6147
 6842TIP3   OH242016   0.828   3.002  13.263  0.3740 -0.2785 -0.1852
 6842TIP3    H142017   0.922   3.020  13.261  0.1328  1.0604 -0.9240
 6842TIP3    H242018   0.815   2.946  13.339  1.6538  0.2626  0.4536
 6843TIP3   OH242019   5.354   0.738   2.142 -0.5049  0.0835 -0.5121
 6843TIP3    H142020   5.336   0.644   2.133 -0.1594  0.0994 -1.4836
 6843TIP3    H242021   5.433   0.742   2.195 -0.0433 -0.2158 -1.1646
 6844TIP3   OH242022   1.492   2.174   1.047  0.2290  1.0931 -0.6788
 6844TIP3    H142023   1.409   2.154   1.003  0.6700  0.2320 -1.1303
 6844TIP3    H242024   1.547   2.097   1.033  1.0216  1.5428 -0.1543
 6845TIP3   OH242025   2.847   0.541   6.093  0.1216  0.3415  0.2319
 6845TIP3    H142026   2.798   0.510   6.169 -0.3103 -0.3635 -0.3296
 6845TIP3    H242027   2.780   0.566   6.029  0.4759  1.3475  0.2343
 6846TIP3   OH242028   2.553   2.561   4.068 -0.1970 -0.1621  0.4260
 6846TIP3    H142029   2.645   2.563   4.094  0.1045 -0.5095 -0.5887
 6846TIP3    H242030   2.543   2.636   4.009  0.0750 -1.5486 -1.4751
 6847TIP3   OH242031   2.540   4.160   0.073  0.1245 -0.7044  0.0955
 6847TIP3    H142032   2.538   4.175  -0.021 -0.1271  0.6006  0.2877
 6847TIP3    H242033   2.610   4.217   0.105  0.0626 -0.9664  0.7246
 6848TIP3   OH242034   5.709   5.214  15.582  0.4470  0.0448 -0.3296
 6848TIP3    H142035   5.648   5.141  15.591  0.7097 -0.4316 -2.1773
 6848TIP3    H242036   5.791   5.182  15.618  0.3366 -0.2738 -0.3641
 6849TIP3   OH242037   6.552   2.748   1.075  0.0018  0.2934  0.1413
 6849TIP3    H142038   6.523   2.687   1.143  0.8060 -3.5481 -2.6118
 6849TIP3    H242039   6.642   2.722   1.056  1.0315  3.5621 -0.1646
 6850TIP3   OH242040   6.654   5.597  16.477  0.0470 -0.0190 -0.7824
 6850TIP3    H142041   6.746   5.619  16.466  0.0410 -0.0297 -0.8585
 6850TIP3    H242042   6.613   5.627  16.395 -0.0860  0.3627 -0.5781
 6851TIP3   OH242043   4.398   3.683   5.894 -0.4455  0.4220 -0.0235
 6851TIP3    H142044   4.382   3.775   5.917 -0.0393 -0.1261  2.8282
 6851TIP3    H242045   4.351   3.633   5.960  1.4063 -1.3856  0.0280
 6852TIP3   OH242046   5.904   5.115  12.792  0.6687  0.0585  0.4605
 6852TIP3    H142047   5.924   5.096  12.700  2.8881 -0.8381  1.0677
 6852TIP3    H242048   5.823   5.067  12.810  1.2601 -1.3585 -0.5151
 6853TIP3   OH242049   0.725   3.178  12.336  0.1570  0.1826 -0.1368
 6853TIP3    H142050   0.789   3.249  12.347 -0.3571  1.0546 -2.2053
 6853TIP3    H242051   0.776   3.106  12.299  0.2338  0.3478 -0.3565
 6854TIP3   OH242052   3.075   1.211   2.539  0.6267  0.0397  0.3025
 6854TIP3    H142053   3.042   1.167   2.617 -1.5360  0.7047 -0.1581
 6854TIP3    H242054   3.166   1.232   2.560  1.2104 -2.9677  1.2070
 6855TIP3   OH242055   1.157   3.359   3.585 -0.6113 -0.1332 -0.3290
 6855TIP3    H142056   1.109   3.428   3.630  0.0396  0.0273  0.1334
 6855TIP3    H242057   1.233   3.342   3.641 -0.9361 -1.4557 -0.2636
 6856TIP3   OH242058   1.789   4.897  12.143  0.0678  0.5729 -0.2492
 6856TIP3    H142059   1.860   4.901  12.078  0.5461 -0.4586  0.1754
 6856TIP3    H242060   1.793   4.981  12.189  1.9786  0.0313  0.7046
 6857TIP3   OH242061   4.390   4.650   2.053 -0.3392  0.1661  0.0357
 6857TIP3    H142062   4.421   4.740   2.068  0.0729  0.0611 -0.1900
 6857TIP3    H242063   4.469   4.598   2.044 -0.5670 -0.0245 -1.0425
 6858TIP3   OH242064   5.256   6.030  16.900 -0.4695  0.6010  0.5488
 6858TIP3    H142065   5.171   6.031  16.944  0.1210 -0.9444  1.8431
 6858TIP3    H242066   5.319   6.045  16.971  0.4997 -1.7208  0.2820
 6859TIP3   OH242067   0.260   0.087  10.460 -0.1574 -0.0446 -0.0606
 6859TIP3    H142068   0.241  -0.001  10.428  0.6282 -0.5202  0.7340
 6859TIP3    H242069   0.202   0.144  10.410  0.7749 -0.7677 -2.0637
 6860TIP3   OH242070   4.437   0.591   2.051  0.0819  0.1172  0.2066
 6860TIP3    H142071   4.376   0.637   2.109 -0.2139 -2.4986  2.1446
 6860TIP3    H242072   4.389   0.579   1.970 -1.1245  0.1278  0.8990
 6861TIP3   OH242073   0.022   2.639  15.423  0.0897  0.5237  0.3626
 6861TIP3    H142074  -0.016   2.553  15.405 -1.0382  1.0940 -0.1257
 6861TIP3    H242075   0.095   2.621  15.481  0.3468 -0.8371 -0.3302
 6862TIP3   OH242076   4.088   5.700   2.133 -0.3551  0.4379 -0.0730
 6862TIP3    H142077   4.163   5.726   2.079  0.6420 -2.3876 -0.1888
 6862TIP3    H242078   4.012   5.730   2.082  0.6209  0.9439 -1.3102
 6863TIP3   OH242079   2.110   0.040   2.422  0.3461 -0.2116  0.8556
 6863TIP3    H142080   2.043  -0.027   2.423 -0.4063  0.5191  1.1276
 6863TIP3    H242081   2.141   0.043   2.332 -1.5105  0.8793  0.1774
 6864TIP3   OH242082   2.684   2.518  14.386  0.4124  0.8431 -0.3848
 6864TIP3    H142083   2.695   2.433  14.430  2.0827  0.4791 -1.4076
 6864TIP3    H242084   2.590   2.535  14.391  0.2093 -0.4296  0.9927
 6865TIP3   OH242085   1.760   1.653   0.780 -0.3796 -0.7015 -0.0614
 6865TIP3    H142086   1.787   1.594   0.710  1.9135  0.2324 -0.0466
 6865TIP3    H242087   1.689   1.705   0.741  0.8165 -0.2319 -1.7206
 6866TIP3   OH242088   2.710   0.539   3.879  0.2168 -0.2818  0.5210
 6866TIP3    H142089   2.690   0.474   3.946 -2.1848  0.3446  0.4978
 6866TIP3    H242090   2.632   0.595   3.875  0.5277  0.1092 -2.3172
 6867TIP3   OH242091   4.039   5.202   2.747  0.6679  0.2997 -0.5399
 6867TIP3    H142092   3.965   5.257   2.771  0.0085 -0.4839 -0.7637
 6867TIP3    H242093   4.042   5.206   2.651 -0.8555 -1.9061 -0.7378
 6868TIP3   OH242094   1.258   1.947  12.071  0.1368 -0.2268  0.1038
 6868TIP3    H142095   1.231   1.861  12.104  0.0310  0.4233  1.7871
 6868TIP3    H242096   1.353   1.941  12.066  0.0877 -0.6568 -0.4397
 6869TIP3   OH242097   0.182   0.945   3.687  0.5128 -0.2906 -0.1020
 6869TIP3    H142098   0.150   0.915   3.772  0.2658  0.3915  0.0496
 6869TIP3    H242099   0.228   1.026   3.706  0.5002 -0.1614 -0.6181
 6870TIP3   OH242100   4.402   6.030   0.154  0.3016 -0.2917 -0.3458
 6870TIP3    H142101   4.338   6.051   0.085 -0.3341  2.6389  0.9898
 6870TIP3    H242102   4.385   5.938   0.175 -2.0593 -0.1872 -1.4688
 6871TIP3   OH242103   5.494   2.105   2.334 -0.2192 -0.2866  0.8852
 6871TIP3    H142104   5.551   2.164   2.283  0.5776  0.0476  2.1050
 6871TIP3    H242105   5.431   2.072   2.270  0.6061  0.2726 -0.2718
 6872TIP3   OH242106   4.338   4.770  16.947 -0.1426  0.1974 -0.7442
 6872TIP3    H142107   4.401   4.701  16.931 -1.1991 -0.8543 -0.5238
 6872TIP3    H242108   4.380   4.850  16.916  2.2509 -0.0384  1.5372
 6873TIP3   OH242109   4.863   0.380  13.994  0.3109  0.2309  0.4226
 6873TIP3    H142110   4.797   0.361  13.927 -1.1487  0.0778  1.8367
 6873TIP3    H242111   4.894   0.294  14.022  0.7492  0.2852  0.1042
 6874TIP3   OH242112   5.996   3.748  14.188 -0.7505  0.4348  0.1204
 6874TIP3    H142113   6.034   3.675  14.139 -0.8652 -1.1157  2.1956
 6874TIP3    H242114   6.054   3.822  14.170  0.2414 -0.5463 -0.8683
 6875TIP3   OH242115   6.761   3.978  13.250 -0.0396 -0.1498  0.2342
 6875TIP3    H142116   6.825   3.923  13.206  2.6641  1.4192  1.9440
 6875TIP3    H242117   6.764   3.950  13.341 -1.2414  0.5064  0.4950
 6876TIP3   OH242118   1.720   1.719   2.617 -0.2051  0.2668 -0.6465
 6876TIP3    H142119   1.773   1.785   2.661 -0.8244  1.1497 -1.2134
 6876TIP3    H242120   1.632   1.732   2.651 -0.3740 -0.1258 -0.9328
 6877TIP3   OH242121   3.407   0.953  14.095  0.6081 -0.8017 -0.0026
 6877TIP3    H142122   3.459   0.901  14.156 -0.0336 -1.9236 -0.3834
 6877TIP3    H242123   3.369   1.023  14.149  0.0958 -1.7440  0.8796
 6878TIP3   OH242124   3.376   1.187  11.348 -0.1071 -0.4236  0.0694
 6878TIP3    H142125   3.454   1.189  11.293  0.1632 -1.7365  0.3607
 6878TIP3    H242126   3.348   1.279  11.354  1.6145  0.1372  0.2401
 6879TIP3   OH242127   0.959   4.952   2.581 -0.4173 -0.0291  0.3814
 6879TIP3    H142128   0.945   4.940   2.675  2.2923  2.6684  1.3056
 6879TIP3    H242129   0.965   4.863   2.546 -2.2376 -1.1010  2.5873
 6880TIP3   OH242130   1.446   4.455   3.832  0.0128  0.1365 -0.0999
 6880TIP3    H142131   1.419   4.365   3.820 -0.8405  0.2090  1.1459
 6880TIP3    H242132   1.513   4.469   3.765  0.1627 -1.4082 -0.3020
 6881TIP3   OH242133   2.246   6.570  12.693 -1.2635  0.5376  0.4453
 6881TIP3    H142134   2.256   6.647  12.750 -1.0448  1.0992 -0.3393
 6881TIP3    H242135   2.209   6.605  12.612  1.1035  0.2504 -0.8593
 6882TIP3   OH242136   2.999   1.264  10.574 -0.2378 -0.4169  0.5101
 6882TIP3    H142137   3.062   1.201  10.537  0.7462  0.2719  0.9607
 6882TIP3    H242138   3.046   1.303  10.648 -0.8828  0.7381  0.3209
 6883TIP3   OH242139   5.484   3.145   1.422 -0.6803 -0.6508 -0.4758
 6883TIP3    H142140   5.491   3.124   1.329 -2.7558  2.9388 -1.6585
 6883TIP3    H242141   5.425   3.078   1.457 -1.1733 -1.1541 -2.1526
 6884TIP3   OH242142   5.244   4.897   5.412 -0.3051  0.4655 -0.4006
 6884TIP3    H142143   5.149   4.884   5.406 -0.0524 -0.9461 -2.5350
 6884TIP3    H242144   5.276   4.819   5.456 -0.1285  1.0909  0.6136
 6885TIP3   OH242145   4.855   1.744   3.481  0.3863  0.9004 -0.4231
 6885TIP3    H142146   4.779   1.723   3.535  0.4185 -1.8461 -1.2889
 6885TIP3    H242147   4.825   1.817   3.426 -1.1888  0.7139  0.1176
 6886TIP3   OH242148   2.456   6.274  13.207  0.0989  0.2203  0.0319
 6886TIP3    H142149   2.523   6.251  13.272 -0.4847 -0.4003  0.4173
 6886TIP3    H242150   2.472   6.214  13.134 -1.7714 -1.9440  1.2573
 6887TIP3   OH242151   5.135   2.427  14.549  0.5106  0.3078 -0.7357
 6887TIP3    H142152   5.160   2.489  14.618 -0.4973  1.4128 -1.3121
 6887TIP3    H242153   5.218   2.400  14.510  1.0933 -0.2917  0.8404
 6888TIP3   OH242154   3.916   2.029  14.064  0.2354 -0.2163 -0.1669
 6888TIP3    H142155   3.893   2.055  14.153  1.1009  0.5623 -0.1604
 6888TIP3    H242156   4.011   2.021  14.065  0.3285  0.5726 -1.2201
 6889TIP3   OH242157   3.056   1.958  14.027 -0.3987  0.0395  0.6234
 6889TIP3    H142158   3.050   1.948  14.122 -1.1748 -2.0457  0.4207
 6889TIP3    H242159   2.985   1.903  13.993  0.3752  0.0819 -1.1812
 6890TIP3   OH242160   6.239   3.196   1.318  0.5414 -0.2811  0.0186
 6890TIP3    H142161   6.261   3.220   1.228  0.0798  1.0657  0.2375
 6890TIP3    H242162   6.144   3.208   1.323  0.6152  0.0124  0.7870
 6891TIP3   OH242163   1.476   5.627   1.253 -1.0044 -0.2925 -0.3592
 6891TIP3    H142164   1.413   5.616   1.182 -2.4059 -0.7691  0.8864
 6891TIP3    H242165   1.503   5.537   1.275 -1.4288 -0.2515  0.3924
 6892TIP3   OH242166   0.926   0.696  13.933  0.1250  0.2853 -1.0748
 6892TIP3    H142167   1.019   0.688  13.951  0.3247  1.4723 -1.4458
 6892TIP3    H242168   0.900   0.778  13.977 -0.4583  0.6241 -2.0157
 6893TIP3   OH242169   0.272   3.142  14.920  0.4719  0.5502 -0.1773
 6893TIP3    H142170   0.200   3.112  14.975  1.0558 -0.3122  0.1555
 6893TIP3    H242171   0.236   3.214  14.869 -1.3481 -1.3541 -1.7830
 6894TIP3   OH242172   4.478   6.465   4.238 -0.1158  0.5118 -0.1360
 6894TIP3    H142173   4.487   6.554   4.203 -1.7982  0.5275 -0.5968
 6894TIP3    H242174   4.453   6.477   4.329  1.6710  0.4680  0.4058
 6895TIP3   OH242175   1.793   3.691  12.683  0.2706  0.2311 -0.0113
 6895TIP3    H142176   1.787   3.621  12.617  0.6402  0.5744 -0.4161
 6895TIP3    H242177   1.820   3.647  12.763 -1.7862 -0.4606  0.3556
 6896TIP3   OH242178   1.713   4.899   0.550  0.0918  0.1699 -0.4575
 6896TIP3    H142179   1.798   4.906   0.593  0.8804 -2.2214 -1.4462
 6896TIP3    H242180   1.733   4.864   0.463 -1.9190 -0.9630 -0.5303
 6897TIP3   OH242181   1.183   1.572  17.043  0.4359  0.2924 -0.2439
 6897TIP3    H142182   1.226   1.624  16.975 -2.4587  0.8230 -1.8285
 6897TIP3    H242183   1.090   1.581  17.025 -0.3605 -1.8014  2.2034
 6898TIP3   OH242184   3.318   1.072   3.457 -0.1132  0.2640  0.2143
 6898TIP3    H142185   3.303   1.154   3.410  1.8762  1.0244  0.8037
 6898TIP3    H242186   3.358   1.098   3.539  0.2448 -1.2868  0.5605
 6899TIP3   OH242187   1.889   4.246   4.199 -0.1048 -0.2990  0.2588
 6899TIP3    H142188   1.870   4.246   4.105 -0.4229 -0.1630  0.3215
 6899TIP3    H242189   1.852   4.329   4.230 -0.2628 -0.4813  0.5569
 6900TIP3   OH242190   3.557   6.655  11.440  0.1078  0.2382  0.4584
 6900TIP3    H142191   3.615   6.603  11.385 -0.4742  2.4658 -2.5286
 6900TIP3    H242192   3.611   6.729  11.469 -0.3110  0.4883  0.6076
 6901TIP3   OH242193   2.809   1.252   0.242  0.5305 -0.0696 -0.6828
 6901TIP3    H142194   2.733   1.205   0.208  0.7982 -1.1120  0.1349
 6901TIP3    H242195   2.850   1.192   0.304  1.9904  0.4979 -1.0518
 6902TIP3   OH242196   1.549   4.191   3.466  0.0017  0.7072 -0.1064
 6902TIP3    H142197   1.499   4.167   3.388 -0.2848 -1.9688  0.7869
 6902TIP3    H242198   1.640   4.178   3.442 -0.0695  0.1953 -0.1119
 6903TIP3   OH242199   3.662   2.737  13.067 -0.1941 -0.4201  0.6865
 6903TIP3    H142200   3.730   2.759  13.131  0.7694 -1.7953  0.1837
 6903TIP3    H242201   3.593   2.801  13.082  1.8997  2.1164  0.1111
 6904TIP3   OH242202   6.035   5.361   4.301 -0.1990  0.4018  0.1508
 6904TIP3    H142203   5.968   5.418   4.338  0.7242  1.7933 -0.2592
 6904TIP3    H242204   6.118   5.401   4.327  0.4707 -0.4275 -0.6395
 6905TIP3   OH242205   4.352   3.498  17.083 -0.3383  0.0282  0.3966
 6905TIP3    H142206   4.258   3.490  17.101 -0.7348  1.2920 -0.8824
 6905TIP3    H242207   4.394   3.486  17.168 -1.7596  1.1015  1.3018
 6906TIP3   OH242208   6.261   2.941   4.745  0.3229  0.3300 -0.2787
 6906TIP3    H142209   6.267   2.988   4.828  0.5561 -0.3099  0.0717
 6906TIP3    H242210   6.330   2.980   4.690 -0.2749  1.2222 -0.4231
 6907TIP3   OH242211   0.890   5.575   5.302 -0.2829  0.0272 -0.0982
 6907TIP3    H142212   0.828   5.562   5.231  0.2736  0.1459 -0.6105
 6907TIP3    H242213   0.902   5.670   5.307 -0.0092 -0.0064 -0.1132
 6908TIP3   OH242214   0.595   6.794  12.541  0.0960 -0.0554 -0.5026
 6908TIP3    H142215   0.660   6.724  12.539 -0.2201 -0.3744  0.0663
 6908TIP3    H242216   0.633   6.859  12.601 -0.1854 -0.3297 -0.0162
 6909TIP3   OH242217   2.601   6.571  11.990  0.2630 -0.0839 -0.5256
 6909TIP3    H142218   2.513   6.558  12.025  0.5589  0.9525  0.7335
 6909TIP3    H242219   2.635   6.483  11.976 -1.1242 -0.5000 -1.4858
 6910TIP3   OH242220   1.970   5.778  11.867 -0.2483 -0.7543 -0.0899
 6910TIP3    H142221   1.881   5.791  11.900  0.2762  1.0851  0.7335
 6910TIP3    H242222   1.980   5.843  11.798  0.8716 -0.0620  0.7027
 6911TIP3   OH242223   5.060   5.072   0.434 -0.1846  0.0750  0.4310
 6911TIP3    H142224   5.050   5.135   0.506  0.7078 -0.1515  0.7604
 6911TIP3    H242225   5.132   5.016   0.460 -0.6596 -0.8052 -0.0813
 6912TIP3   OH242226   5.336   6.139   0.861  0.1737  0.5612  0.2630
 6912TIP3    H142227   5.273   6.208   0.883  1.4211  2.3146 -1.3406
 6912TIP3    H242228   5.362   6.102   0.945 -1.6734  0.9842  1.0624
 6913TIP3   OH242229   3.677   4.110   1.449 -0.6137 -0.1710  0.7766
 6913TIP3    H142230   3.709   4.108   1.539 -0.9061 -0.8288  0.8779
 6913TIP3    H242231   3.601   4.168   1.451 -0.9970 -0.6747  1.0926
 6914TIP3   OH242232   3.176   5.234  14.292 -0.2447 -0.0169 -0.2245
 6914TIP3    H142233   3.210   5.149  14.321 -1.3173 -1.2491 -2.3274
 6914TIP3    H242234   3.238   5.263  14.225 -0.8920 -0.0647 -0.8490
 6915TIP3   OH242235   2.697   3.032  14.086 -0.3383  0.4827  0.4873
 6915TIP3    H142236   2.608   2.999  14.070  0.1564 -1.9200  2.2337
 6915TIP3    H242237   2.753   2.975  14.035  0.4792 -0.8894  2.8005
 6916TIP3   OH242238   4.336   5.188  16.962 -0.1316  0.3154 -0.1108
 6916TIP3    H142239   4.252   5.150  16.988 -0.6588  1.2833 -0.3115
 6916TIP3    H242240   4.386   5.194  17.043  0.0688 -1.0222 -0.1226
 6917TIP3   OH242241   3.999   4.292   3.107 -0.2043 -0.5421  0.2222
 6917TIP3    H142242   4.089   4.326   3.107  0.0858 -1.2462 -0.5859
 6917TIP3    H242243   3.990   4.251   3.021 -1.5459  0.1338  0.0223
 6918TIP3   OH242244   6.667   5.238   2.940  0.3085 -0.0680 -0.0945
 6918TIP3    H142245   6.584   5.250   2.893  0.4034 -1.8928 -0.7916
 6918TIP3    H242246   6.699   5.152   2.911  1.6177 -0.1342  1.4376
 6919TIP3   OH242247   0.421   1.388   0.437 -0.4033  0.3066 -0.0636
 6919TIP3    H142248   0.403   1.420   0.349  0.6452 -0.2165 -0.4794
 6919TIP3    H242249   0.344   1.414   0.488 -0.9892  0.6744 -1.1084
 6920TIP3   OH242250   2.433   2.260  10.519  0.0891 -0.2010  0.3127
 6920TIP3    H142251   2.426   2.166  10.500 -0.6974  0.3316 -2.5855
 6920TIP3    H242252   2.344   2.293  10.511  0.7416  1.2422 -2.0591
 6921TIP3   OH242253   3.377   4.416   1.579 -0.0378  0.0627 -0.1338
 6921TIP3    H142254   3.447   4.363   1.617  0.3192 -0.0989 -0.9851
 6921TIP3    H242255   3.422   4.475   1.519 -0.4873  0.9835  0.4118
 6922TIP3   OH242256   4.259   4.703   5.663 -0.0824 -0.1389 -0.4238
 6922TIP3    H142257   4.234   4.751   5.584 -1.9063  0.5475  0.4995
 6922TIP3    H242258   4.335   4.651   5.637 -0.6870 -0.0062 -2.6392
 6923TIP3   OH242259   0.497   4.779   3.018  0.5060  0.6804  0.5916
 6923TIP3    H142260   0.475   4.770   2.926  0.5825  3.3588  0.2408
 6923TIP3    H242261   0.583   4.822   3.018  0.9874 -0.2266  1.9260
 6924TIP3   OH242262   2.543   3.199  13.439 -0.6512  1.1453 -0.6222
 6924TIP3    H142263   2.466   3.152  13.407 -0.7420  0.7225  0.1805
 6924TIP3    H242264   2.507   3.275  13.485 -0.5063  2.0039 -1.8731
 6925TIP3   OH242265   2.707   5.133   6.133 -0.5720 -0.3639 -0.2636
 6925TIP3    H142266   2.799   5.107   6.129 -0.1893  0.9078  0.0261
 6925TIP3    H242267   2.682   5.145   6.041 -0.5038 -0.8527 -0.3508
 6926TIP3   OH242268   3.578   0.256  11.095  0.4442  0.0393  0.4938
 6926TIP3    H142269   3.587   0.161  11.096  1.8536  0.1271  2.2338
 6926TIP3    H242270   3.608   0.282  11.008 -0.4133 -1.1205 -0.1758
 6927TIP3   OH242271   5.512   4.692  11.723  0.3609  0.0148 -0.1030
 6927TIP3    H142272   5.569   4.754  11.769 -0.4763  0.7558 -0.0384
 6927TIP3    H242273   5.572   4.626  11.687  1.6028  2.1964 -2.3417
 6928TIP3   OH242274   2.926   0.404   2.013 -0.6794 -0.3221  0.1702
 6928TIP3    H142275   2.929   0.498   1.997  2.7045 -0.3090  0.0836
 6928TIP3    H242276   2.964   0.365   1.934 -0.0478 -1.5615  1.0460
 6929TIP3   OH242277   5.561   6.708   1.804 -0.7496 -0.0245 -0.3581
 6929TIP3    H142278   5.551   6.676   1.715 -1.1318 -0.4189 -0.1770
 6929TIP3    H242279   5.586   6.800   1.794 -0.2496 -0.2146 -0.8724
 6930TIP3   OH242280   2.675   3.081   1.902 -0.5523  0.0805 -0.0354
 6930TIP3    H142281   2.624   3.080   1.983  1.6552 -0.2021  1.4230
 6930TIP3    H242282   2.618   3.127   1.840 -2.7710 -0.6605  1.3047
 6931TIP3   OH242283   4.914   5.620  13.474  0.2452 -0.2300  0.0970
 6931TIP3    H142284   4.848   5.584  13.415 -1.7417  2.6718  0.3587
 6931TIP3    H242285   4.977   5.664  13.417  1.1074 -1.5730 -0.0450
 6932TIP3   OH242286   2.564   5.913  10.434 -0.3345 -0.2766  0.4481
 6932TIP3    H142287   2.586   5.873  10.350 -0.5687 -0.7986  0.6325
 6932TIP3    H242288   2.589   5.848  10.499  1.2920  0.7320  0.8919
 6933TIP3   OH242289   2.296   5.700  14.710 -0.2602 -0.3943  0.0093
 6933TIP3    H142290   2.375   5.646  14.705 -0.3121 -0.5332  0.5494
 6933TIP3    H242291   2.288   5.740  14.624  0.9977  0.4744  0.2712
 6934TIP3   OH242292   1.450   3.926  13.472 -0.2701  0.4239 -0.1222
 6934TIP3    H142293   1.384   3.947  13.406 -1.1415 -0.4058  0.4493
 6934TIP3    H242294   1.487   4.010  13.498 -1.3785  0.9474 -0.1925
 6935TIP3   OH242295   1.780   1.811   0.075 -0.2681 -0.7208 -0.3535
 6935TIP3    H142296   1.715   1.839   0.139 -0.2144  1.3792 -1.1135
 6935TIP3    H242297   1.858   1.862   0.097  0.5841 -1.9263 -0.5059
 6936TIP3   OH242298   4.659   4.485  13.200 -0.6078  0.0399  0.2396
 6936TIP3    H142299   4.624   4.512  13.115  1.1819  0.7929 -0.3067
 6936TIP3    H242300   4.692   4.566  13.239  0.6670 -0.6330  0.6233
 6937TIP3   OH242301   0.394   3.163  11.644  0.1029  0.2578  0.0853
 6937TIP3    H142302   0.341   3.124  11.714 -0.7713  1.0287 -0.1250
 6937TIP3    H242303   0.339   3.232  11.608  0.7124  0.1581 -1.0857
 6938TIP3   OH242304   1.960   4.147   5.840 -0.0663  0.8054  0.5992
 6938TIP3    H142305   1.901   4.106   5.777  1.1061  0.9930 -0.6699
 6938TIP3    H242306   1.916   4.229   5.865 -0.4122  0.8638 -0.1938
 6939TIP3   OH242307   6.695   6.177   2.092  0.4196 -0.2992 -0.3861
 6939TIP3    H142308   6.654   6.247   2.040 -0.7227  0.1251  1.0078
 6939TIP3    H242309   6.784   6.209   2.108 -0.9990  2.5813  3.0128
 6940TIP3   OH242310   3.989   5.847  14.084 -0.4421 -0.4235 -0.5938
 6940TIP3    H142311   4.081   5.865  14.066 -0.2655 -1.2815 -0.5910
 6940TIP3    H242312   3.982   5.752  14.081 -0.7201 -0.5794  2.3193
 6941TIP3   OH242313   2.764   6.475  17.014  0.3296  0.4062  0.1788
 6941TIP3    H142314   2.711   6.422  17.072  0.3223  1.1129  0.8372
 6941TIP3    H242315   2.760   6.563  17.051  0.9812  0.7113 -0.4347
 6942TIP3   OH242316   3.546   6.642   5.470 -0.0550 -0.8434  0.0169
 6942TIP3    H142317   3.563   6.554   5.438 -0.1337 -0.4987 -1.0201
 6942TIP3    H242318   3.557   6.636   5.565  1.3103 -1.6429 -0.1684
 6943TIP3   OH242319   1.932   1.241  16.376  0.0797  0.0894 -0.4532
 6943TIP3    H142320   1.896   1.167  16.424 -0.4276  0.7704  0.2190
 6943TIP3    H242321   1.976   1.201  16.301 -1.2324 -0.8168 -0.7663
 6944TIP3   OH242322   5.867   0.660  11.819  0.3100 -0.1096 -0.4480
 6944TIP3    H142323   5.811   0.712  11.876  0.7887  1.0013 -0.9638
 6944TIP3    H242324   5.808   0.620  11.756 -0.0613 -0.1656 -0.0646
 6945TIP3   OH242325   5.456   5.217  13.810 -0.1395  0.3938  0.6889
 6945TIP3    H142326   5.508   5.157  13.862  0.9234 -1.5377 -2.3916
 6945TIP3    H242327   5.366   5.186  13.820  0.3659 -1.6768 -0.6633
 6946TIP3   OH242328   1.431   0.462   2.673  0.5369 -0.8848 -0.1944
 6946TIP3    H142329   1.383   0.541   2.696 -1.1481 -1.7605 -0.5413
 6946TIP3    H242330   1.462   0.478   2.584  0.9073 -0.2956  0.0422
 6947TIP3   OH242331   2.780   4.307   3.515  0.0086 -0.8074  0.0040
 6947TIP3    H142332   2.850   4.353   3.469 -0.2610  0.4710  0.8137
 6947TIP3    H242333   2.762   4.230   3.461  1.7903 -0.9821 -0.3998
 6948TIP3   OH242334   4.117   4.895  17.065 -0.2260 -0.0912  0.6776
 6948TIP3    H142335   4.093   4.874  16.975  1.5213  1.7224 -0.3030
 6948TIP3    H242336   4.211   4.875  17.070  0.1843  1.7995  1.3918
 6949TIP3   OH242337   6.613   2.157   2.256  0.3919  0.6792 -0.0304
 6949TIP3    H142338   6.629   2.193   2.169  0.7052  0.4936 -0.0525
 6949TIP3    H242339   6.626   2.062   2.245  1.5512  0.7731  0.4647
 6950TIP3   OH242340   5.940   0.122  14.905 -0.8692 -0.8990 -0.2401
 6950TIP3    H142341   5.958   0.030  14.928  0.1065 -0.4317  0.9465
 6950TIP3    H242342   6.003   0.141  14.835 -0.0676 -0.7131  0.5229
 6951TIP3   OH242343   4.113   4.600   3.974 -0.1585  0.2709 -0.3166
 6951TIP3    H142344   4.019   4.608   3.991 -0.6977 -0.8560 -2.5212
 6951TIP3    H242345   4.124   4.515   3.933  1.7002  0.7538 -0.9515
 6952TIP3   OH242346   4.690   6.781   1.443 -0.0760  0.3610  0.3888
 6952TIP3    H142347   4.724   6.707   1.393 -0.0726 -0.4600  1.5678
 6952TIP3    H242348   4.601   6.793   1.412 -0.9264 -1.7099  1.8265
 6953TIP3   OH242349   6.115   5.775   4.785  0.3994  0.2068 -0.2333
 6953TIP3    H142350   6.143   5.691   4.747 -0.9117  0.0217 -0.8381
 6953TIP3    H242351   6.149   5.773   4.874  2.1117 -0.0881 -0.8444
 6954TIP3   OH242352   1.309   1.860   6.768  0.2040  0.0555  0.5482
 6954TIP3    H142353   1.329   1.922   6.839  1.3679  0.3965 -0.0394
 6954TIP3    H242354   1.223   1.888   6.735  0.0449  0.4279  1.2631
 6955TIP3   OH242355   6.717   1.002  15.212 -0.1251  0.4227 -0.0543
 6955TIP3    H142356   6.798   1.054  15.206 -0.2379  0.8361  1.5302
 6955TIP3    H242357   6.665   1.047  15.279 -0.5052 -1.3738  0.9196
 6956TIP3   OH242358   6.434   5.562   3.262 -0.3309 -0.2647 -0.4538
 6956TIP3    H142359   6.398   5.599   3.182  0.3910 -1.5971 -1.4240
 6956TIP3    H242360   6.479   5.635   3.304 -1.8461  0.7778 -0.5526
 6957TIP3   OH242361   3.463   3.875  11.191 -0.7075  0.3014 -0.1769
 6957TIP3    H142362   3.500   3.923  11.117 -2.4536  2.8452  0.4644
 6957TIP3    H242363   3.403   3.937  11.232 -0.0435 -1.0806  3.2163
 6958TIP3   OH242364   0.431   5.095   2.003 -0.7439 -0.4503 -0.4775
 6958TIP3    H142365   0.492   5.096   1.929 -1.5112  4.1928 -1.3888
 6958TIP3    H242366   0.487   5.096   2.081  0.3015  0.6807 -1.2144
 6959TIP3   OH242367   2.308   1.439   0.931  0.0099  0.5123  0.5764
 6959TIP3    H142368   2.335   1.348   0.947 -0.4597  0.4890  1.2775
 6959TIP3    H242369   2.385   1.481   0.894  0.3993 -0.0379  0.7527
 6960TIP3   OH242370   3.068   1.483  16.862  0.6473  0.1599  0.0724
 6960TIP3    H142371   3.126   1.480  16.938  0.0922  1.3253  0.5609
 6960TIP3    H242372   2.980   1.481  16.899  0.3645 -0.6790 -0.6174
 6961TIP3   OH242373   6.499   3.802   4.164 -0.0085 -0.2360 -0.6553
 6961TIP3    H142374   6.493   3.890   4.127  1.4825  1.0039  1.7737
 6961TIP3    H242375   6.584   3.769   4.135  0.2685 -0.0741 -0.0530
 6962TIP3   OH242376   2.929   3.009   0.937  0.0967  0.6042  0.6023
 6962TIP3    H142377   3.012   3.027   0.981  0.1427  1.0048  0.3530
 6962TIP3    H242378   2.877   3.088   0.950 -0.3099  0.2948  0.8951
 6963TIP3   OH242379   0.998   2.331   1.089 -0.4899  0.5609  0.0325
 6963TIP3    H142380   0.912   2.365   1.067 -0.0378  1.9834  0.3093
 6963TIP3    H242381   1.058   2.404   1.071  0.9912 -1.0951 -2.3265
 6964TIP3   OH242382   1.080   4.414  11.895  0.9081 -0.2855  0.1375
 6964TIP3    H142383   1.080   4.375  11.983 -0.7644  0.0729  0.3297
 6964TIP3    H242384   1.163   4.462  11.890  2.6298 -3.0542  0.2204
 6965TIP3   OH242385   0.704   4.163   3.260  0.6693  0.4132 -0.4823
 6965TIP3    H142386   0.735   4.249   3.288  2.5875 -0.8042  1.5076
 6965TIP3    H242387   0.750   4.101   3.318 -1.6594 -1.8946 -0.8952
 6966TIP3   OH242388   1.839   6.297   3.419 -0.0535 -0.7150  0.2215
 6966TIP3    H142389   1.807   6.216   3.458 -1.5242 -1.0977 -1.6256
 6966TIP3    H242390   1.760   6.344   3.392  0.8021 -0.6494 -2.4982
 6967TIP3   OH242391   5.594   2.024   4.839  0.0655  0.5914 -0.0974
 6967TIP3    H142392   5.644   2.087   4.788  0.2318  1.7430  1.4091
 6967TIP3    H242393   5.653   1.997   4.910 -1.0304  1.1615  1.0814
 6968TIP3   OH242394   5.951   6.125  16.151  0.2030  0.3780 -0.3672
 6968TIP3    H142395   5.856   6.123  16.164  0.0930  0.2247 -1.1170
 6968TIP3    H242396   5.987   6.141  16.238 -0.5234  0.6853 -0.1120
 6969TIP3   OH242397   3.650   6.261  11.339  1.0160  0.0525  0.2622
 6969TIP3    H142398   3.691   6.199  11.278  1.8411 -0.1895  1.0399
 6969TIP3    H242399   3.612   6.206  11.407  2.0509  0.3864  1.1369
 6970TIP3   OH242400   0.366   0.946   5.092  0.4958 -0.4672 -0.0249
 6970TIP3    H142401   0.296   0.947   5.158  0.4551  0.9760 -0.0574
 6970TIP3    H242402   0.425   1.017   5.118  0.6118 -0.0327 -1.3935
 6971TIP3   OH242403   4.364   2.201   4.310 -0.2096  0.1144 -0.5454
 6971TIP3    H142404   4.322   2.182   4.394  1.9204 -0.2588  0.4741
 6971TIP3    H242405   4.361   2.118   4.263 -1.3940  0.3213 -0.8949
 6972TIP3   OH242406   2.114   4.868   3.048  0.2482 -0.3507 -0.1798
 6972TIP3    H142407   2.085   4.787   3.090  3.9250 -1.2184  1.1694
 6972TIP3    H242408   2.207   4.874   3.072  1.0424  2.3896 -3.2955
 6973TIP3   OH242409   0.160   6.753  13.563 -0.0649 -0.4657 -0.0697
 6973TIP3    H142410   0.087   6.716  13.612 -0.8625  0.0462 -0.8602
 6973TIP3    H242411   0.143   6.729  13.472 -0.8995  2.2665 -0.7081
 6974TIP3   OH242412   5.081   4.490  15.947 -0.3262 -0.0712 -0.4948
 6974TIP3    H142413   5.126   4.488  15.863 -1.1368  1.1114 -0.9862
 6974TIP3    H242414   5.057   4.399  15.965  1.1829 -0.5556 -0.7839
 6975TIP3   OH242415   0.957   2.475  12.842 -0.3019 -0.0461  0.7533
 6975TIP3    H142416   0.873   2.438  12.870 -0.2014  0.3989  1.6495
 6975TIP3    H242417   0.958   2.460  12.747 -0.2583 -2.3624  1.0530
 6976TIP3   OH242418   1.608   6.149   3.457  0.1709  0.0175  0.3357
 6976TIP3    H142419   1.530   6.186   3.415 -0.5179  1.1707  2.4418
 6976TIP3    H242420   1.592   6.055   3.456 -1.1810  0.2118  0.5277
 6977TIP3   OH242421   3.920   0.150   2.315  0.4624  0.0742 -0.5857
 6977TIP3    H142422   3.852   0.119   2.376  1.1215 -1.1047 -0.4330
 6977TIP3    H242423   3.923   0.245   2.330 -1.9957  0.3677 -1.4722
 6978TIP3   OH242424   2.582   4.187  13.056 -0.1977  0.3201 -0.1892
 6978TIP3    H142425   2.514   4.123  13.076  1.1650 -1.1807 -0.1228
 6978TIP3    H242426   2.641   4.182  13.131  0.8867  0.3089 -1.0261
 6979TIP3   OH242427   4.381   3.373  13.354 -0.3872  0.2710  0.1892
 6979TIP3    H142428   4.304   3.426  13.374  0.1835  1.5185 -0.7644
 6979TIP3    H242429   4.366   3.341  13.265 -0.2077 -0.2177  0.3318
 6980TIP3   OH242430   0.251   4.041   1.837  0.0380  0.2954 -0.1062
 6980TIP3    H142431   0.234   4.092   1.758 -1.8647 -0.2264 -0.1027
 6980TIP3    H242432   0.304   4.099   1.892  1.9705  0.4096 -1.9936
 6981TIP3   OH242433   5.148   3.901  10.710 -0.2719  0.2692  0.1901
 6981TIP3    H142434   5.160   3.832  10.645  0.6721  0.1923  0.4414
 6981TIP3    H242435   5.110   3.974  10.660  0.2199  0.1287 -0.3963
 6982TIP3   OH242436   3.288   3.588   4.178  0.1914  0.1327 -0.0116
 6982TIP3    H142437   3.299   3.666   4.124 -0.8775 -0.9233 -1.8507
 6982TIP3    H242438   3.201   3.597   4.216  0.4111  0.2465  0.4626
 6983TIP3   OH242439   3.448   4.574   4.715 -0.0425 -0.1217  0.0378
 6983TIP3    H142440   3.501   4.496   4.729 -0.2642 -0.3690 -0.4944
 6983TIP3    H242441   3.365   4.542   4.681 -1.1617  0.1315  2.3579
 6984TIP3   OH242442   0.831   6.317   6.319  0.2712 -0.4382  0.3825
 6984TIP3    H142443   0.822   6.397   6.370  3.0292 -0.8157  1.6274
 6984TIP3    H242444   0.746   6.274   6.326 -1.1926  2.1876 -0.1144
 6985TIP3   OH242445   2.961   1.447  17.188 -0.3743 -0.1724 -0.2351
 6985TIP3    H142446   2.928   1.382  17.250  1.2837  0.3304  1.2352
 6985TIP3    H242447   2.897   1.445  17.116 -0.9226 -2.6622  0.2254
 6986TIP3   OH242448   2.760   6.483  16.514  0.1585  0.1827  0.0861
 6986TIP3    H142449   2.679   6.435  16.530  0.2167 -0.7337 -1.9564
 6986TIP3    H242450   2.828   6.416  16.511  0.5415  0.5928 -0.9552
 6987TIP3   OH242451   1.189   3.828  14.009 -0.1405  0.6668 -0.0186
 6987TIP3    H142452   1.194   3.748  14.061  3.8155 -1.0128 -2.4569
 6987TIP3    H242453   1.124   3.809  13.941 -0.6698  0.3249  0.5780
 6988TIP3   OH242454   2.096   0.183  13.449 -0.3563 -0.5909  0.0876
 6988TIP3    H142455   2.171   0.237  13.423 -1.1233  0.4639  0.0091
 6988TIP3    H242456   2.110   0.168  13.543 -0.9746  1.1868  0.5049
 6989TIP3   OH242457   5.394   1.161  15.670 -0.2452  0.3498 -0.0448
 6989TIP3    H142458   5.358   1.108  15.741  0.8385 -0.7739 -0.3027
 6989TIP3    H242459   5.320   1.214  15.640 -1.0171 -0.0300  1.1136
 6990TIP3   OH242460   1.989   6.037  13.110 -0.0828 -0.6917  0.0368
 6990TIP3    H142461   2.019   6.038  13.201  0.9115  0.4533 -0.2766
 6990TIP3    H242462   2.062   6.074  13.061 -1.7030  1.5056 -0.8757
 6991TIP3   OH242463   1.045   4.153  12.867  0.6443 -0.2532  0.0708
 6991TIP3    H142464   0.960   4.167  12.825  1.2807 -0.4872 -1.3451
 6991TIP3    H242465   1.063   4.060  12.853  1.0423 -0.2529  0.5576
 6992TIP3   OH242466   2.319   5.499   5.399  0.2135 -0.1364 -0.5826
 6992TIP3    H142467   2.288   5.588   5.416 -1.1613 -0.6313 -0.4194
 6992TIP3    H242468   2.343   5.465   5.485  0.2364 -0.1015 -0.5754
 6993TIP3   OH242469   0.208   2.571   3.853  0.3684 -0.3735  0.2791
 6993TIP3    H142470   0.224   2.656   3.812 -0.5389  0.6420  1.8692
 6993TIP3    H242471   0.219   2.507   3.783  0.4622  1.1076 -1.1168
 6994TIP3   OH242472   2.010   3.425   2.185  0.4181 -0.3222  0.1499
 6994TIP3    H142473   1.990   3.511   2.147 -1.1419  0.0413  1.6100
 6994TIP3    H242474   2.104   3.425   2.198  0.3852  1.4984  0.7357
 6995TIP3   OH242475   2.065   4.387  12.111  0.4366 -0.6162 -0.0588
 6995TIP3    H142476   1.980   4.390  12.066  1.1774  0.6448 -1.4502
 6995TIP3    H242477   2.130   4.393  12.041  1.6435  0.4517  1.0952
 6996TIP3   OH242478   2.054   0.932  12.506 -0.1934  0.2750  0.0831
 6996TIP3    H142479   1.983   0.878  12.539 -1.2315  0.8652 -1.1094
 6996TIP3    H242480   2.021   1.022  12.512 -0.2489  0.4474 -2.0140
 6997TIP3   OH242481   3.547   4.719  14.304  0.0409 -0.1566  0.0992
 6997TIP3    H142482   3.566   4.746  14.214  0.2342 -0.0524  0.1710
 6997TIP3    H242483   3.582   4.630  14.310 -0.8266 -0.5400 -0.2176
 6998TIP3   OH242484   3.148   2.934   2.149 -0.4372  0.5398 -0.1013
 6998TIP3    H142485   3.079   2.976   2.100  0.7298  1.8315 -0.6969
 6998TIP3    H242486   3.206   2.897   2.082 -0.3797 -0.2564  0.3765
 6999TIP3   OH242487   4.260   3.822   2.207  0.6654 -0.3819 -0.3957
 6999TIP3    H142488   4.175   3.862   2.224  1.1199  0.6151 -0.4186
 6999TIP3    H242489   4.310   3.836   2.287  0.3375 -2.2930  0.1926
 7000TIP3   OH242490   6.326   2.236   6.719  0.2288  0.6905  0.1236
 7000TIP3    H142491   6.291   2.214   6.633 -3.4215 -4.2550  2.4070
 7000TIP3    H242492   6.415   2.202   6.719 -0.4736 -1.2535 -1.0945
 7001TIP3   OH242493   2.997   3.995   6.007  0.3278  0.6366  0.0550
 7001TIP3    H142494   3.048   3.996   6.088  1.2954  1.3026 -0.5405
 7001TIP3    H242495   2.956   4.082   6.003  0.3827  0.6512 -0.2279
 7002TIP3   OH242496   0.051   6.292  16.287 -0.1573  0.3942 -0.6314
 7002TIP3    H142497   0.019   6.376  16.320 -1.5778  0.0125 -0.9883
 7002TIP3    H242498   0.082   6.245  16.365 -1.7949  0.2230 -0.0531
 7003TIP3   OH242499   5.086   2.786   2.860 -0.7354 -0.0936  0.0957
 7003TIP3    H142500   5.102   2.699   2.894 -2.0174  0.2458  1.7190
 7003TIP3    H242501   4.991   2.798   2.867 -0.6807  1.1601 -0.7793
 7004TIP3   OH242502   0.236   2.304   5.902 -0.0903 -0.0651 -0.0972
 7004TIP3    H142503   0.287   2.349   5.835 -1.7681 -0.0497 -1.4142
 7004TIP3    H242504   0.220   2.217   5.866  0.9312 -0.8911  1.3209
 7005TIP3   OH242505   6.172   1.220   1.574  0.1100 -0.0840  0.0631
 7005TIP3    H142506   6.152   1.281   1.503  1.0171  1.1528  0.8393
 7005TIP3    H242507   6.220   1.272   1.639  1.0110 -1.6321  0.7167
 7006TIP3   OH242508   5.288   6.350   2.540  0.4054  0.0366  0.4616
 7006TIP3    H142509   5.271   6.411   2.469  1.8783  0.6500  0.6103
 7006TIP3    H242510   5.246   6.269   2.512 -1.2721  0.9772  0.0936
 7007TIP3   OH242511   6.002   4.532  12.962  0.5639 -0.2491  0.0653
 7007TIP3    H142512   5.966   4.531  13.050  2.1710 -0.2583  0.7649
 7007TIP3    H242513   5.985   4.445  12.927 -0.1040 -0.2368  0.3546
 7008TIP3   OH242514   1.754   3.333  16.064 -0.3709  0.4808 -0.7762
 7008TIP3    H142515   1.787   3.360  16.150  0.5756  0.6232 -1.1734
 7008TIP3    H242516   1.782   3.402  16.004  1.5080 -0.9897 -1.6924
 7009TIP3   OH242517   0.553   4.213   2.850 -0.0764 -0.0012  0.4936
 7009TIP3    H142518   0.509   4.157   2.787  0.8474 -3.6103  2.7461
 7009TIP3    H242519   0.586   4.287   2.799 -2.1102 -1.0219 -2.5482
 7010TIP3   OH242520   6.041   4.724   4.101 -0.7973 -0.5172 -0.7218
 7010TIP3    H142521   6.050   4.785   4.174  1.8849  0.1697 -1.5068
 7010TIP3    H242522   6.045   4.638   4.141  3.8645 -0.2507 -0.0825
 7011TIP3   OH242523   6.027   5.042   2.099 -0.7953  0.0246 -0.4722
 7011TIP3    H142524   5.949   5.003   2.137 -0.6836 -0.8024 -1.0746
 7011TIP3    H242525   6.065   4.973   2.044  0.4927  0.3229 -0.0070
 7012TIP3   OH242526   2.975   6.812  12.301  0.3401  0.3463 -0.0495
 7012TIP3    H142527   2.965   6.781  12.211  2.0334 -0.7450  0.0955
 7012TIP3    H242528   3.045   6.877  12.296  2.7474 -2.0054  0.8796
 7013TIP3   OH242529   1.782   4.531  13.547  0.6180 -0.0858  0.1469
 7013TIP3    H142530   1.731   4.536  13.466  1.3237 -0.5281 -0.3378
 7013TIP3    H242531   1.852   4.468  13.528 -0.6822 -2.2343  1.9167
 7014TIP3   OH242532   1.136   1.626   0.805  0.5086 -0.2696 -0.0012
 7014TIP3    H142533   1.142   1.560   0.735  0.3261  1.1644 -1.4412
 7014TIP3    H242534   1.217   1.676   0.798  1.8299 -1.8088  2.7399
 7015TIP3   OH242535   1.448   6.545  16.221  0.1308 -0.7787  0.1849
 7015TIP3    H142536   1.524   6.591  16.185  1.3705 -1.7716  1.4265
 7015TIP3    H242537   1.464   6.543  16.315 -1.6122 -0.7293  0.5151
 7016TIP3   OH242538   2.879   0.487   6.400  0.3038 -0.3135  0.0340
 7016TIP3    H142539   2.791   0.467   6.368 -0.0791 -0.5829  1.2219
 7016TIP3    H242540   2.902   0.414   6.457  1.1862 -0.1054 -0.0365
 7017TIP3   OH242541   0.009   6.380   2.163  0.4248  0.1180 -0.6914
 7017TIP3    H142542  -0.050   6.431   2.219 -0.2610 -0.8245 -0.5278
 7017TIP3    H242543   0.024   6.436   2.087 -0.8436  0.3191 -0.8223
 7018TIP3   OH242544   4.044   6.195   4.233 -0.8656  0.0762 -0.2886
 7018TIP3    H142545   4.049   6.279   4.278 -2.6896 -0.0869  0.2945
 7018TIP3    H242546   3.973   6.206   4.170  0.7612 -0.1306 -2.2635
 7019TIP3   OH242547   3.698   5.312  12.359  0.5022  0.2251 -0.6662
 7019TIP3    H142548   3.729   5.225  12.336  1.7120  0.9139 -1.8102
 7019TIP3    H242549   3.675   5.306  12.452 -1.2548 -1.7775 -1.1561
 7020TIP3   OH242550   6.678   5.535  15.711  0.3899 -0.3357 -0.4855
 7020TIP3    H142551   6.690   5.581  15.628 -0.3515  0.8333  0.0140
 7020TIP3    H242552   6.601   5.480  15.698 -0.9119  1.2997 -0.0276
 7021TIP3   OH242553   2.043   3.193  16.672 -0.0895 -0.0720  0.2353
 7021TIP3    H142554   2.130   3.203  16.634 -0.9961  0.8456 -1.7433
 7021TIP3    H242555   2.027   3.098  16.671  0.0931 -0.1159 -1.3897
 7022TIP3   OH242556   3.148   6.819  16.380  0.0872 -0.5071  0.3774
 7022TIP3    H142557   3.220   6.756  16.375  1.1444  0.6375  0.5653
 7022TIP3    H242558   3.088   6.793  16.311  1.0271 -1.0908 -0.2478
 7023TIP3   OH242559   3.923   6.439   5.521  0.1017 -0.1020  0.1243
 7023TIP3    H142560   3.902   6.529   5.547 -0.0094 -0.1953  0.3569
 7023TIP3    H242561   4.007   6.421   5.563 -0.2474 -0.3768  0.7207
 7024TIP3   OH242562   3.827   6.393   5.268  0.0802  0.1199  0.4225
 7024TIP3    H142563   3.882   6.394   5.346 -1.8477  0.3624  1.8278
 7024TIP3    H242564   3.888   6.414   5.197  1.7548  0.6758  1.9316
 7025TIP3   OH242565   3.052   2.801  11.001 -0.6433 -0.2609 -0.2775
 7025TIP3    H142566   3.126   2.847  11.042 -0.7582 -0.7906  0.5577
 7025TIP3    H242567   2.991   2.870  10.978 -0.1062  0.1423 -0.5096
 7026TIP3   OH242568   1.711   5.093  15.177 -0.1637  0.4279 -0.1512
 7026TIP3    H142569   1.622   5.116  15.151 -0.0678  0.7034 -0.2344
 7026TIP3    H242570   1.719   5.000  15.155 -0.6992  0.1952  0.6028
 7027TIP3   OH242571   1.558   2.528   2.799  0.7323  0.0745  0.3265
 7027TIP3    H142572   1.578   2.585   2.874 -0.0911  0.5277  0.2130
 7027TIP3    H242573   1.590   2.442   2.826 -3.2975 -0.8321  3.0554
 7028TIP3   OH242574   6.125   5.627   5.786  0.1359 -0.3250  0.3473
 7028TIP3    H142575   6.207   5.641   5.739 -1.2326  1.7661 -1.6179
 7028TIP3    H242576   6.151   5.583   5.867  3.2080  0.5388 -0.0513
 7029TIP3   OH242577   4.400   4.392  16.436  1.1653  0.5525 -0.3437
 7029TIP3    H142578   4.480   4.431  16.399  2.0426  1.0181  1.8606
 7029TIP3    H242579   4.394   4.430  16.524 -0.0818 -1.4168  0.4845
 7030TIP3   OH242580   3.058   1.969   2.897  0.0961  0.2625 -0.2447
 7030TIP3    H142581   3.001   1.978   2.820  0.3855  0.3632 -0.4506
 7030TIP3    H242582   3.146   1.990   2.864  0.0512  1.4734  0.3946
 7031TIP3   OH242583   4.278   3.994  16.970  0.4633 -0.0586 -0.0979
 7031TIP3    H142584   4.307   3.905  16.949 -1.4219 -0.4213 -1.3383
 7031TIP3    H242585   4.359   4.039  16.996  1.4431 -2.1582  0.7848
 7032TIP3   OH242586   1.979   2.866  15.418 -0.6465 -0.2040  0.3303
 7032TIP3    H142587   2.062   2.820  15.432 -1.7046 -2.2007  0.3331
 7032TIP3    H242588   1.983   2.896  15.327  0.5954  0.9087  0.7094
 7033TIP3   OH242589   0.021   5.365   2.661  0.1995  0.2252  0.2830
 7033TIP3    H142590   0.026   5.435   2.726  0.1669  1.9021 -1.4106
 7033TIP3    H242591   0.096   5.382   2.603 -0.6251 -0.2572 -0.9722
 7034TIP3   OH242592   0.916   2.683   0.432  0.3001  0.0239  0.0628
 7034TIP3    H142593   0.905   2.723   0.519 -0.1620  1.8272 -0.7787
 7034TIP3    H242594   0.829   2.688   0.392  0.4579 -0.9958 -0.4350
 7035TIP3   OH242595   5.324   2.119  16.111  0.2243 -0.1987 -0.0696
 7035TIP3    H142596   5.341   2.178  16.184  0.3180  0.9485 -0.9958
 7035TIP3    H242597   5.330   2.174  16.033 -1.0030 -1.1632 -0.8857
 7036TIP3   OH242598   4.030   4.542   1.001 -0.1293  0.2333 -0.0737
 7036TIP3    H142599   4.032   4.449   0.980 -1.0539  0.4257 -1.1128
 7036TIP3    H242600   4.030   4.544   1.097  1.7868 -0.7474 -0.0035
 7037TIP3   OH242601   1.201   2.558  14.475 -0.1541  0.0125 -0.2805
 7037TIP3    H142602   1.148   2.515  14.407  0.8775  0.4987 -1.4251
 7037TIP3    H242603   1.219   2.488  14.538 -0.9552 -0.5082 -0.6070
 7038TIP3   OH242604   5.547   6.257   3.028  0.6561 -0.4054  0.1823
 7038TIP3    H142605   5.557   6.273   3.122 -1.8242 -3.3941  1.0985
 7038TIP3    H242606   5.592   6.174   3.013 -0.4013 -0.8191 -0.8654
 7039TIP3   OH242607   0.368   2.250   0.268 -0.1793  0.0417  0.4650
 7039TIP3    H142608   0.431   2.292   0.327  2.0192 -1.8408 -0.3869
 7039TIP3    H242609   0.419   2.231   0.189 -2.5845  0.9239 -1.4279
 7040TIP3   OH242610   4.644   0.495  12.195  0.0737 -0.1409 -0.0524
 7040TIP3    H142611   4.613   0.469  12.282 -2.4215 -0.5928 -0.9941
 7040TIP3    H242612   4.675   0.414  12.156  2.7001  0.3145  0.8962
 7041TIP3   OH242613   0.923   6.744   1.430  0.4605  0.0680 -0.0190
 7041TIP3    H142614   0.848   6.751   1.489  0.0583  1.6431 -0.6628
 7041TIP3    H242615   0.922   6.652   1.402 -0.9559 -0.0644  0.3517
 7042TIP3   OH242616   4.420   5.354   5.699  0.0756 -0.2121 -0.3456
 7042TIP3    H142617   4.445   5.395   5.782 -0.0823 -0.4208 -0.1955
 7042TIP3    H242618   4.412   5.261   5.720 -1.9470 -0.0159 -0.1310
 7043TIP3   OH242619   3.425   0.143  15.069  0.1535 -0.6159 -0.1871
 7043TIP3    H142620   3.415   0.056  15.029  0.1484 -0.0711 -1.4064
 7043TIP3    H242621   3.377   0.202  15.011 -0.0087  0.1890  0.7355
 7044TIP3   OH242622   5.232   4.379  16.926 -0.3538  0.8507  0.2276
 7044TIP3    H142623   5.184   4.374  17.009 -0.2978 -0.9037  0.1934
 7044TIP3    H242624   5.298   4.310  16.932 -0.9597  0.0534 -1.6479
 7045TIP3   OH242625   4.762   6.119   6.441  0.5829 -0.1021 -0.5740
 7045TIP3    H142626   4.724   6.140   6.526 -0.6771  1.8030 -1.5301
 7045TIP3    H242627   4.766   6.023   6.439  1.1753 -0.1904  1.8085
 7046TIP3   OH242628   4.098   2.879  11.899  0.3657 -0.2360  0.3659
 7046TIP3    H142629   4.096   2.930  11.981  2.3112 -3.1447  2.4681
 7046TIP3    H242630   4.173   2.915  11.851 -1.0654  1.8017 -0.4856
 7047TIP3   OH242631   0.843   4.419   4.082 -0.3935  0.3664  0.5610
 7047TIP3    H142632   0.791   4.471   4.020  0.8809  0.1080 -0.7956
 7047TIP3    H242633   0.845   4.331   4.043 -1.2394 -0.3293  2.0334
 7048TIP3   OH242634   4.585   6.048   2.624 -1.0355 -0.1147  0.3064
 7048TIP3    H142635   4.674   6.018   2.645 -0.4152  0.9852 -0.6435
 7048TIP3    H242636   4.532   5.969   2.626 -0.2587 -0.6491  1.9706
 7049TIP3   OH242637   1.458   6.388   0.182  0.1147  0.3996 -0.3622
 7049TIP3    H142638   1.473   6.307   0.135  0.5846  0.9571 -1.1994
 7049TIP3    H242639   1.491   6.457   0.124 -0.0263  1.1730  0.4369
 7050TIP3   OH242640   1.943   4.177  15.657 -0.0766  0.2327 -0.2325
 7050TIP3    H142641   1.883   4.158  15.584 -2.0992  1.0532  1.1186
 7050TIP3    H242642   2.016   4.117  15.644 -2.1897 -2.4120 -0.8173
 7051TIP3   OH242643   0.826   2.493   6.535 -0.3365 -0.7198 -0.2944
 7051TIP3    H142644   0.786   2.579   6.521  0.4261 -0.0594  1.3182
 7051TIP3    H242645   0.753   2.437   6.562 -1.0776 -0.9658 -2.6427
 7052TIP3   OH242646   1.876   3.151   0.150 -0.0717 -0.5329  0.5718
 7052TIP3    H142647   1.964   3.128   0.179  0.4897 -0.3167 -0.8773
 7052TIP3    H242648   1.885   3.238   0.111 -0.8784 -0.5948  0.2133
 7053TIP3   OH242649   5.400   3.056  15.785  0.2427  0.4507 -0.5897
 7053TIP3    H142650   5.373   3.132  15.733 -0.2297  1.8255  1.5519
 7053TIP3    H242651   5.494   3.069  15.800  0.2138  0.4830 -0.4338
 7054TIP3   OH242652   1.093   4.106  16.953  0.8099  0.0694  0.3844
 7054TIP3    H142653   1.001   4.091  16.975  0.9766  1.4236  2.2215
 7054TIP3    H242654   1.142   4.044  17.007  1.0275 -0.2523 -0.1671
 7055TIP3   OH242655   0.287   3.327   6.173  0.7052  0.0832 -0.3905
 7055TIP3    H142656   0.208   3.286   6.138 -0.1902  1.1022  0.3813
 7055TIP3    H242657   0.262   3.417   6.191  2.6885  1.1407 -2.3070
 7056TIP3   OH242658   2.996   2.119  15.363  0.3579  0.1723 -0.5931
 7056TIP3    H142659   3.077   2.106  15.411 -0.4547 -1.3964  0.4277
 7056TIP3    H242660   2.927   2.114  15.429 -0.6118  0.9995 -1.4982
 7057TIP3   OH242661   4.814   4.742   4.206  0.1604  0.4030 -0.5312
 7057TIP3    H142662   4.812   4.815   4.268  1.1587 -1.5768  2.0488
 7057TIP3    H242663   4.729   4.700   4.216  1.0029 -1.0250  1.0255
 7058TIP3   OH242664   4.143   2.062  16.696  0.3062  0.1799  0.7358
 7058TIP3    H142665   4.173   2.111  16.772 -0.9473 -0.1693  1.4622
 7058TIP3    H242666   4.113   2.129  16.635 -0.2709  0.3788  1.2343
 7059TIP3   OH242667   4.369   3.584  13.642 -0.1458 -0.4910  0.6044
 7059TIP3    H142668   4.325   3.561  13.723  0.8146 -0.3435  1.1942
 7059TIP3    H242669   4.458   3.609  13.670  0.2983 -0.7468 -0.5180
 7060TIP3   OH242670   6.478   5.724   5.966  0.5934 -0.3697 -0.1850
 7060TIP3    H142671   6.496   5.817   5.953 -0.5861 -0.3373 -1.8250
 7060TIP3    H242672   6.463   5.716   6.060 -0.6627  1.3687 -0.1903
 7061TIP3   OH242673   0.005   4.006   3.098 -0.0637  0.0781 -0.2643
 7061TIP3    H142674  -0.079   3.960   3.098  0.2224 -0.4688  0.4018
 7061TIP3    H242675  -0.018   4.099   3.095 -0.7505 -0.0013  1.4678
 7062TIP3   OH242676   5.517   6.843  12.486  0.0767 -0.3343 -0.2185
 7062TIP3    H142677   5.426   6.866  12.504  0.8062  1.1575  1.9166
 7062TIP3    H242678   5.531   6.763  12.537 -0.6903 -2.1128 -2.6293
 7063TIP3   OH242679   2.672   2.963   1.302  0.1506  0.1987  0.1038
 7063TIP3    H142680   2.758   2.981   1.340  0.0744  0.6462  0.0703
 7063TIP3    H242681   2.678   2.873   1.270  1.1018  0.6860 -1.2221
 7064TIP3   OH242682   1.791   1.518   0.277 -0.1598 -0.4075 -0.3587
 7064TIP3    H142683   1.845   1.586   0.319  0.1546 -0.8094 -0.1131
 7064TIP3    H242684   1.769   1.555   0.191  1.0032 -0.4932 -0.7050
 7065TIP3   OH242685   1.527   2.993  10.584  0.5726  0.0669  0.7603
 7065TIP3    H142686   1.496   3.046  10.658  0.9664  0.6217  0.5364
 7065TIP3    H242687   1.448   2.956  10.546  0.3077  0.3192  1.0602
 7066TIP3   OH242688   3.434   1.459  13.641  0.8490  0.0440  0.3295
 7066TIP3    H142689   3.469   1.504  13.565 -0.9651  2.4405  0.8080
 7066TIP3    H242690   3.511   1.440  13.695  1.8649  0.9519 -0.7498
 7067TIP3   OH242691   5.490   0.766  13.545  0.2154 -0.8396  0.3589
 7067TIP3    H142692   5.395   0.767  13.541  0.0433  1.7604  2.3467
 7067TIP3    H242693   5.518   0.752  13.455 -2.0879  0.4313 -0.6385
 7068TIP3   OH242694   6.773   0.263   4.522 -0.0813  0.0128  0.1564
 7068TIP3    H142695   6.853   0.254   4.471 -0.7914  0.7989 -1.1506
 7068TIP3    H242696   6.751   0.356   4.515 -1.4461 -0.3024 -0.0631
 7069TIP3   OH242697   2.995   6.019   0.569  0.7855  0.1693 -0.6818
 7069TIP3    H142698   2.934   6.071   0.622 -1.0582 -0.2144 -2.2910
 7069TIP3    H242699   3.069   6.078   0.553  1.2124  0.4434  1.8562
 7070TIP3   OH242700   4.120   3.813   6.079 -0.3100  0.0691  0.2596
 7070TIP3    H142701   4.145   3.905   6.082 -0.0804  0.0742 -1.2805
 7070TIP3    H242702   4.135   3.781   6.168  1.2381  1.0985  0.4003
 7071TIP3   OH242703   3.923   2.608   3.261  0.2352  0.1940  0.3357
 7071TIP3    H142704   3.929   2.618   3.166  1.0954  0.4866  0.4076
 7071TIP3    H242705   4.012   2.587   3.289 -0.2212 -0.9949  0.9639
 7072TIP3   OH242706   0.499   2.243   1.755  0.0839 -0.2812 -0.2132
 7072TIP3    H142707   0.510   2.276   1.666 -0.2929 -1.0680 -0.5641
 7072TIP3    H242708   0.406   2.219   1.761 -0.1983  0.9372  0.8180
 7073TIP3   OH242709   2.756   5.169  13.921  0.2036  0.1879 -0.2936
 7073TIP3    H142710   2.787   5.253  13.888  0.6125 -0.3416 -1.2983
 7073TIP3    H242711   2.664   5.182  13.941  0.3182  0.9270 -0.2508
 7074TIP3   OH242712   1.693   1.811  13.431 -0.1566 -0.1247 -0.0725
 7074TIP3    H142713   1.771   1.847  13.472  2.5588 -2.3310 -2.8555
 7074TIP3    H242714   1.623   1.874  13.452  2.0226  1.3567  3.5018
 7075TIP3   OH242715   2.024   2.061  13.913 -0.0489  0.3184 -0.0215
 7075TIP3    H142716   2.074   2.135  13.878 -0.9656  0.3980 -1.2370
 7075TIP3    H242717   1.946   2.056  13.857 -1.0415 -0.2555  1.3532
 7076TIP3   OH242718   1.173   6.530  11.808 -0.5759  0.1199 -0.2184
 7076TIP3    H142719   1.198   6.622  11.813 -0.4631  0.3158 -2.9423
 7076TIP3    H242720   1.254   6.482  11.827 -0.4980  0.5599  0.6106
 7077TIP3   OH242721   4.191   6.805   1.259  0.1761  0.1856  0.1388
 7077TIP3    H142722   4.109   6.817   1.307  0.8336 -1.0405  1.6490
 7077TIP3    H242723   4.178   6.723   1.211  0.6281 -0.1720  0.6282
 7078TIP3   OH242724   1.018   0.811  11.874  0.6418  0.0475  0.7088
 7078TIP3    H142725   0.960   0.850  11.809  0.2568  0.4443  1.2885
 7078TIP3    H242726   1.047   0.729  11.834  1.4224  0.8801 -0.5079
 7079TIP3   OH242727   2.515   3.984  15.527  0.5642 -0.0504  0.2885
 7079TIP3    H142728   2.430   3.991  15.570  0.4819  0.4823  0.0410
 7079TIP3    H242729   2.525   3.890  15.508  0.3860 -0.2190  1.0252
 7080TIP3   OH242730   2.367   4.194  14.610  0.0225 -0.3323 -0.2357
 7080TIP3    H142731   2.410   4.279  14.606  2.7908 -1.5408  0.8707
 7080TIP3    H242732   2.277   4.213  14.637  0.6407  2.1889  0.2899
 7081TIP3   OH242733   6.606   5.794   4.419  0.4110  0.3563 -0.0546
 7081TIP3    H142734   6.536   5.757   4.365  0.8930 -0.2417 -0.2859
 7081TIP3    H242735   6.684   5.789   4.364  1.2860 -1.8859  1.2562
 7082TIP3   OH242736   2.516   2.316  12.523  0.4247 -0.2214 -0.0915
 7082TIP3    H142737   2.519   2.222  12.540 -0.0246 -0.0926  0.7514
 7082TIP3    H242738   2.594   2.351  12.565  0.2441 -0.1389  0.1826
 7083TIP3   OH242739   0.017   0.683  12.269  0.3606  0.4195 -0.1655
 7083TIP3    H142740   0.060   0.631  12.336  1.2241  0.6901 -0.4984
 7083TIP3    H242741  -0.075   0.685  12.295  0.1290 -1.9982 -0.5985
 7084TIP3   OH242742   5.067   4.286   0.021 -0.0314  0.6267  0.6404
 7084TIP3    H142743   5.007   4.326   0.084  1.2331  0.9061  1.7009
 7084TIP3    H242744   5.063   4.192   0.041  1.3630  0.8361  2.0840
 7085TIP3   OH242745   1.169   0.641  14.041 -0.1604 -0.5228  0.5675
 7085TIP3    H142746   1.249   0.691  14.024 -1.7248  2.0109 -0.0064
 7085TIP3    H242747   1.178   0.611  14.131  0.8711  0.8934  0.9706
 7086TIP3   OH242748   1.076   2.096  16.425  0.3238 -0.4331  0.2256
 7086TIP3    H142749   1.138   2.147  16.372 -0.2467  1.0531  0.9225
 7086TIP3    H242750   1.016   2.057  16.361 -0.3100  1.2624 -0.2823
 7087TIP3   OH242751   3.933   5.382  15.630 -0.2965 -0.6697  0.2663
 7087TIP3    H142752   3.912   5.456  15.686  0.5880  0.3900 -0.7526
 7087TIP3    H242753   4.011   5.343  15.670 -0.5412 -0.8384  0.5892
 7088TIP3   OH242754   2.404   1.818  12.863  0.0154  0.2499  0.5743
 7088TIP3    H142755   2.423   1.871  12.786  2.4180 -0.6738  0.4606
 7088TIP3    H242756   2.402   1.728  12.830  0.0095 -0.0700  1.4272
 7089TIP3   OH242757   4.845   4.796   2.339  0.4859  0.1481  0.1646
 7089TIP3    H142758   4.913   4.769   2.401  1.8619  0.4298 -1.1517
 7089TIP3    H242759   4.883   4.778   2.253 -1.8833 -1.4678 -0.6415
 7090TIP3   OH242760   0.369   1.816  14.644  0.0987 -0.0872 -0.3611
 7090TIP3    H142761   0.366   1.903  14.685  0.6222 -0.9492  1.6143
 7090TIP3    H242762   0.439   1.823  14.579 -0.2058  1.1079 -0.5886
 7091TIP3   OH242763   4.040   5.412   4.989 -0.2890 -0.4035 -0.4286
 7091TIP3    H142764   3.957   5.390   4.946  0.2043 -2.1245 -0.5811
 7091TIP3    H242765   4.016   5.431   5.080 -1.3632  3.3962 -1.3490
 7092TIP3   OH242766   6.685   1.706  13.198  0.0310  0.1371  0.0717
 7092TIP3    H142767   6.700   1.741  13.286 -0.3115  0.2453  0.0893
 7092TIP3    H242768   6.773   1.694  13.161  0.1655  0.4315  0.2955
 7093TIP3   OH242769   1.829   5.146   4.519 -0.5007 -0.7467 -0.2864
 7093TIP3    H142770   1.781   5.085   4.464  0.3946 -0.6762 -1.1751
 7093TIP3    H242771   1.920   5.115   4.518  0.3170  1.3892 -2.0367
 7094TIP3   OH242772   3.890   3.695  13.695  0.2750  0.0090 -0.2770
 7094TIP3    H142773   3.956   3.722  13.631  0.2186 -1.2293 -0.8917
 7094TIP3    H242774   3.869   3.775  13.743  1.3283  0.6798 -0.8834
 7095TIP3   OH242775   5.368   6.249   4.406  0.1352 -0.0407  0.3555
 7095TIP3    H142776   5.355   6.206   4.490  0.7063  0.7925  0.8816
 7095TIP3    H242777   5.417   6.329   4.427 -1.3286  1.1344 -0.5268
 7096TIP3   OH242778   2.019   4.997   1.375 -0.2563  0.1037  0.5877
 7096TIP3    H142779   2.071   4.917   1.374 -0.3803  0.0099  1.1153
 7096TIP3    H242780   1.933   4.971   1.340  0.0434  0.2627 -0.2967
 7097TIP3   OH242781   1.886   6.190   5.099  0.3098  0.3292 -0.0091
 7097TIP3    H142782   1.961   6.187   5.040 -0.2962 -0.3144 -0.7664
 7097TIP3    H242783   1.887   6.105   5.143  0.6967  0.7649  0.8493
 7098TIP3   OH242784   6.695   6.578   5.336 -0.1878 -0.5414  0.1423
 7098TIP3    H142785   6.602   6.563   5.355 -0.9131  0.4907 -2.1670
 7098TIP3    H242786   6.727   6.628   5.411 -1.3051 -1.4535  1.2784
 7099TIP3   OH242787   4.080   2.238   3.437 -0.0939  0.2385  0.5662
 7099TIP3    H142788   3.988   2.234   3.411 -0.3584  2.4993  0.9413
 7099TIP3    H242789   4.079   2.221   3.531  0.1677 -1.8030  0.2550
 7100TIP3   OH242790   5.129   3.802  12.991 -0.2129 -0.1112 -0.7140
 7100TIP3    H142791   5.179   3.752  13.056  0.3648 -0.3579 -1.3336
 7100TIP3    H242792   5.193   3.863  12.954 -0.4328 -0.2670 -1.3496
 7101TIP3   OH242793   4.645   1.226  16.804 -0.2533 -0.2507 -0.2341
 7101TIP3    H142794   4.692   1.180  16.874 -1.1189 -1.5328 -0.4595
 7101TIP3    H242795   4.590   1.159  16.764  0.1015  0.4862 -2.0587
 7102TIP3   OH242796   2.354   0.429   4.204  0.1145  0.5731  0.3852
 7102TIP3    H142797   2.384   0.411   4.115  0.5693 -1.4636  0.9004
 7102TIP3    H242798   2.394   0.513   4.226  1.1326  0.4438 -0.8405
 7103TIP3   OH242799   6.322   0.572   2.020  0.1620 -1.0159  0.0904
 7103TIP3    H142800   6.346   0.512   2.090 -0.8186 -0.0886  1.2729
 7103TIP3    H242801   6.301   0.516   1.946  2.8238 -1.9651 -0.0269
 7104TIP3   OH242802   1.291   6.259   2.007  0.6052 -0.3069  0.0695
 7104TIP3    H142803   1.340   6.326   2.055  1.0505 -1.3704  1.1379
 7104TIP3    H242804   1.275   6.299   1.921  2.5999  0.4042 -0.0308
 7105TIP3   OH242805   2.775   3.802  10.603  0.4538 -0.0511  0.0928
 7105TIP3    H142806   2.710   3.820  10.535  1.3957 -0.4217 -0.9606
 7105TIP3    H242807   2.852   3.774  10.554  1.3429  0.1850  1.3084
 7106TIP3   OH242808   1.189   4.686   0.934  0.1245  0.7225 -0.2517
 7106TIP3    H142809   1.272   4.725   0.959  0.2598  1.2316 -1.4127
 7106TIP3    H242810   1.134   4.695   1.012  1.2438  0.0550  0.6523
 7107TIP3   OH242811   6.047   1.460  16.420 -0.4530  0.2308 -0.0273
 7107TIP3    H142812   6.015   1.487  16.334 -0.1630  2.2570  0.4496
 7107TIP3    H242813   6.059   1.542  16.468 -2.0533 -0.8485  2.4752
 7108TIP3   OH242814   1.753   2.832   5.920 -0.1058  0.0297 -0.0623
 7108TIP3    H142815   1.672   2.878   5.896 -0.1247 -0.4224 -0.8999
 7108TIP3    H242816   1.744   2.745   5.879  1.2910  0.3564 -1.1220
 7109TIP3   OH242817   5.686   1.988   1.620  0.1214 -0.0480 -0.1897
 7109TIP3    H142818   5.648   2.043   1.551 -0.3563 -0.3767 -0.1918
 7109TIP3    H242819   5.781   2.005   1.614 -0.0439  1.0943  0.0892
 7110TIP3   OH242820   6.139   2.549  16.875 -0.3328 -0.3001 -0.1320
 7110TIP3    H142821   6.233   2.557  16.889  0.0682 -4.7991  1.2971
 7110TIP3    H242822   6.126   2.568  16.782  1.9177  0.7132 -0.2902
 7111TIP3   OH242823   2.162   4.801   3.614  0.2474 -1.0068 -0.9279
 7111TIP3    H142824   2.105   4.871   3.584  0.4623 -0.1715  0.5405
 7111TIP3    H242825   2.132   4.780   3.702  2.5443 -0.0749  0.1755
 7112TIP3   OH242826   6.753   6.741  13.699  0.2881 -0.1240  0.5416
 7112TIP3    H142827   6.696   6.765  13.771  0.0325  0.6424  0.0932
 7112TIP3    H242828   6.708   6.772  13.620  1.5355  0.9731  0.2138
 7113TIP3   OH242829   0.843   0.524  16.570  0.1181  0.3943 -0.1543
 7113TIP3    H142830   0.777   0.511  16.502 -1.3653 -0.1321  1.3088
 7113TIP3    H242831   0.874   0.435  16.591 -1.6866  0.1524  1.9076
 7114TIP3   OH242832   0.199   4.755   3.189  0.1829 -0.1059  0.4186
 7114TIP3    H142833   0.187   4.765   3.095  0.5022  1.6010  0.5287
 7114TIP3    H242834   0.269   4.691   3.198  0.8244  0.4436 -0.5339
 7115TIP3   OH242835   4.646   4.448   0.253  0.2175 -0.5017 -0.1003
 7115TIP3    H142836   4.677   4.538   0.249  0.5855 -0.6144  0.1277
 7115TIP3    H242837   4.677   4.416   0.337 -1.3420 -0.3302  0.5626
 7116TIP3   OH242838   3.327   5.095   4.464  0.1051  0.6248 -0.1646
 7116TIP3    H142839   3.248   5.061   4.421 -0.0686  0.0193  0.6085
 7116TIP3    H242840   3.352   5.026   4.526  0.7395  1.1952  0.2253
 7117TIP3   OH242841   3.411   0.617  12.413 -0.5269  0.3425  0.1146
 7117TIP3    H142842   3.384   0.680  12.480 -0.7937 -1.4093  1.7338
 7117TIP3    H242843   3.329   0.591  12.370 -0.5055  0.5319 -0.0433
 7118TIP3   OH242844   5.528   2.435  15.214 -0.0056  0.3476 -0.3886
 7118TIP3    H142845   5.470   2.360  15.199  1.5767 -0.7711 -1.1613
 7118TIP3    H242846   5.479   2.509  15.177 -0.8315 -0.6072 -1.2994
 7119TIP3   OH242847   5.278   2.491   3.273  0.8157 -0.1938 -0.7912
 7119TIP3    H142848   5.364   2.462   3.303  0.5947  1.4315  1.6320
 7119TIP3    H242849   5.221   2.416   3.287  0.7106  0.4446  3.2338
 7120TIP3   OH242850   4.079   0.824   0.590  0.0808 -0.1313  0.8720
 7120TIP3    H142851   4.035   0.852   0.670 -0.5545  0.2036  0.4113
 7120TIP3    H242852   4.062   0.894   0.527 -0.9562 -1.1923 -0.1032
 7121TIP3   OH242853   1.274   1.605  16.130 -0.4849 -0.2569  0.1977
 7121TIP3    H142854   1.183   1.615  16.158 -1.0141  0.4765 -1.6122
 7121TIP3    H242855   1.293   1.686  16.082  0.4942 -1.1815 -1.0417
 7122TIP3   OH242856   3.976   3.366   5.797  0.2196 -0.1065  0.2175
 7122TIP3    H142857   3.912   3.350   5.728 -1.7920 -0.1641  2.0004
 7122TIP3    H242858   3.945   3.314   5.871  1.0858  1.5932  1.8507
 7123TIP3   OH242859   1.955   5.698   2.769 -0.1583  0.4298 -0.0989
 7123TIP3    H142860   1.920   5.764   2.708 -3.6916 -2.0507 -1.0540
 7123TIP3    H242861   1.897   5.703   2.845  1.6069  0.6069  1.2924
 7124TIP3   OH242862   2.477   0.052   3.326  0.0879  0.2403 -0.0916
 7124TIP3    H142863   2.546  -0.010   3.303  0.5543  0.5508  0.4451
 7124TIP3    H242864   2.511   0.098   3.403 -2.1624 -2.0770  2.5124
 7125TIP3   OH242865   1.017   2.431  13.501 -0.5472 -0.4743  0.0479
 7125TIP3    H142866   0.971   2.349  13.483  0.1029 -0.4247 -2.1592
 7125TIP3    H242867   0.981   2.493  13.439  0.5372  0.3137  0.1754
 7126TIP3   OH242868   0.579   2.523   1.868 -0.2968 -0.2910 -0.1229
 7126TIP3    H142869   0.558   2.558   1.782 -0.2333  2.0395  0.7550
 7126TIP3    H242870   0.554   2.430   1.863 -2.5352  0.3274 -1.8749
 7127TIP3   OH242871   6.514   1.443   1.652 -0.1107 -0.2590  0.2238
 7127TIP3    H142872   6.488   1.395   1.573 -0.8245 -1.1175  0.9609
 7127TIP3    H242873   6.597   1.403   1.679  0.8451  0.9333 -0.8201
 7128TIP3   OH242874   3.895   0.513  11.734  0.0801 -0.4186  0.1825
 7128TIP3    H142875   3.879   0.606  11.753 -0.9554 -0.3533 -0.8935
 7128TIP3    H242876   3.979   0.512  11.688  1.3690 -0.3206  2.3971
 7129TIP3   OH242877   4.050   3.287  13.902 -0.5772  0.4195 -0.2927
 7129TIP3    H142878   4.048   3.362  13.843 -1.3048  0.7901  0.1857
 7129TIP3    H242879   3.993   3.223  13.862  0.3971 -0.0739 -0.9317
 7130TIP3   OH242880   5.231   3.888   1.027 -0.4179  0.2389  0.2050
 7130TIP3    H142881   5.269   3.956   0.971  1.1090 -1.5374 -1.0207
 7130TIP3    H242882   5.295   3.877   1.098 -0.0137 -0.7714 -0.2975
 7131TIP3   OH242883   1.289   2.173  11.664  0.2462  0.3611 -0.1086
 7131TIP3    H142884   1.322   2.252  11.619  0.1653 -0.9235 -2.5999
 7131TIP3    H242885   1.233   2.131  11.599  2.7810 -3.3980 -0.1847
 7132TIP3   OH242886   3.572   1.320  11.853 -0.4137 -0.7255  0.0271
 7132TIP3    H142887   3.633   1.252  11.880  0.3945  0.0548  0.2202
 7132TIP3    H242888   3.486   1.277  11.855  0.2272 -2.1535 -1.3486
 7133TIP3   OH242889   6.137   1.626   2.059 -0.2544  0.2165  0.0375
 7133TIP3    H142890   6.210   1.567   2.078 -0.9893 -0.7170  0.0367
 7133TIP3    H242891   6.163   1.673   1.980 -0.5604 -1.6876 -1.2459
 7134TIP3   OH242892   0.663   1.837  11.762 -0.0215  0.1620 -0.2932
 7134TIP3    H142893   0.721   1.837  11.838  1.6179 -1.9102 -1.4351
 7134TIP3    H242894   0.660   1.928  11.734  1.8905  0.4842  0.4080
 7135TIP3   OH242895   0.601   5.358  11.317  0.0182  0.6623 -0.0289
 7135TIP3    H142896   0.537   5.429  11.321 -0.8988 -0.2096  1.4086
 7135TIP3    H242897   0.659   5.374  11.392 -0.0652  0.0139  0.1736
 7136TIP3   OH242898   0.515   2.757  11.540  0.5653 -0.1931  0.3611
 7136TIP3    H142899   0.489   2.726  11.453 -1.3927  1.3156  0.3435
 7136TIP3    H242900   0.434   2.791  11.578  1.6136  0.2052  2.3440
 7137TIP3   OH242901   5.024   0.743  13.862 -0.3777 -0.3402 -0.0239
 7137TIP3    H142902   4.936   0.752  13.826  0.0984 -0.7672 -1.3660
 7137TIP3    H242903   5.052   0.833  13.882 -0.6207 -0.0805 -0.8362
 7138TIP3   OH242904   0.698   6.355  15.940  0.5365  0.0064 -0.0785
 7138TIP3    H142905   0.623   6.303  15.967  0.3926  1.0258  1.6422
 7138TIP3    H242906   0.660   6.429  15.893  0.2619  1.2931  2.0292
 7139TIP3   OH242907   6.579   5.972  11.351  0.4224  0.1370  0.1459
 7139TIP3    H142908   6.603   5.965  11.443 -0.1750 -0.1914  0.2858
 7139TIP3    H242909   6.662   5.971  11.304  0.7441  0.5585  0.6935
 7140TIP3   OH242910   3.403   5.383  16.395  0.5940 -0.4840  0.1403
 7140TIP3    H142911   3.477   5.326  16.417 -0.2917 -1.4114  0.8262
 7140TIP3    H242912   3.406   5.452  16.462 -0.1088 -1.4364  1.1902
 7141TIP3   OH242913   2.011   3.016   1.293  0.3933 -0.3296  0.2822
 7141TIP3    H142914   2.033   2.981   1.379  2.6347 -0.5267 -0.2943
 7141TIP3    H242915   2.083   2.987   1.236 -0.2948  0.9623 -1.3472
 7142TIP3   OH242916   5.307   0.968   5.886 -0.3739 -0.2189  0.0230
 7142TIP3    H142917   5.323   0.882   5.849 -2.1109 -0.2304 -0.7624
 7142TIP3    H242918   5.393   1.010   5.887  0.1052 -1.0883 -1.8208
 7143TIP3   OH242919   6.813   0.552  11.822 -0.4602  0.3359  0.1542
 7143TIP3    H142920   6.869   0.610  11.770  2.4620 -1.4153  1.1313
 7143TIP3    H242921   6.786   0.606  11.896 -0.3948  1.3170 -0.5093
 7144TIP3   OH242922   4.883   3.947   1.172  0.3559 -0.1446 -0.2276
 7144TIP3    H142923   4.964   3.994   1.154  0.9887 -1.0018  0.2713
 7144TIP3    H242924   4.911   3.857   1.191 -0.2837  0.3363  3.9056
 7145TIP3   OH242925   3.335   4.658   1.886 -0.7203 -0.2996  0.4252
 7145TIP3    H142926   3.257   4.622   1.843  0.3372 -0.6547 -1.3113
 7145TIP3    H242927   3.396   4.674   1.814  1.1384 -0.8311  1.8016
 7146TIP3   OH242928   3.704   0.939  13.208  0.8693  0.4164 -0.0019
 7146TIP3    H142929   3.674   0.849  13.194 -0.1708  0.7407  0.1236
 7146TIP3    H242930   3.786   0.929  13.257  0.6131 -0.4574  0.2663
 7147TIP3   OH242931   1.077   3.430   4.662  0.3236  0.5126 -1.0714
 7147TIP3    H142932   1.016   3.489   4.618  0.6658  1.7490  0.0180
 7147TIP3    H242933   1.041   3.421   4.751  1.0839  0.3020 -0.7751
 7148TIP3   OH242934   3.789   3.633   0.178  0.1776  0.2301  0.7557
 7148TIP3    H142935   3.723   3.630   0.109 -1.5798  0.9828  2.2837
 7148TIP3    H242936   3.847   3.705   0.153 -0.2229  0.2620 -0.1076
 7149TIP3   OH242937   1.335   5.218   3.291  0.0512  0.5542 -0.3418
 7149TIP3    H142938   1.260   5.275   3.309 -2.0848 -1.3854 -2.4255
 7149TIP3    H242939   1.330   5.150   3.358 -0.3481  0.1920 -0.7308
 7150TIP3   OH242940   6.656   5.307   2.480 -0.0965 -0.2763 -0.6136
 7150TIP3    H142941   6.731   5.324   2.538 -1.4089  2.2164  0.4961
 7150TIP3    H242942   6.628   5.218   2.503  1.2945 -0.5101  0.3582
 7151TIP3   OH242943   2.461   6.368   1.863  0.6476  0.2878  0.2178
 7151TIP3    H142944   2.490   6.341   1.776  1.1347 -1.3806  0.8622
 7151TIP3    H242945   2.542   6.375   1.913  0.1949 -1.7583  1.3226
 7152TIP3   OH242946   4.769   1.033  13.788 -0.1621 -0.5920 -0.2388
 7152TIP3    H142947   4.732   0.949  13.758  0.5391 -0.8159 -0.4888
 7152TIP3    H242948   4.855   1.037  13.746 -0.5685  0.6976 -1.0054
 7153TIP3   OH242949   1.423   2.570   1.743  0.1302  0.7792 -0.2805
 7153TIP3    H142950   1.445   2.585   1.651  1.2324  0.0920 -0.1445
 7153TIP3    H242951   1.486   2.622   1.792  0.5584 -0.0850  0.1009
 7154TIP3   OH242952   2.609   5.443   4.488 -0.2301 -0.1059 -0.4330
 7154TIP3    H142953   2.656   5.361   4.475 -1.0329 -0.7972  0.7999
 7154TIP3    H242954   2.657   5.507   4.435  1.9446 -0.8173  0.5489
 7155TIP3   OH242955   2.381   4.505  17.018  0.2718  0.3508  0.7238
 7155TIP3    H142956   2.401   4.568  17.088 -0.5621 -1.0974  2.3463
 7155TIP3    H242957   2.297   4.534  16.984 -0.8238 -0.6032  2.4452
 7156TIP3   OH242958   1.550   6.260  16.978 -0.2541 -0.1232 -0.3978
 7156TIP3    H142959   1.586   6.345  16.954 -0.0243 -0.1517 -0.1541
 7156TIP3    H242960   1.589   6.240  17.063  0.6944 -1.0574 -1.0279
 7157TIP3   OH242961   1.171   2.347   4.819  0.0962 -0.1887  0.3169
 7157TIP3    H142962   1.140   2.265   4.856 -0.6082 -0.3759 -0.6544
 7157TIP3    H242963   1.212   2.322   4.736  0.7795  0.3355  0.4811
 7158TIP3   OH242964   2.189   1.978  17.095  0.5153  0.4210  0.5686
 7158TIP3    H142965   2.146   1.898  17.123 -1.7569  0.9901 -0.9857
 7158TIP3    H242966   2.222   2.018  17.175  2.7025 -2.4932  1.2973
 7159TIP3   OH242967   1.365   5.011  16.542 -0.2711  0.2864  0.1784
 7159TIP3    H142968   1.421   5.082  16.511 -0.1424 -0.5409 -1.6581
 7159TIP3    H242969   1.419   4.932  16.534 -0.4821 -0.0785  1.9522
 7160TIP3   OH242970   3.283   4.972   5.648  0.2095 -0.3370 -0.2378
 7160TIP3    H142971   3.228   4.940   5.576 -0.2604 -1.4774  0.5986
 7160TIP3    H242972   3.233   4.950   5.727  0.4941  1.3161  0.4350
 7161TIP3   OH242973   3.413   2.224  17.195  0.0412  0.0132 -0.2642
 7161TIP3    H142974   3.481   2.192  17.137  0.6855  1.6962 -0.5134
 7161TIP3    H242975   3.348   2.154  17.199  0.4226 -0.4926 -2.2817
 7162TIP3   OH242976   4.786   5.405  14.611 -0.0857  0.4256  0.0609
 7162TIP3    H142977   4.831   5.424  14.693  0.5910 -0.4378 -0.1065
 7162TIP3    H242978   4.693   5.417  14.632  0.0930  0.3878  0.9005
 7163TIP3   OH242979   6.174   1.233  15.520 -0.6581  0.1209 -0.1376
 7163TIP3    H142980   6.168   1.180  15.441 -0.2118  2.3922 -1.7990
 7163TIP3    H242981   6.250   1.198  15.567 -0.8067 -1.1249 -0.7820
 7164TIP3   OH242982   2.755   0.486  12.531 -0.3161 -0.0591 -0.2129
 7164TIP3    H142983   2.702   0.408  12.542  1.3754 -1.1530  0.5542
 7164TIP3    H242984   2.841   0.463  12.566  0.0749  2.3503  0.6214
 7165TIP3   OH242985   6.094   3.830   0.344  0.5297 -0.7008 -0.1480
 7165TIP3    H142986   6.067   3.841   0.435 -0.6572 -0.2396 -0.5381
 7165TIP3    H242987   6.190   3.824   0.348  0.8002  2.3756  0.8918
 7166TIP3   OH242988   0.315   5.618   4.298 -0.1698  0.1930  0.3180
 7166TIP3    H142989   0.254   5.676   4.342  0.3603  1.3198 -0.3968
 7166TIP3    H242990   0.401   5.646   4.329  0.1552  0.4396 -0.7515
 7167TIP3   OH242991   5.596   3.910   5.411 -0.4844 -0.9023  0.2030
 7167TIP3    H142992   5.537   3.897   5.485 -0.0263  0.2345  0.8031
 7167TIP3    H242993   5.683   3.920   5.451 -0.3984  0.9604 -0.3419
 7168TIP3   OH242994   2.741   3.559   4.473 -0.3101 -0.7603 -0.7962
 7168TIP3    H142995   2.672   3.621   4.448  0.3544  0.0540 -0.6804
 7168TIP3    H242996   2.802   3.612   4.524 -1.6048 -2.3330  2.6749
 7169TIP3   OH242997   2.119   5.040  13.879 -0.2286  0.4018 -0.9188
 7169TIP3    H142998   2.025   5.031  13.865 -0.4244  1.3564 -0.2779
 7169TIP3    H242999   2.141   4.970  13.941 -0.7800  1.0511  0.0194
 7170TIP3   OH243000   6.567   4.952  16.743 -0.3756  0.2486  0.1682
 7170TIP3    H143001   6.519   4.883  16.697 -2.0447 -0.2741  2.4724
 7170TIP3    H243002   6.503   4.988  16.804  1.2748  1.8939  1.0165
 7171TIP3   OH243003   2.333   0.298  15.951  0.5806 -0.5276 -0.0849
 7171TIP3    H143004   2.328   0.372  16.012  3.0335  0.1303 -0.5581
 7171TIP3    H243005   2.255   0.246  15.969 -0.9916  1.9101  0.5977
 7172TIP3   OH243006   5.371   3.807   3.004  0.2451 -0.3022  0.2429
 7172TIP3    H143007   5.327   3.829   2.922 -0.9027  0.5313  1.0402
 7172TIP3    H243008   5.302   3.816   3.071  1.4256  0.2323  1.4402
 7173TIP3   OH243009   0.060   5.820   3.502  0.7712  0.2036  0.0558
 7173TIP3    H143010   0.027   5.749   3.558 -2.1323 -0.6092 -2.3977
 7173TIP3    H243011   0.017   5.898   3.536  0.6309  0.0493  0.2369
 7174TIP3   OH243012   3.223   0.206   2.018 -0.1983 -0.6101  0.4042
 7174TIP3    H143013   3.285   0.201   1.946  0.0704  0.2753  0.5575
 7174TIP3    H243014   3.139   0.223   1.976  0.1397  1.1032  0.3255
 7175TIP3   OH243015   0.005   1.347  13.910 -0.1568 -0.0212 -0.9285
 7175TIP3    H143016  -0.045   1.267  13.891  1.0136 -0.8972 -0.4222
 7175TIP3    H243017   0.071   1.351  13.841  1.8530 -1.2977  0.7928
 7176TIP3   OH243018   4.923   0.310   5.106 -0.2943 -0.6044  0.2636
 7176TIP3    H143019   4.888   0.242   5.165  1.5789 -1.5474  0.3552
 7176TIP3    H243020   4.960   0.261   5.033  2.6906  0.1148  1.1601
 7177TIP3   OH243021   4.696   5.994  15.756 -0.3458 -0.5212 -0.1358
 7177TIP3    H143022   4.673   5.937  15.682  0.2648 -0.5988 -0.2668
 7177TIP3    H243023   4.678   6.083  15.723  0.4703 -0.5163 -0.5846
 7178TIP3   OH243024   5.464   3.890   4.144 -0.3557  0.1094  0.1904
 7178TIP3    H143025   5.490   3.798   4.153  1.4044  0.1839 -2.7151
 7178TIP3    H243026   5.518   3.936   4.208  0.7203 -0.6402 -0.1412
 7179TIP3   OH243027   3.198   2.491  13.198  0.3887 -0.5451  0.1067
 7179TIP3    H143028   3.242   2.456  13.121 -0.0696 -1.7297  0.3584
 7179TIP3    H243029   3.123   2.433  13.211 -1.9441  2.0145 -0.9338
 7180TIP3   OH243030   3.023   3.644   4.194  0.2408  0.2034 -0.1832
 7180TIP3    H143031   3.006   3.719   4.137 -1.0875 -0.2581 -0.4179
 7180TIP3    H243032   3.005   3.567   4.139  0.4764 -0.2736  0.3951
 7181TIP3   OH243033   4.580   2.779  10.666 -0.1244 -0.2461  0.0980
 7181TIP3    H143034   4.498   2.823  10.689  0.3238  0.8573 -0.3648
 7181TIP3    H243035   4.647   2.846  10.675  0.4577 -0.5588 -1.5610
 7182TIP3   OH243036   5.994   0.278   4.052 -0.0117 -0.1905  0.0615
 7182TIP3    H143037   5.955   0.229   4.125 -2.3930 -0.1150 -1.0525
 7182TIP3    H243038   5.934   0.263   3.978  2.7816 -1.0444 -2.2105
 7183TIP3   OH243039   4.802   1.729   1.101  0.3451  0.1612 -0.0950
 7183TIP3    H143040   4.718   1.768   1.123  1.1804  0.7050  2.5553
 7183TIP3    H243041   4.781   1.663   1.034 -2.0736  0.6534  0.0752
 7184TIP3   OH243042   4.853   5.993  12.396 -0.5079 -0.0436 -0.2145
 7184TIP3    H143043   4.777   6.034  12.438  0.1330 -0.1304  1.1125
 7184TIP3    H243044   4.857   5.905  12.435 -0.4711 -0.5102 -1.2400
 7185TIP3   OH243045   5.461   6.399   2.327 -0.7040 -0.1547  0.1776
 7185TIP3    H143046   5.427   6.484   2.300  0.8401 -0.5070 -3.5997
 7185TIP3    H243047   5.389   6.338   2.309 -0.5186 -0.0687 -0.9262
 7186TIP3   OH243048   6.179   2.520  13.495 -0.5745 -0.3218 -0.0077
 7186TIP3    H143049   6.168   2.517  13.590  0.4965  0.1839  0.1360
 7186TIP3    H243050   6.204   2.611  13.476  0.6291 -0.7610 -0.6066
 7187TIP3   OH243051   5.112   1.564   4.539 -0.4060 -0.2940 -0.0066
 7187TIP3    H143052   5.192   1.515   4.557 -0.2770  0.3822  1.4157
 7187TIP3    H243053   5.131   1.653   4.569 -0.9981  0.3894 -1.5375
 7188TIP3   OH243054   2.972   5.084  12.486 -0.6669 -0.1915 -0.7041
 7188TIP3    H143055   2.927   5.108  12.567  0.7677  0.7985 -0.1497
 7188TIP3    H243056   3.022   5.163  12.463  1.1334 -1.3817 -1.0199
 7189TIP3   OH243057   3.188   1.416  14.371  0.1107 -0.0899 -0.6760
 7189TIP3    H143058   3.276   1.443  14.397 -0.1348 -1.4767  1.9288
 7189TIP3    H243059   3.135   1.495  14.378  0.8917  0.4770 -1.0415
 7190TIP3   OH243060   4.343   0.582   0.123 -0.3133 -0.0148 -0.2627
 7190TIP3    H143061   4.396   0.659   0.141 -2.1075  0.7760  2.3287
 7190TIP3    H243062   4.307   0.596   0.036  1.4006  0.7807 -0.8791
 7191TIP3   OH243063   3.583   6.559  14.555  0.0870  0.0059  0.2778
 7191TIP3    H143064   3.636   6.623  14.507 -0.6163 -0.0998 -0.6605
 7191TIP3    H243065   3.647   6.496  14.590  0.6117  0.0409 -0.6011
 7192TIP3   OH243066   2.772   2.797   0.432  0.2369 -0.1378  0.1467
 7192TIP3    H143067   2.859   2.812   0.393  1.0021 -0.0543  1.7938
 7192TIP3    H243068   2.711   2.814   0.361  1.4464  2.3194 -0.4144
 7193TIP3   OH243069   1.408   3.327   4.552 -0.4888 -0.1604  0.1181
 7193TIP3    H143070   1.385   3.256   4.611  0.2187  0.0306  0.6302
 7193TIP3    H243071   1.381   3.407   4.598  2.1331  0.1707  1.2619
 7194TIP3   OH243072   4.163   5.526   4.804  0.4689 -0.0832  0.3578
 7194TIP3    H143073   4.233   5.461   4.813  0.0022 -0.4306  1.7528
 7194TIP3    H243074   4.102   5.506   4.875 -0.6003  0.7785 -0.2711
 7195TIP3   OH243075   0.930   1.495   5.318  0.1477 -0.7579 -0.0154
 7195TIP3    H143076   0.937   1.580   5.362 -0.9868 -0.0927 -1.0626
 7195TIP3    H243077   0.981   1.436   5.373  2.9751  1.0428 -0.5181
 7196TIP3   OH243078   4.659   2.631  13.282 -0.2667 -0.2387  0.8447
 7196TIP3    H143079   4.630   2.721  13.298  1.5675  0.0909  2.7664
 7196TIP3    H243080   4.742   2.641  13.236 -1.1225 -1.0786 -1.0203
 7197TIP3   OH243081   4.924   5.033  13.563  0.2450  0.6162 -0.1592
 7197TIP3    H143082   4.882   5.118  13.575  2.0703  1.4139  0.9838
 7197TIP3    H243083   4.989   5.048  13.495  0.5510  0.1335  0.0211
 7198TIP3   OH243084   3.415   4.546   1.139  0.0019 -0.0077 -0.1108
 7198TIP3    H143085   3.402   4.565   1.046 -0.5557 -2.9804 -0.7470
 7198TIP3    H243086   3.350   4.600   1.184 -1.6529 -0.5606 -1.7192
 7199TIP3   OH243087   2.093   3.834  11.354  0.3947 -0.6339 -0.4918
 7199TIP3    H143088   2.071   3.741  11.363 -0.6407 -0.2892  0.7969
 7199TIP3    H243089   2.037   3.865  11.283 -3.2795  0.1247  2.4491
 7200TIP3   OH243090   4.981   4.559  13.153  0.0869  0.2315 -0.2228
 7200TIP3    H143091   5.073   4.536  13.137  0.1899  0.0876  0.5521
 7200TIP3    H243092   4.932   4.502  13.093  0.4014 -1.2993  0.9082
 7201TIP3   OH243093   2.929   1.801   1.887 -0.3899  0.1733 -0.1986
 7201TIP3    H143094   2.937   1.856   1.965 -0.6655 -0.3946  0.2418
 7201TIP3    H243095   2.834   1.790   1.875 -0.3647 -1.5271  0.7075
 7202TIP3   OH243096   2.974   3.440   5.636  0.1461 -0.2502  0.3343
 7202TIP3    H143097   2.963   3.511   5.573  0.2182 -0.7515 -0.2470
 7202TIP3    H243098   3.057   3.399   5.612  0.5561  0.0212  1.2289
 7203TIP3   OH243099   1.647   6.330   3.653 -0.2702 -0.5222 -0.1826
 7203TIP3    H143100   1.726   6.282   3.679 -1.7477 -1.9741  1.9576
 7203TIP3    H243101   1.612   6.280   3.579 -0.6565 -1.5780  0.6796
 7204TIP3   OH243102   4.859   0.718   5.334 -0.3754 -0.3120  0.2639
 7204TIP3    H143103   4.885   0.805   5.363 -0.9553 -0.1964  0.4645
 7204TIP3    H243104   4.915   0.658   5.383 -1.5007 -0.1315  1.8595
 7205TIP3   OH243105   5.492   0.394  14.470 -0.6663  0.2491 -0.3084
 7205TIP3    H143106   5.503   0.389  14.565 -0.0593 -0.5614 -0.4146
 7205TIP3    H243107   5.534   0.315  14.437 -2.1338 -0.2187 -1.1507
 7206TIP3   OH243108   0.245   3.025  14.193  0.4312  0.0444 -0.2224
 7206TIP3    H143109   0.230   3.053  14.103 -0.4838  0.1740 -0.0433
 7206TIP3    H243110   0.340   3.032  14.206  0.4070  1.5196 -0.6885
 7207TIP3   OH243111   1.429   6.274  12.156  0.4606 -0.8137  0.0257
 7207TIP3    H143112   1.363   6.340  12.135  1.1592  0.0953  0.6068
 7207TIP3    H243113   1.422   6.210  12.085  1.1260  0.8993 -1.6720
 7208TIP3   OH243114   6.075   6.187  11.008  0.0749  0.2261 -0.0784
 7208TIP3    H143115   6.066   6.281  11.021  4.3900  1.4075 -3.4374
 7208TIP3    H243116   6.162   6.166  11.041 -1.3749 -3.1499  2.2096
 7209TIP3   OH243117   2.130   3.459  15.808 -0.3003  0.3555 -0.7214
 7209TIP3    H143118   2.224   3.468  15.791  0.0821 -1.4041  0.1996
 7209TIP3    H243119   2.118   3.497  15.895  0.0641 -1.6294  0.2436
 7210TIP3   OH243120   1.643   3.950  15.581  0.0333 -0.4255  0.4141
 7210TIP3    H143121   1.630   3.898  15.501  1.3583 -0.9909  0.5421
 7210TIP3    H243122   1.556   3.956  15.620 -0.5028 -0.7710 -0.6987
 7211TIP3   OH243123   3.772   6.788  15.390  0.1753 -0.2724  0.0800
 7211TIP3    H143124   3.776   6.721  15.457 -0.5846 -0.9261 -0.5046
 7211TIP3    H243125   3.678   6.809  15.382  0.2020 -0.5001 -1.0436
 7212TIP3   OH243126   5.693   4.919  16.197  0.4799  0.1122 -0.2404
 7212TIP3    H143127   5.627   4.893  16.132 -0.2567 -1.6747  1.1326
 7212TIP3    H243128   5.650   4.987  16.248 -0.3384 -0.9624  0.5759
 7213TIP3   OH243129   4.797   4.834  11.658 -0.2059  0.8210 -0.3487
 7213TIP3    H143130   4.792   4.864  11.749  0.2779 -1.3198  0.4358
 7213TIP3    H243131   4.883   4.863  11.628  0.1830  0.4014  0.3278
 7214TIP3   OH243132   4.684   0.968   2.948  0.0451  0.2656  0.1783
 7214TIP3    H143133   4.647   1.053   2.924 -1.0426  0.2365  1.6273
 7214TIP3    H243134   4.765   0.990   2.995  0.0747  0.4693  0.0340
 7215TIP3   OH243135   0.903   0.424  12.016 -0.2641 -0.8363  0.5954
 7215TIP3    H143136   0.964   0.356  12.046  0.2654 -1.3796 -1.5533
 7215TIP3    H243137   0.837   0.376  11.966 -1.7234 -0.0871  1.7109
 7216TIP3   OH243138   1.530   3.393  12.436  0.4943 -0.1378  0.5904
 7216TIP3    H143139   1.518   3.474  12.486  0.5365  0.1161  0.1912
 7216TIP3    H243140   1.503   3.323  12.496  0.0222  0.2042  0.7780
 7217TIP3   OH243141   3.374   2.842   1.995 -0.1995  0.2874  1.1995
 7217TIP3    H143142   3.372   2.893   1.914 -1.6051  0.0849  1.0729
 7217TIP3    H243143   3.340   2.756   1.970  0.1137 -0.0297  1.8429
 7218TIP3   OH243144   6.370   3.003  15.560  0.5546 -0.3400  0.0749
 7218TIP3    H143145   6.319   3.081  15.581  2.9187  1.2118  0.4606
 7218TIP3    H243146   6.307   2.930  15.567 -1.1559  1.2053  2.3589
 7219TIP3   OH243147   1.181   2.275  15.518  0.5745  0.3191 -0.3018
 7219TIP3    H143148   1.141   2.309  15.598 -0.0843  1.1491 -0.9645
 7219TIP3    H243149   1.147   2.331  15.448  0.0751 -1.1954 -1.3400
 7220TIP3   OH243150   2.543   5.618   3.639  0.1063 -0.0550  0.5997
 7220TIP3    H143151   2.505   5.617   3.727  0.0640  2.3411  0.6918
 7220TIP3    H243152   2.519   5.704   3.604 -0.2119 -1.0915 -1.9325
 7221TIP3   OH243153   5.018   2.071  11.521 -0.8945 -0.1697  0.0857
 7221TIP3    H143154   4.959   2.065  11.446 -0.5494  0.0737 -0.2096
 7221TIP3    H243155   5.080   1.998  11.509 -2.6114 -1.9943  1.7173
 7222TIP3   OH243156   5.665   2.343   4.189  0.0161 -0.4962 -0.5592
 7222TIP3    H143157   5.573   2.336   4.217 -0.2666  0.5697 -1.1540
 7222TIP3    H243158   5.691   2.252   4.171 -1.0022 -0.7999 -0.6097
 7223TIP3   OH243159   3.278   0.488  14.317 -0.3422  0.8986 -0.5051
 7223TIP3    H143160   3.341   0.551  14.281  1.1237  0.8426  1.7844
 7223TIP3    H243161   3.299   0.405  14.273  1.3400  0.8449  0.3168
 7224TIP3   OH243162   5.624   4.062  15.499  0.1337  0.2168 -0.3019
 7224TIP3    H143163   5.556   4.003  15.532 -1.2964  2.4402  1.0084
 7224TIP3    H243164   5.591   4.091  15.415 -0.1836  0.6969 -0.0171
 7225TIP3   OH243165   0.353   4.018   0.047  0.6322 -0.1180 -0.3240
 7225TIP3    H143166   0.339   3.925   0.068  1.0164 -0.0047  0.4586
 7225TIP3    H243167   0.265   4.055   0.045  0.5916  0.0292  1.9448
 7226TIP3   OH243168   6.829   6.381   6.604  0.0281 -0.8996 -0.0609
 7226TIP3    H143169   6.746   6.413   6.640 -1.0700 -1.0372 -2.3220
 7226TIP3    H243170   6.896   6.434   6.649 -1.4374  1.0409 -0.0212
 7227TIP3   OH243171   1.176   2.698  15.043 -0.2758  0.0423 -0.1993
 7227TIP3    H143172   1.144   2.607  15.042  0.0467 -0.0850 -2.4153
 7227TIP3    H243173   1.207   2.710  15.133  1.6055 -2.7559 -0.3340
 7228TIP3   OH243174   2.959   4.865  17.164  0.5286 -0.0372  0.2841
 7228TIP3    H143175   2.869   4.837  17.147  0.3729 -0.0423  1.0852
 7228TIP3    H243176   2.951   4.957  17.189  0.8344  0.1865 -0.4258
 7229TIP3   OH243177   2.556   6.245  15.417  0.5682 -0.0406 -0.1719
 7229TIP3    H143178   2.493   6.256  15.488 -0.4747 -0.5066 -0.9976
 7229TIP3    H243179   2.508   6.197  15.349  1.7256 -0.1555 -0.9451
 7230TIP3   OH243180   1.909   6.399  13.181  0.2076  0.3042 -0.0735
 7230TIP3    H143181   1.845   6.345  13.228  0.4287  0.8066  0.8296
 7230TIP3    H243182   1.905   6.484  13.225 -0.8767  1.3721 -2.1248
 7231TIP3   OH243183   4.686   4.889   2.846  0.0497  0.3203 -0.1232
 7231TIP3    H143184   4.699   4.809   2.898 -1.2667  0.6421  0.7402
 7231TIP3    H243185   4.667   4.957   2.911  0.2203  1.1420 -0.9154
 7232TIP3   OH243186   4.506   3.781   5.066 -0.1947  0.5010  0.3006
 7232TIP3    H143187   4.568   3.789   5.139 -2.2433  2.7204  1.9800
 7232TIP3    H243188   4.488   3.687   5.060  2.8752 -0.1722  0.0279
 7233TIP3   OH243189   6.435   3.151   4.092  0.1049  0.0850  0.1105
 7233TIP3    H143190   6.348   3.112   4.094 -0.3960  0.9880 -1.5937
 7233TIP3    H243191   6.418   3.246   4.090  0.9614  0.2758 -2.4344
 7234TIP3   OH243192   1.091   5.663   3.043 -0.0310 -0.3134 -0.2928
 7234TIP3    H143193   1.113   5.750   3.008  0.1025  0.1379  0.8755
 7234TIP3    H243194   1.176   5.622   3.060 -0.0499  0.2270  1.2858
 7235TIP3   OH243195   3.833   5.402   2.728 -0.0088 -0.1828 -0.4699
 7235TIP3    H143196   3.774   5.386   2.654 -1.0035  3.5401 -0.6823
 7235TIP3    H243197   3.777   5.395   2.805  0.6108 -2.1956 -0.1604
 7236TIP3   OH243198   4.986   6.781   5.970 -0.0452  0.4589 -0.1973
 7236TIP3    H143199   5.004   6.688   5.956 -1.1513  0.2257 -0.1513
 7236TIP3    H243200   5.025   6.824   5.894  0.2897 -0.0640 -0.3328
 7237TIP3   OH243201   1.687   5.645   4.439  0.0625 -0.2312 -0.2807
 7237TIP3    H143202   1.764   5.603   4.400 -0.0522 -1.0665  0.3471
 7237TIP3    H243203   1.723   5.716   4.493  0.2939  0.2320 -1.0423
 7238TIP3   OH243204   1.882   1.379   2.916 -0.5575  0.1094  0.7454
 7238TIP3    H143205   1.883   1.357   2.822 -0.3731  0.6894  0.6075
 7238TIP3    H243206   1.831   1.308   2.956  0.4622 -0.8648  0.3965
 7239TIP3   OH243207   3.177   0.745  16.841  0.3677 -0.3468 -0.0807
 7239TIP3    H143208   3.217   0.832  16.852 -1.9625  0.7523  0.3767
 7239TIP3    H243209   3.203   0.718  16.753 -0.0137  1.4915 -0.8153
 7240TIP3   OH243210   3.797   2.886  15.276  0.4345  0.1998  0.1549
 7240TIP3    H143211   3.847   2.886  15.358  2.7577  2.5773 -1.0883
 7240TIP3    H243212   3.707   2.902  15.302  1.0306  0.3579  2.2862
 7241TIP3   OH243213   1.883   6.377  11.581  0.3990  0.3797  0.4276
 7241TIP3    H143214   1.892   6.470  11.600 -1.2244  0.4986  0.7775
 7241TIP3    H243215   1.840   6.340  11.659  0.1468 -0.4661 -0.0897
 7242TIP3   OH243216   2.833   6.255  15.230 -0.0037  0.1562  0.5768
 7242TIP3    H143217   2.748   6.223  15.258  0.5835  0.7740  3.2993
 7242TIP3    H243218   2.892   6.234  15.302  1.1434  3.9731  0.9483
 7243TIP3   OH243219   0.724   2.248  14.724 -0.4323 -0.3945 -0.2993
 7243TIP3    H143220   0.812   2.250  14.685 -0.6580  0.5284 -0.8128
 7243TIP3    H243221   0.700   2.341  14.732 -1.4826 -0.6362 -0.4713
 7244TIP3   OH243222   5.648   0.837  12.079 -0.0502 -0.3975  0.5365
 7244TIP3    H143223   5.609   0.768  12.132 -0.1194 -0.5720  0.2652
 7244TIP3    H243224   5.740   0.837  12.104 -0.2958  0.2820  1.4603
 7245TIP3   OH243225   1.445   6.031  16.378 -0.0305  0.7874  0.3104
 7245TIP3    H143226   1.376   6.075  16.328  0.5941  2.9271  1.2536
 7245TIP3    H243227   1.406   6.017  16.464  0.6685  1.9484  0.8283
 7246TIP3   OH243228   5.498   4.481   5.993 -0.4366  0.8101  0.7069
 7246TIP3    H143229   5.474   4.401   6.040  0.3324  0.7103  0.9443
 7246TIP3    H243230   5.429   4.544   6.015 -1.0939  0.1978  0.4492
 7247TIP3   OH243231   4.870   5.308  13.624  0.1579  0.2108 -0.4885
 7247TIP3    H143232   4.872   5.401  13.599 -0.0784 -0.0924 -1.7064
 7247TIP3    H243233   4.914   5.305  13.709 -0.9929  1.6299  0.2041
 7248TIP3   OH243234   5.106   5.577  14.356  0.1652 -0.0935 -0.2643
 7248TIP3    H143235   5.095   5.511  14.287  1.3627 -1.4808  0.8065
 7248TIP3    H243236   5.024   5.574  14.406 -0.1382 -0.1061 -0.7544
 7249TIP3   OH243237   0.763   5.751  10.165 -0.3256 -0.6866  0.0793
 7249TIP3    H143238   0.716   5.799  10.233 -0.5176 -2.2544  1.1083
 7249TIP3    H243239   0.705   5.678  10.143  0.1001 -0.6646 -1.1987
 7250TIP3   OH243240   4.805   4.255   0.157 -0.3975 -0.1718 -0.1899
 7250TIP3    H143241   4.864   4.215   0.221  1.2165  1.2742 -0.6964
 7250TIP3    H243242   4.756   4.321   0.206 -0.4279 -0.2712 -0.0876
 7251TIP3   OH243243   5.454   3.603  12.992 -0.7878 -0.2781 -0.4016
 7251TIP3    H143244   5.385   3.651  13.037 -0.0495  0.2569  0.1965
 7251TIP3    H243245   5.425   3.512  12.992 -1.3667 -0.0981  0.0853
 7252TIP3   OH243246   4.008   0.048  11.515 -0.1313 -0.6895  0.1023
 7252TIP3    H143247   4.010   0.130  11.465 -2.0062 -0.7862 -0.2205
 7252TIP3    H243248   4.086   0.052  11.571 -0.3896  1.5348  0.4226
 7253TIP3   OH243249   2.079   6.648  15.673  0.1014 -0.1588 -0.6140
 7253TIP3    H143250   2.116   6.650  15.762 -0.1546 -0.2070 -0.5055
 7253TIP3    H243251   2.084   6.556  15.647 -0.7665 -0.3204 -0.2470
 7254TIP3   OH243252   0.021   4.178   5.933  0.5292  0.3719  0.1429
 7254TIP3    H143253   0.012   4.235   6.010  0.6060  0.5550  0.0160
 7254TIP3    H243254  -0.056   4.197   5.880 -1.3732 -2.1938  1.7519
 7255TIP3   OH243255   5.105   3.582  14.503  0.2343  0.1925  0.2771
 7255TIP3    H143256   5.124   3.668  14.465  0.1212  0.0516 -0.0926
 7255TIP3    H243257   5.115   3.521  14.430 -1.2267  0.0600  0.1771
 7256TIP3   OH243258   5.934   2.335  16.452 -0.5929 -0.3126  0.3203
 7256TIP3    H143259   5.916   2.281  16.375 -1.0889  0.6365 -0.2481
 7256TIP3    H243260   5.856   2.327  16.506  0.0301 -1.5436  1.1030
 7257TIP3   OH243261   0.792   5.511  11.911 -0.6425 -0.0144 -0.3023
 7257TIP3    H143262   0.724   5.575  11.931 -1.0302 -0.6105  0.3578
 7257TIP3    H243263   0.853   5.516  11.985 -0.8095 -0.5700 -0.1208
 7258TIP3   OH243264   2.608   1.017  15.427  0.3154 -0.5355  0.3187
 7258TIP3    H143265   2.559   1.064  15.360 -0.0063 -0.2737  0.7305
 7258TIP3    H243266   2.680   0.976  15.380  0.7679  0.6027 -0.0175
 7259TIP3   OH243267   4.192   1.900   3.508  0.3590 -0.1538  1.0543
 7259TIP3    H143268   4.166   1.840   3.439 -2.2718  1.2187  0.7293
 7259TIP3    H243269   4.286   1.912   3.496  0.4339 -2.0007 -0.5770
 7260TIP3   OH243270   0.199   3.483   5.032 -0.3044  0.1942  0.4339
 7260TIP3    H143271   0.119   3.527   5.007  0.1505  2.0271  1.9947
 7260TIP3    H243272   0.262   3.553   5.050  1.9580 -1.1629 -1.5121
 7261TIP3   OH243273   3.524   1.682   0.755  0.1526 -0.2113 -0.2613
 7261TIP3    H143274   3.586   1.723   0.816  0.4071  0.1897 -0.7809
 7261TIP3    H243275   3.456   1.748   0.742  0.9739  0.3925 -1.7225
 7262TIP3   OH243276   5.519   0.250   6.184  0.2512  0.1454  0.6014
 7262TIP3    H143277   5.509   0.219   6.274 -2.1168  0.7995  0.6155
 7262TIP3    H243278   5.448   0.208   6.135  1.8481 -0.6718 -1.1475
 7263TIP3   OH243279   1.360   3.704   0.973  0.1590 -0.4403  0.1854
 7263TIP3    H143280   1.326   3.794   0.973  0.0482 -0.4820 -0.4517
 7263TIP3    H243281   1.310   3.661   1.043 -1.5280 -0.6508 -1.0973
 7264TIP3   OH243282   4.040   0.802   6.446 -0.8017  0.0500  0.4802
 7264TIP3    H143283   4.000   0.842   6.523 -1.8385  0.5879 -0.3106
 7264TIP3    H243284   4.107   0.744   6.481  0.3770  2.0460  1.6828
 7265TIP3   OH243285   5.259   1.535  14.464 -0.1376 -0.0586  0.2093
 7265TIP3    H143286   5.183   1.592  14.461 -0.6361 -0.6566  0.9845
 7265TIP3    H243287   5.265   1.508  14.556  1.6123  0.7742  0.3857
 7266TIP3   OH243288   0.477   6.266   4.566  0.3161 -0.7821 -0.4074
 7266TIP3    H143289   0.570   6.278   4.550  0.0017  0.1721 -1.6776
 7266TIP3    H243290   0.467   6.281   4.660  1.2665  0.3481 -0.4599
 7267TIP3   OH243291   1.069   2.263  16.635  0.2644 -0.6788 -0.2278
 7267TIP3    H143292   1.075   2.190  16.573 -1.6606  0.0589 -1.3489
 7267TIP3    H243293   0.988   2.307  16.613  0.5663  0.8691  1.5007
 7268TIP3   OH243294   2.031   1.815   5.070  0.5345  0.1237  0.6239
 7268TIP3    H143295   2.110   1.865   5.091 -0.3218  1.4514  0.8141
 7268TIP3    H243296   1.960   1.877   5.083 -0.5182 -0.9323  0.0598
 7269TIP3   OH243297   3.274   5.783  10.744  0.2916 -0.1114  0.1372
 7269TIP3    H143298   3.253   5.690  10.750  0.1282 -0.1574 -0.9487
 7269TIP3    H243299   3.369   5.785  10.732  0.6900 -0.0013  2.6353
 7270TIP3   OH243300   3.289   0.627  15.591  0.5226 -0.0338 -0.5447
 7270TIP3    H143301   3.216   0.682  15.616  0.3152 -0.9645  1.0981
 7270TIP3    H243302   3.347   0.683  15.540 -1.8140  0.4306 -2.8280
 7271TIP3   OH243303   3.831   0.512  16.696 -0.7272  0.3104 -0.4050
 7271TIP3    H143304   3.809   0.420  16.714 -0.1563 -0.1255 -1.8641
 7271TIP3    H243305   3.746   0.554  16.680 -0.9703 -0.0025  0.0333
 7272TIP3   OH243306   1.573   5.281   2.260  0.6444 -0.0521  0.2616
 7272TIP3    H143307   1.625   5.336   2.319 -1.2602 -0.3076  2.3174
 7272TIP3    H243308   1.601   5.192   2.281 -1.0001 -0.2392  1.8819
 7273TIP3   OH243309   4.325   4.334   5.149 -0.4124  0.4292 -0.6150
 7273TIP3    H143310   4.403   4.281   5.131 -0.0322 -0.1100  2.2480
 7273TIP3    H243311   4.254   4.271   5.156 -0.3774  0.5191  0.6056
 7274TIP3   OH243312   1.785   1.295   3.543 -0.4317  0.8479  0.7786
 7274TIP3    H143313   1.847   1.222   3.542  0.9614  1.9855  0.1629
 7274TIP3    H243314   1.735   1.286   3.463 -1.1827 -0.1644  1.3502
 7275TIP3   OH243315   4.854   3.091   5.265  0.0278 -0.7271 -0.2420
 7275TIP3    H143316   4.903   3.052   5.338 -0.4541 -1.5117 -0.3366
 7275TIP3    H243317   4.829   3.017   5.210 -2.3139 -0.4993  0.4235
 7276TIP3   OH243318   2.830   1.659   3.226  0.1332 -0.5794  0.0533
 7276TIP3    H143319   2.763   1.628   3.288 -1.1430 -1.5094 -1.7158
 7276TIP3    H243320   2.796   1.742   3.194  1.0105  0.1203  0.8906
 7277TIP3   OH243321   5.492   1.261   0.030 -0.0760 -0.0692 -0.4090
 7277TIP3    H143322   5.482   1.327   0.099  1.2806 -1.8497  1.6191
 7277TIP3    H243323   5.407   1.217   0.026  0.2722 -0.9577  1.2711
 7278TIP3   OH243324   5.382   6.713  14.937 -0.8572 -0.0027  0.1019
 7278TIP3    H143325   5.426   6.791  14.971  0.3950  0.6632 -2.7211
 7278TIP3    H243326   5.428   6.640  14.977 -0.4323  0.6946  0.9215
 7279TIP3   OH243327   0.144   1.701  10.429 -0.3217  0.1216 -0.2845
 7279TIP3    H143328   0.231   1.742  10.427  0.1108 -0.7520  0.2030
 7279TIP3    H243329   0.112   1.718  10.517  0.1854 -1.2015  0.1888
 7280TIP3   OH243330   2.341   5.561   3.002 -0.2337 -0.0167  0.0124
 7280TIP3    H143331   2.278   5.505   3.048  0.9594 -1.2085  0.2545
 7280TIP3    H243332   2.305   5.569   2.913 -1.6177  0.8102  0.6031
 7281TIP3   OH243333   5.438   0.955   2.007 -0.4170 -0.1106 -0.1277
 7281TIP3    H143334   5.420   1.034   2.058 -0.5916  0.2816 -0.7896
 7281TIP3    H243335   5.394   0.885   2.055  1.2191 -0.1284  1.4490
 7282TIP3   OH243336   3.396   2.428  16.919  0.5960 -0.0283 -0.0281
 7282TIP3    H143337   3.455   2.360  16.949  0.3979  0.1334  0.7449
 7282TIP3    H243338   3.368   2.473  16.999 -0.2851  0.1243 -0.4094
 7283TIP3   OH243339   0.513   4.639  16.033  0.3683 -0.2708  0.5446
 7283TIP3    H143340   0.495   4.650  15.940 -1.2514 -0.1352  0.8552
 7283TIP3    H243341   0.607   4.621  16.037  0.5745  0.3013 -1.0595
 7284TIP3   OH243342   2.159   1.183  12.782 -0.3537 -0.0320  0.6369
 7284TIP3    H143343   2.072   1.154  12.754  1.1640 -1.6483 -2.8653
 7284TIP3    H243344   2.172   1.266  12.737 -0.1474  0.3548  1.3886
 7285TIP3   OH243345   2.558   2.048   3.856  0.0078  0.1537 -0.7394
 7285TIP3    H143346   2.477   2.032   3.807 -0.3511 -1.2454  0.2382
 7285TIP3    H243347   2.573   2.142   3.848 -1.6040  0.4093 -1.1259
 7286TIP3   OH243348   5.330   0.395  15.379 -0.4627 -1.1405  0.1113
 7286TIP3    H143349   5.323   0.408  15.284  1.2446 -0.1547  0.0666
 7286TIP3    H243350   5.400   0.331  15.388  0.0941 -0.4646  0.7076
 7287TIP3   OH243351   5.863   5.478   4.508  0.1771  0.1454 -0.1178
 7287TIP3    H143352   5.812   5.516   4.580 -0.2612 -0.6430  0.0015
 7287TIP3    H243353   5.930   5.544   4.489  0.7836  0.0514  1.5121
 7288TIP3   OH243354   4.959   2.401   1.673  0.2551 -0.5135 -0.0290
 7288TIP3    H143355   4.979   2.352   1.752  2.2056 -1.1966 -0.8965
 7288TIP3    H243356   4.869   2.432   1.687  0.7355 -0.0965  2.6783
 7289TIP3   OH243357   0.563   3.452   4.480  0.3786  0.1353  0.1457
 7289TIP3    H143358   0.570   3.372   4.427 -1.8965 -0.1547  0.2069
 7289TIP3    H243359   0.545   3.421   4.568  4.0984  0.6210  1.2698
 7290TIP3   OH243360   0.746   5.210   4.801  0.7282  0.8119 -0.6139
 7290TIP3    H143361   0.828   5.163   4.787 -0.1264 -1.5952  1.6850
 7290TIP3    H243362   0.755   5.249   4.888  0.3437  2.7110 -1.3694
 7291TIP3   OH243363   2.977   0.705   3.259  0.4374  0.3237  0.0146
 7291TIP3    H143364   3.060   0.658   3.251  1.2733  1.5069  1.0292
 7291TIP3    H243365   3.002   0.788   3.300 -1.2740  0.6791  0.4083
 7292TIP3   OH243366   2.701   0.082  13.512  0.1297  0.0510  0.1560
 7292TIP3    H143367   2.770   0.147  13.500  0.4646 -0.0807  1.1943
 7292TIP3    H243368   2.675   0.092  13.604 -0.5821 -0.5459  0.0316
 7293TIP3   OH243369   1.120   1.644  13.228  0.3040 -0.1506 -0.9543
 7293TIP3    H143370   1.137   1.606  13.314  0.0083  1.2529 -0.2536
 7293TIP3    H243371   1.153   1.579  13.167 -0.5680 -1.7136  0.1712
 7294TIP3   OH243372   4.450   6.441   1.505  0.0322 -0.0586 -0.5466
 7294TIP3    H143373   4.492   6.523   1.535  1.1262 -0.1793 -1.6718
 7294TIP3    H243374   4.443   6.388   1.584 -0.5469  1.0571  0.1755
 7295TIP3   OH243375   4.464   4.022   1.165  0.3165  0.3163  0.7119
 7295TIP3    H143376   4.401   4.075   1.116  0.2785 -1.5662 -1.5012
 7295TIP3    H243377   4.427   4.016   1.253 -1.5244  0.9870  0.0472
 7296TIP3   OH243378   4.896   3.002   5.724  0.2298  0.2938  0.3640
 7296TIP3    H143379   4.830   3.046   5.671  0.0023  0.5138  0.8162
 7296TIP3    H243380   4.947   3.074   5.763  0.6303  0.1289  0.1468
 7297TIP3   OH243381   0.770   2.185  13.680  0.4577  0.1905  0.2847
 7297TIP3    H143382   0.789   2.219  13.592  0.5713 -1.2154 -0.2616
 7297TIP3    H243383   0.851   2.143  13.708 -0.5320 -2.3873 -0.4160
 7298TIP3   OH243384   0.436   1.282  15.163  0.7459 -0.0209  0.2741
 7298TIP3    H143385   0.528   1.297  15.141  0.6267 -1.9832 -2.0042
 7298TIP3    H243386   0.439   1.221  15.236  1.2593 -0.0326  0.2491
 7299TIP3   OH243387   6.751   6.579   4.509 -0.5690  0.1784  0.5924
 7299TIP3    H143388   6.738   6.672   4.495  0.2285  0.2464  0.2742
 7299TIP3    H243389   6.841   6.562   4.483 -1.3658 -1.0962 -1.6389
 7300TIP3   OH243390   3.620   3.815  13.252 -0.3394 -0.3441 -0.3486
 7300TIP3    H143391   3.707   3.777  13.241 -0.6790 -0.4586 -3.3955
 7300TIP3    H243392   3.633   3.909  13.242 -0.6084 -0.3952 -1.2143
 7301TIP3   OH243393   3.010   5.296   2.271 -0.2263  0.0902 -0.4784
 7301TIP3    H143394   3.037   5.364   2.332 -0.9298  0.9899 -1.1472
 7301TIP3    H243395   3.089   5.276   2.220  0.1672 -0.1349  0.2069
 7302TIP3   OH243396   5.780   0.748   2.523  0.2160  0.1355  0.6524
 7302TIP3    H143397   5.862   0.775   2.482  0.7636 -1.1812  0.8310
 7302TIP3    H243398   5.806   0.688   2.593 -0.8430  0.5642  1.4603
 7303TIP3   OH243399   3.806   1.320  16.425 -0.2732 -0.1733 -0.2936
 7303TIP3    H143400   3.773   1.231  16.411 -1.7511  0.1866  0.7494
 7303TIP3    H243401   3.730   1.370  16.453  0.7381  1.2107  0.0723
 7304TIP3   OH243402   4.030   1.987   2.066  0.2164  0.4194 -0.5307
 7304TIP3    H143403   4.076   1.931   2.004 -1.0310 -1.6271  0.2957
 7304TIP3    H243404   4.099   2.018   2.125  0.8564 -0.8617 -0.5660
 7305TIP3   OH243405   2.582   0.986   4.068  0.0235  0.1469 -0.4967
 7305TIP3    H143406   2.547   1.076   4.068  0.9320  0.5200  0.6425
 7305TIP3    H243407   2.614   0.973   4.157 -0.3272 -1.4151 -0.5795
 7306TIP3   OH243408   2.389   3.050  11.355  0.5786 -0.5726 -0.3005
 7306TIP3    H143409   2.456   3.094  11.304  0.8180 -1.9577 -1.2550
 7306TIP3    H243410   2.350   3.118  11.409 -0.7153  1.3441 -3.3822
 7307TIP3   OH243411   5.268   2.654   5.455 -0.1613 -0.3847  1.1428
 7307TIP3    H143412   5.254   2.565   5.489  0.6287 -1.0120 -0.0988
 7307TIP3    H243413   5.297   2.641   5.365  0.1345  1.1405  0.9909
 7308TIP3   OH243414   3.028   6.710   4.410 -0.1010 -0.4803  0.1699
 7308TIP3    H143415   2.945   6.739   4.448  0.0736  1.2893 -0.6974
 7308TIP3    H243416   3.009   6.623   4.375 -1.0389 -0.9257  1.6769
 7309TIP3   OH243417   4.991   1.174   1.626  0.0174  0.1150  0.0587
 7309TIP3    H143418   4.938   1.199   1.701  1.1203 -0.7802  1.1950
 7309TIP3    H243419   5.080   1.167   1.661  0.6966  0.4003 -1.5076
 7310TIP3   OH243420   3.497   2.875   4.612  0.2769  0.4414 -0.2724
 7310TIP3    H143421   3.446   2.941   4.565  0.4173  0.7452  0.0009
 7310TIP3    H243422   3.528   2.920   4.690  0.6857  0.1608 -0.2731
 7311TIP3   OH243423   4.708   3.720   2.887 -0.4112 -0.4009  0.2095
 7311TIP3    H143424   4.640   3.711   2.953  0.5017  0.4046  1.3052
 7311TIP3    H243425   4.679   3.794   2.833 -0.5228 -0.2024  0.5352
 7312TIP3   OH243426   6.322   1.459  11.681  0.2368 -0.1199 -0.1701
 7312TIP3    H143427   6.375   1.537  11.665 -0.5341  0.1355 -1.6826
 7312TIP3    H243428   6.350   1.396  11.614  0.3998 -0.9151  0.6265
 7313TIP3   OH243429   4.483   2.896  10.137 -0.1294 -0.3388 -0.9757
 7313TIP3    H143430   4.572   2.925  10.117 -0.1499 -0.0682 -0.6763
 7313TIP3    H243431   4.487   2.867  10.228 -0.1140 -1.2754 -1.2576
 7314TIP3   OH243432   0.369   3.782  11.184 -0.6324  0.8499 -0.4587
 7314TIP3    H143433   0.313   3.834  11.243  0.9698  1.4900  0.5729
 7314TIP3    H243434   0.458   3.794  11.219 -0.1364 -2.5043 -0.2232
 7315TIP3   OH243435   5.871   2.870  11.172 -0.2743  0.4341 -0.4370
 7315TIP3    H143436   5.959   2.906  11.159 -0.1112  0.8490  1.5714
 7315TIP3    H243437   5.885   2.775  11.177 -0.1627  0.3727 -1.5875
 7316TIP3   OH243438   2.540   6.439  15.117  0.2637 -0.0206  0.4007
 7316TIP3    H143439   2.588   6.425  15.199 -0.1156 -0.2305  0.5862
 7316TIP3    H243440   2.466   6.379  15.121 -0.7184  1.1789  0.6838
 7317TIP3   OH243441   6.054   4.890  14.560  0.2400 -0.5527 -0.3362
 7317TIP3    H143442   6.010   4.897  14.475  1.1372 -0.5320 -0.8121
 7317TIP3    H243443   6.038   4.974  14.603  1.9064  0.4395 -1.5468
 7318TIP3   OH243444   0.655   0.647   1.373  0.0885  0.6261 -0.0043
 7318TIP3    H143445   0.636   0.663   1.465  0.4437 -0.2960  0.2434
 7318TIP3    H243446   0.576   0.675   1.327 -0.4589  0.2068  0.6625
 7319TIP3   OH243447   3.368   6.637  15.948 -0.1564 -0.0243  0.7748
 7319TIP3    H143448   3.332   6.548  15.951  2.0073 -1.0293 -0.2363
 7319TIP3    H243449   3.449   6.631  15.999  0.8467  0.9078 -0.6462
 7320TIP3   OH243450   0.813   0.938  14.054  0.4292 -0.2071 -0.3525
 7320TIP3    H143451   0.794   0.887  14.134  1.6792  0.1706  0.2111
 7320TIP3    H243452   0.743   0.914  13.994  0.3067 -1.6868  0.3189
 7321TIP3   OH243453   4.606   1.582  16.347 -0.3240 -0.2252 -0.0589
 7321TIP3    H143454   4.634   1.674  16.350 -1.7985  0.2471 -0.1502
 7321TIP3    H243455   4.589   1.559  16.439  2.1613 -1.1423  0.2614
 7322TIP3   OH243456   0.622   4.137  15.441 -0.7467  0.4412 -0.2670
 7322TIP3    H143457   0.594   4.112  15.529 -0.7001  1.3109  0.0033
 7322TIP3    H243458   0.688   4.072  15.417 -2.7830 -1.5521 -0.8412
 7323TIP3   OH243459   6.437   2.712   5.243  0.2732  0.1132  0.1776
 7323TIP3    H143460   6.471   2.784   5.189 -1.2400  0.8681  0.1956
 7323TIP3    H243461   6.500   2.704   5.315 -0.0286  2.0652  0.7062
 7324TIP3   OH243462   6.486   4.892   0.769 -0.4924  0.2737  0.3147
 7324TIP3    H143463   6.472   4.852   0.855  1.6895 -0.0159  0.5892
 7324TIP3    H243464   6.501   4.818   0.711 -1.3271  0.5022 -0.2002
 7325TIP3   OH243465   3.109   2.627  15.153  0.0729 -0.1559  0.3010
 7325TIP3    H143466   3.055   2.629  15.074 -1.0534  0.5278  1.0574
 7325TIP3    H243467   3.130   2.718  15.171  0.9986 -0.3676  0.3592
 7326TIP3   OH243468   4.094   3.892  13.582  0.7839 -0.0553  0.3366
 7326TIP3    H143469   4.016   3.930  13.542  0.4560 -1.6710 -0.6545
 7326TIP3    H243470   4.135   3.842  13.511  2.3342  0.1628  1.0340
 7327TIP3   OH243471   4.336   3.392   5.027 -0.2972 -0.3671 -0.2153
 7327TIP3    H143472   4.349   3.426   5.115  0.2774  1.3576 -0.9166
 7327TIP3    H243473   4.331   3.297   5.038 -2.7606 -0.0922  1.9554
 7328TIP3   OH243474   0.625   5.658   5.627  0.1437 -0.6257  0.3070
 7328TIP3    H143475   0.646   5.564   5.629 -0.2087 -0.7154 -0.1275
 7328TIP3    H243476   0.589   5.673   5.540 -0.0499 -0.1353  0.4674
 7329TIP3   OH243477   4.037   5.889   1.221 -0.2100  0.0796 -0.3005
 7329TIP3    H143478   3.989   5.912   1.300  1.4786  0.2777  0.7069
 7329TIP3    H243479   4.003   5.949   1.154  0.1415  1.6889  0.9124
 7330TIP3   OH243480   0.428   4.375   2.093  0.3919 -0.7829 -0.2940
 7330TIP3    H143481   0.338   4.367   2.062  0.2624 -0.9784  0.1334
 7330TIP3    H243482   0.472   4.426   2.025 -0.2248 -0.0190 -0.1332
 7331TIP3   OH243483   3.309   2.038  14.428  0.2441 -0.4497 -0.2621
 7331TIP3    H143484   3.310   2.092  14.349  0.4377  0.7402  0.5340
 7331TIP3    H243485   3.363   1.962  14.405  1.0476  0.3100 -0.9866
 7332TIP3   OH243486   6.225   2.438   1.848 -0.5636 -0.6978 -0.0158
 7332TIP3    H143487   6.316   2.436   1.818 -0.1480 -3.4128  1.1325
 7332TIP3    H243488   6.216   2.523   1.891  2.3964 -1.4406  2.3960
 7333TIP3   OH243489   4.294   6.564  14.073 -0.5141 -0.1142 -0.3198
 7333TIP3    H143490   4.374   6.610  14.099  0.0422 -0.5302 -1.2322
 7333TIP3    H243491   4.274   6.599  13.986 -0.9456 -0.4942 -0.3761
 7334TIP3   OH243492   2.780   5.570  12.935 -0.4449  0.1349 -0.5418
 7334TIP3    H143493   2.759   5.600  12.847  0.6949 -0.6673 -1.1074
 7334TIP3    H243494   2.857   5.514  12.924 -0.5349 -0.3152  0.9092
 7335TIP3   OH243495   3.492   6.169  15.921  0.2242 -0.3561  0.2649
 7335TIP3    H143496   3.457   6.107  15.857 -1.1285  1.7491 -1.2081
 7335TIP3    H243497   3.562   6.215  15.874  1.1620 -0.7127  1.2940
 7336TIP3   OH243498   1.629   3.839   1.042 -0.5523  0.4900  0.4402
 7336TIP3    H143499   1.694   3.769   1.050 -0.0523  1.1173  2.3438
 7336TIP3    H243500   1.546   3.792   1.029 -0.3777 -0.5837  2.6213
 7337TIP3   OH243501   0.173   2.149   1.800 -0.2018  0.7019 -0.0326
 7337TIP3    H143502   0.134   2.145   1.887 -0.6077 -1.0307 -0.2608
 7337TIP3    H243503   0.117   2.208   1.751  0.1605  1.8861  0.9148
 7338TIP3   OH243504   2.815   0.007   1.196  0.0907 -0.3543  0.5726
 7338TIP3    H143505   2.849  -0.082   1.199 -0.0157 -0.5121 -1.4903
 7338TIP3    H243506   2.812   0.028   1.103  1.0685  2.2006  1.0478
 7339TIP3   OH243507   0.423   3.738  17.135 -0.6468  0.3510  0.1924
 7339TIP3    H143508   0.515   3.748  17.110  0.1392 -1.5508  1.9546
 7339TIP3    H243509   0.377   3.730  17.052  1.1130 -0.8081 -0.7547
 7340TIP3   OH243510   6.219   3.122  10.786 -0.2885 -0.7364 -0.0905
 7340TIP3    H143511   6.158   3.084  10.722  0.3717 -0.6857 -0.7631
 7340TIP3    H243512   6.239   3.209  10.751  1.1802 -1.2404 -0.5966
 7341TIP3   OH243513   0.971   1.263   1.548 -0.1425  0.1058 -0.3857
 7341TIP3    H143514   0.880   1.266   1.578 -0.3155 -1.8906 -0.5973
 7341TIP3    H243515   0.976   1.185   1.492  2.2997 -1.4979  1.8012
 7342TIP3   OH243516   4.735   4.462   3.733 -0.4571 -0.1079 -0.7505
 7342TIP3    H143517   4.649   4.493   3.704  0.1320  1.3332 -1.0808
 7342TIP3    H243518   4.786   4.455   3.652  0.0164  0.0099 -0.4671
 7343TIP3   OH243519   4.583   1.224  12.904 -0.0690 -0.3870  0.5430
 7343TIP3    H143520   4.678   1.235  12.898 -0.3586  2.0915 -0.6133
 7343TIP3    H243521   4.571   1.130  12.917  2.5424 -0.6933  1.3839
 7344TIP3   OH243522   5.046   3.987  14.593  0.0335 -0.3405 -0.2404
 7344TIP3    H143523   5.130   4.031  14.599  2.5469 -4.1221 -3.0621
 7344TIP3    H243524   5.040   3.936  14.674  0.6040 -0.2581 -0.1416
 7345TIP3   OH243525   2.925   4.719   4.429  0.3058 -0.1739  0.6093
 7345TIP3    H143526   3.010   4.738   4.390 -0.0884 -0.3861 -0.3865
 7345TIP3    H243527   2.884   4.805   4.441 -1.1046 -0.1600 -3.0451
 7346TIP3   OH243528   0.874   6.341   1.474  0.0464  0.3608 -0.4437
 7346TIP3    H143529   0.804   6.345   1.539 -1.2976  1.4927 -1.8737
 7346TIP3    H243530   0.885   6.247   1.456 -0.3368  0.1086  0.5750
 7347TIP3   OH243531   0.202   5.718   6.399 -0.5028 -0.1538  0.2656
 7347TIP3    H143532   0.122   5.765   6.374  0.4625  1.6404  0.4659
 7347TIP3    H243533   0.273   5.767   6.359  0.5451 -1.7227  0.1083
 7348TIP3   OH243534   2.231   5.215   5.546 -0.2194 -0.1826 -0.0999
 7348TIP3    H143535   2.168   5.157   5.589 -0.6133  0.7571  0.6326
 7348TIP3    H243536   2.311   5.206   5.598  0.9658 -2.8484 -2.1400
 7349TIP3   OH243537   3.153   1.919   3.434 -0.7973  0.2315  0.1392
 7349TIP3    H143538   3.113   1.839   3.400  0.0002 -0.7399  1.3587
 7349TIP3    H243539   3.095   1.946   3.506  0.7828 -1.4048  2.1754
 7350TIP3   OH243540   5.276   1.944   0.512  0.0385 -0.0786 -0.2468
 7350TIP3    H143541   5.282   2.039   0.506  0.0694  0.0851  1.7009
 7350TIP3    H243542   5.185   1.924   0.488 -0.1389  0.5053 -0.0726
 7351TIP3   OH243543   0.456   5.871   0.979 -0.4564 -0.0048  0.3612
 7351TIP3    H143544   0.484   5.850   0.890  0.3619 -1.8466  1.0132
 7351TIP3    H243545   0.515   5.941   1.007  0.3181 -0.4999 -0.0008
 7352TIP3   OH243546   5.167   3.956  16.028 -0.6310  0.0377 -0.2461
 7352TIP3    H143547   5.171   3.860  16.025 -0.7986 -0.0574  1.6678
 7352TIP3    H243548   5.134   3.981  15.942  0.1884 -1.5636 -1.0727
 7353TIP3   OH243549   1.274   3.421   6.524  0.4266  0.1986 -0.0717
 7353TIP3    H143550   1.252   3.429   6.431 -0.7572  1.1947  0.2668
 7353TIP3    H243551   1.270   3.327   6.542 -0.5157  0.0945 -0.7600
 7354TIP3   OH243552   3.323   1.508   0.777 -0.1534  0.8646  0.2672
 7354TIP3    H143553   3.253   1.569   0.800 -0.2421  1.1111 -0.6406
 7354TIP3    H243554   3.403   1.560   0.786 -0.0708  0.6015  1.2383
 7355TIP3   OH243555   2.125   6.609   0.195 -0.3568 -0.4771 -0.1096
 7355TIP3    H143556   2.088   6.628   0.109 -0.0664 -0.1837 -0.1739
 7355TIP3    H243557   2.088   6.676   0.253  1.8877  1.3806 -0.6498
 7356TIP3   OH243558   4.977   5.717  13.740  0.1004  0.4146  0.3171
 7356TIP3    H143559   4.908   5.782  13.727  1.0717  1.2457 -1.0533
 7356TIP3    H243560   4.969   5.658  13.665  0.5966  0.2753  0.3687
 7357TIP3   OH243561   0.707   2.447   4.087 -0.1124 -0.7464  0.1412
 7357TIP3    H143562   0.653   2.501   4.145  0.2796 -0.2575  0.0628
 7357TIP3    H243563   0.724   2.504   4.011 -1.9030 -1.8938 -1.1911
 7358TIP3   OH243564   0.535   3.496  12.182  0.0785 -0.2774 -0.1255
 7358TIP3    H143565   0.586   3.573  12.209  0.4525 -0.3726 -0.5558
 7358TIP3    H243566   0.444   3.520  12.201  0.3523 -0.5254  1.6874
 7359TIP3   OH243567   3.692   4.054  16.990 -0.1381  0.0376  0.2723
 7359TIP3    H143568   3.605   4.079  17.020  0.0865  1.5675 -0.2797
 7359TIP3    H243569   3.706   3.967  17.028 -2.2406 -0.6206 -0.3165
 7360TIP3   OH243570   4.377   5.099  16.181  0.3813  0.2765 -0.1669
 7360TIP3    H143571   4.318   5.148  16.123  1.6223  1.6116 -0.3424
 7360TIP3    H243572   4.459   5.149  16.180  1.8905 -2.0602 -0.7396
 7361TIP3   OH243573   1.649   4.170  13.406 -0.1147  0.0041 -0.5716
 7361TIP3    H143574   1.694   4.137  13.328 -2.1939 -0.3798 -1.6983
 7361TIP3    H243575   1.615   4.255  13.379 -0.6381 -0.0153  0.0042
 7362TIP3   OH243576   4.534   6.480   1.926  0.3682  0.2180 -0.0124
 7362TIP3    H143577   4.543   6.546   1.857 -0.3233  0.4510  0.1091
 7362TIP3    H243578   4.502   6.529   2.002 -1.0942 -0.3927 -0.1944
 7363TIP3   OH243579   6.280   1.013   4.776 -0.4840  0.2445 -0.5833
 7363TIP3    H143580   6.201   0.997   4.724 -1.3624 -1.0983  1.0743
 7363TIP3    H243581   6.291   0.933   4.828  0.3067  1.5214  1.3279
 7364TIP3   OH243582   3.643   4.261   2.767  0.3627 -0.4133 -0.1719
 7364TIP3    H143583   3.551   4.233   2.767  0.2368 -0.0057 -0.1851
 7364TIP3    H243584   3.676   4.235   2.853 -0.0705  0.4155  0.2575
 7365TIP3   OH243585   5.525   2.255   1.023 -0.1785 -0.4748 -0.2277
 7365TIP3    H143586   5.550   2.173   1.067  3.0887  0.0547 -0.8464
 7365TIP3    H243587   5.502   2.314   1.095  2.6310 -0.4052  0.7779
 7366TIP3   OH243588   1.848   5.820  14.290  0.2113 -0.5084  0.3842
 7366TIP3    H143589   1.766   5.771  14.281 -0.5003  0.7173  0.0512
 7366TIP3    H243590   1.838   5.868  14.372  0.7385 -0.6035  0.5067
 7367TIP3   OH243591   5.598   0.225   4.365  0.0490  0.3438  0.1296
 7367TIP3    H143592   5.547   0.288   4.416  0.8088 -0.1025  1.5122
 7367TIP3    H243593   5.533   0.160   4.336 -0.2390 -0.1366  1.7348
 7368TIP3   OH243594   1.477   5.146   1.005 -0.3538 -0.2374 -0.1211
 7368TIP3    H143595   1.517   5.209   0.946 -1.4662 -0.9776 -1.7522
 7368TIP3    H243596   1.548   5.087   1.030  0.5617  1.2418  0.9490
 7369TIP3   OH243597   5.519   0.686  13.289  0.4594 -0.1003 -0.0642
 7369TIP3    H143598   5.606   0.651  13.272  0.4372  0.9763 -2.9551
 7369TIP3    H243599   5.465   0.610  13.311  1.3759 -1.2601 -1.7041
 7370TIP3   OH243600   3.993   4.538  14.049  0.1325  0.2120 -0.4593
 7370TIP3    H143601   4.072   4.586  14.073  0.5793 -0.8691  0.3240
 7370TIP3    H243602   4.011   4.448  14.076 -1.5298  0.0260  0.1343
 7371TIP3   OH243603   6.516   2.543   1.534 -0.1918 -0.3749  0.1288
 7371TIP3    H143604   6.490   2.534   1.626 -0.5070  2.4131  0.3924
 7371TIP3    H243605   6.527   2.453   1.504 -0.6641 -1.3998  2.7168
 7372TIP3   OH243606   6.303   1.801   0.997  0.0774  0.5264  0.3195
 7372TIP3    H143607   6.248   1.774   1.070 -2.0907 -0.4813 -1.5709
 7372TIP3    H243608   6.309   1.896   1.004 -2.5020  0.7432  0.2512
 7373TIP3   OH243609   0.657   4.431  11.656 -0.5360  0.1652 -0.6421
 7373TIP3    H143610   0.669   4.402  11.565  0.4158  0.1981 -0.5356
 7373TIP3    H243611   0.623   4.354  11.701  2.1151 -0.9516 -0.3302
 7374TIP3   OH243612   0.316   5.083  14.925  0.3190 -0.3988 -0.0033
 7374TIP3    H143613   0.374   5.051  14.857  1.1905  0.5056  0.3001
 7374TIP3    H243614   0.328   5.178  14.926  0.8443 -0.4344  1.8416
 7375TIP3   OH243615   4.452   2.154  12.328  0.1278  0.1260 -0.1792
 7375TIP3    H143616   4.497   2.206  12.395 -0.0000  0.8671 -0.6639
 7375TIP3    H243617   4.495   2.068  12.333  1.4508  0.7419 -0.4654
 7376TIP3   OH243618   1.795   6.600   3.098  0.3507  0.6146 -0.1802
 7376TIP3    H143619   1.766   6.515   3.064  0.6813  0.0309  0.9697
 7376TIP3    H243620   1.781   6.595   3.192  3.9732  0.3389  0.4758
 7377TIP3   OH243621   3.873   0.278  11.183  0.3394 -0.3273 -0.0460
 7377TIP3    H143622   3.790   0.277  11.136  0.0040 -1.3877  0.5272
 7377TIP3    H243623   3.922   0.205  11.146  1.1979  0.5547 -0.6759
 7378TIP3   OH243624   5.111   1.707  16.981  0.8582 -0.1371 -0.1186
 7378TIP3    H143625   5.052   1.635  16.959 -0.8821  1.1504  0.1568
 7378TIP3    H243626   5.188   1.664  17.019  0.5084 -1.9136 -1.2706
 7379TIP3   OH243627   5.630   2.468   3.480 -0.6098 -0.1656  0.0500
 7379TIP3    H143628   5.558   2.439   3.423 -0.7123 -1.2196  0.6861
 7379TIP3    H243629   5.708   2.432   3.438 -0.4756  0.7066 -0.4657
 7380TIP3   OH243630   2.820   2.434   1.206 -0.1432  0.2450 -0.6591
 7380TIP3    H143631   2.908   2.408   1.179 -0.6697 -0.6232 -1.5914
 7380TIP3    H243632   2.813   2.407   1.297  0.4072 -0.0634 -0.7109
 7381TIP3   OH243633   3.570   4.727  14.037  0.0463 -0.2425  0.2402
 7381TIP3    H143634   3.659   4.723  14.003  0.4125 -2.3174  1.3139
 7381TIP3    H243635   3.515   4.740  13.960  1.1147 -1.2196 -0.7233
 7382TIP3   OH243636   1.612   6.043  14.999 -0.5157 -0.4867 -0.6791
 7382TIP3    H143637   1.565   6.076  14.923  0.7627 -1.0056 -1.7345
 7382TIP3    H243638   1.617   6.118  15.058  0.9041  0.8045 -2.3262
 7383TIP3   OH243639   2.580   3.598  12.349  0.4583 -0.0958 -0.9330
 7383TIP3    H143640   2.530   3.656  12.406 -0.6822 -0.9918 -0.9926
 7383TIP3    H243641   2.664   3.643  12.338  0.3798  0.5289  0.7019
 7384TIP3   OH243642   5.872   6.498  11.283  0.0486  0.2717  0.4551
 7384TIP3    H143643   5.825   6.451  11.214 -0.8377  0.3836  0.9731
 7384TIP3    H243644   5.963   6.499  11.253 -0.2724  0.0595 -0.5659
 7385TIP3   OH243645   3.137   2.883   2.475  0.6739  0.4086 -0.3688
 7385TIP3    H143646   3.136   2.830   2.555  0.0420 -0.1392 -0.7300
 7385TIP3    H243647   3.104   2.825   2.407  1.8486  0.6504 -1.1803
 7386TIP3   OH243648   5.258   0.413  12.092  0.8236  0.6601  0.5915
 7386TIP3    H143649   5.288   0.494  12.132  1.5149  1.1160 -0.7784
 7386TIP3    H243650   5.334   0.355  12.095  0.5996  0.3720  0.7744
 7387TIP3   OH243651   5.867   5.629  11.664  0.2984 -0.3119  0.2599
 7387TIP3    H143652   5.959   5.641  11.641  0.1798  1.9947  0.7703
 7387TIP3    H243653   5.864   5.641  11.759 -0.4964 -0.5611  0.2743
 7388TIP3   OH243654   3.763   5.595  10.563  0.3467  0.1944 -0.7032
 7388TIP3    H143655   3.857   5.582  10.550  0.0312 -1.9620 -1.2589
 7388TIP3    H243656   3.731   5.510  10.593 -1.9033 -0.1206 -3.5337
 7389TIP3   OH243657   4.948   0.471  15.255 -0.3944 -0.6642  0.1475
 7389TIP3    H143658   4.972   0.503  15.168 -0.0580 -0.4786  0.3031
 7389TIP3    H243659   4.974   0.379  15.255  1.2592 -0.2284  0.6373
 7390TIP3   OH243660   0.248   5.584   1.166  0.3916 -0.5059  0.1465
 7390TIP3    H143661   0.342   5.600   1.155  0.5427 -1.6789 -0.3906
 7390TIP3    H243662   0.243   5.499   1.209 -0.4247 -0.1713  0.7374
 7391TIP3   OH243663   3.379   2.808   1.029  0.1367  0.1706 -0.0991
 7391TIP3    H143664   3.431   2.787   0.951 -0.8562 -0.1910 -0.6818
 7391TIP3    H243665   3.354   2.722   1.065  0.7559  0.3340  0.7390
 7392TIP3   OH243666   6.274   4.967   4.073 -0.0818 -0.3664  0.3038
 7392TIP3    H143667   6.258   5.049   4.026 -0.5507 -0.9991 -0.6717
 7392TIP3    H243668   6.254   4.899   4.009  0.0832 -1.2476  1.1759
 7393TIP3   OH243669   5.757   2.869  12.789 -0.2576  0.0454  0.5513
 7393TIP3    H143670   5.802   2.803  12.842  0.4477  1.0177  1.2080
 7393TIP3    H243671   5.775   2.951  12.834 -1.9206  0.5911  0.2937
 7394TIP3   OH243672   2.778   6.496   4.144 -0.1787 -0.3512 -0.3962
 7394TIP3    H143673   2.817   6.411   4.165  0.1339 -0.2461 -0.5576
 7394TIP3    H243674   2.752   6.532   4.229 -0.5075 -0.7008 -0.3434
 7395TIP3   OH243675   5.775   4.573   4.530 -0.4508 -0.0520  0.0259
 7395TIP3    H143676   5.772   4.566   4.625  0.3898 -1.9671 -0.0388
 7395TIP3    H243677   5.742   4.489   4.498  0.2946  0.1417 -1.3558
 7396TIP3   OH243678   6.163   0.671  11.133  0.4287 -0.2649 -0.0581
 7396TIP3    H143679   6.119   0.664  11.048  0.2885  1.0058 -0.1046
 7396TIP3    H243680   6.213   0.752  11.127  2.3514 -1.3644  0.1977
 7397TIP3   OH243681   1.218   5.104   1.103  0.9139  0.9080 -0.0774
 7397TIP3    H143682   1.194   5.169   1.169  2.0446 -0.3760  1.6777
 7397TIP3    H243683   1.310   5.121   1.084  1.5959 -0.8588  1.3307
 7398TIP3   OH243684   3.482   5.709  11.485  0.2385 -0.2236 -0.2430
 7398TIP3    H143685   3.434   5.628  11.505 -1.7755  1.0971  0.6069
 7398TIP3    H243686   3.513   5.697  11.396 -2.2497 -0.9521 -1.0932
 7399TIP3   OH243687   2.424   4.904  16.186 -0.3808 -0.6368  0.3791
 7399TIP3    H143688   2.448   4.953  16.266 -1.5964 -0.1067  0.4347
 7399TIP3    H243689   2.360   4.840  16.216  1.7215 -2.8529  0.4439
 7400TIP3   OH243690   5.128   5.380  14.632  0.1759 -0.2159  0.0758
 7400TIP3    H143691   5.124   5.476  14.626 -0.3322 -0.2979 -1.3652
 7400TIP3    H243692   5.205   5.356  14.582 -0.1378 -0.5909 -0.2351
 7401TIP3   OH243693   0.104   3.679  13.694 -0.0168  0.2127 -0.4524
 7401TIP3    H143694   0.117   3.746  13.761 -1.7770 -0.3498  0.5243
 7401TIP3    H243695   0.186   3.631  13.691 -0.1154 -0.2024  1.8641
 7402TIP3   OH243696   4.184   0.551   5.083  0.2598  0.6060  0.2044
 7402TIP3    H143697   4.252   0.551   5.015  0.5089  2.4714  0.4069
 7402TIP3    H243698   4.103   0.573   5.036 -0.1858 -1.2109  0.0325
 7403TIP3   OH243699   1.200   4.681   0.004 -0.2626  0.4184  0.6813
 7403TIP3    H143700   1.201   4.586  -0.009  0.2556  0.2316  1.9406
 7403TIP3    H243701   1.275   4.713  -0.046 -1.5928  0.4435 -1.4258
 7404TIP3   OH243702   4.184   1.189  17.023 -0.3347 -0.7928 -0.1021
 7404TIP3    H143703   4.177   1.214  16.931  0.4253 -0.7847 -0.1668
 7404TIP3    H243704   4.262   1.235  17.054 -0.2074 -1.3152  0.3707
 7405TIP3   OH243705   4.151   3.496  11.768  0.1069 -0.3306 -0.5498
 7405TIP3    H143706   4.146   3.401  11.758 -1.5398 -0.1277 -2.0207
 7405TIP3    H243707   4.142   3.511  11.863  2.0472 -1.6802 -0.1004
 7406TIP3   OH243708   5.394   6.792   4.103 -0.0526  0.7345  0.3865
 7406TIP3    H143709   5.422   6.870   4.055 -0.3100  0.3092 -0.4758
 7406TIP3    H243710   5.396   6.818   4.195  1.3669  1.2931  0.2337
 7407TIP3   OH243711   4.930   4.564   4.374 -0.3957 -0.3336  0.5595
 7407TIP3    H143712   4.914   4.622   4.300 -1.4472  1.3342  2.0212
 7407TIP3    H243713   4.988   4.496   4.339  1.3238  1.8388 -1.1327
 7408TIP3   OH243714   5.923   0.189  12.499  0.0470  0.3190 -0.3593
 7408TIP3    H143715   5.915   0.166  12.592 -0.5365  0.7131 -0.3087
 7408TIP3    H243716   5.866   0.126  12.454  1.8119 -1.1611 -0.6724
 7409TIP3   OH243717   1.785   0.872  11.245 -0.1333  0.2783  0.4235
 7409TIP3    H143718   1.779   0.791  11.295  0.1854 -0.9472 -1.4266
 7409TIP3    H243719   1.874   0.873  11.211 -0.4526  0.8416 -0.4403
 7410TIP3   OH243720   1.313   0.512   1.591  0.6495 -0.3563 -0.5488
 7410TIP3    H143721   1.274   0.597   1.612  1.4181 -0.2327  0.4795
 7410TIP3    H243722   1.243   0.463   1.549 -0.8858 -0.4068  1.9154
 7411TIP3   OH243723   4.865   5.765   2.869  0.5581  0.0559  0.2904
 7411TIP3    H143724   4.776   5.757   2.902  0.1125 -1.3500 -1.1157
 7411TIP3    H243725   4.920   5.741   2.944 -0.2974 -0.2069  0.8545
 7412TIP3   OH243726   2.555   6.560   0.602  0.1196 -0.7719 -0.6795
 7412TIP3    H143727   2.476   6.563   0.548 -0.3029 -1.8005 -0.1531
 7412TIP3    H243728   2.561   6.647   0.641 -0.8841 -0.7393 -0.5611
 7413TIP3   OH243729   6.666   0.630   1.857  0.1964  0.3549 -0.1572
 7413TIP3    H143730   6.661   0.697   1.788  2.5996  1.4006  0.5789
 7413TIP3    H243731   6.619   0.555   1.820 -2.6586  2.3759 -0.9999
 7414TIP3   OH243732   5.819   0.525  14.661  0.1111 -0.2514 -1.0027
 7414TIP3    H143733   5.883   0.583  14.702 -0.9109 -0.0471  0.3967
 7414TIP3    H243734   5.813   0.555  14.571 -0.6388  2.0887 -0.2510
 7415TIP3   OH243735   4.387   4.372   6.714 -0.3066 -0.6283 -0.2207
 7415TIP3    H143736   4.471   4.417   6.714 -0.5761 -0.0395 -1.9079
 7415TIP3    H243737   4.385   4.326   6.630 -2.7494  1.6268 -1.5686
 7416TIP3   OH243738   6.823   3.895  12.397 -0.1554 -0.0711 -0.3618
 7416TIP3    H143739   6.779   3.975  12.369 -0.7513  0.4279  1.8561
 7416TIP3    H243740   6.811   3.892  12.492  1.9548 -1.5350 -0.0660
 7417TIP3   OH243741   3.602   0.799  12.060 -0.2158  0.4650  1.0419
 7417TIP3    H143742   3.580   0.726  12.003  1.3850  1.6361 -1.2714
 7417TIP3    H243743   3.665   0.763  12.123  0.8224 -0.1193 -0.2824
 7418TIP3   OH243744   1.745   4.360  12.485 -0.2065 -0.7583  0.0956
 7418TIP3    H143745   1.781   4.276  12.458  0.5065 -0.7825  1.0561
 7418TIP3    H243746   1.771   4.368  12.577 -0.1274  0.5738 -0.0250
 7419TIP3   OH243747   0.284   5.433   0.419  0.0858  0.5001  0.4703
 7419TIP3    H143748   0.298   5.371   0.491  0.0314  1.0740  0.9839
 7419TIP3    H243749   0.331   5.512   0.446  2.1789 -0.0657 -1.2423
 7420TIP3   OH243750   1.740   4.609  12.369 -0.4628 -0.5495  0.6360
 7420TIP3    H143751   1.743   4.590  12.275  1.4290  0.4535  0.4334
 7420TIP3    H243752   1.730   4.524  12.411 -1.5693 -0.9886 -0.4666
 7421TIP3   OH243753   3.247   6.197   3.331  0.1615 -0.0315 -0.4692
 7421TIP3    H143754   3.264   6.105   3.313  2.8061  0.6769 -2.0629
 7421TIP3    H243755   3.207   6.197   3.418  2.0075 -2.5644  0.4915
 7422TIP3   OH243756   0.629   5.736   0.020 -0.3678 -0.1865 -0.4365
 7422TIP3    H143757   0.708   5.701  -0.020  1.0452  2.7192 -0.5060
 7422TIP3    H243758   0.580   5.773  -0.053  0.6900  2.3206 -0.0154
 7423TIP3   OH243759   5.722   1.327  13.543 -0.1682 -0.1309 -0.1114
 7423TIP3    H143760   5.767   1.412  13.541  0.7221 -0.5997 -1.1990
 7423TIP3    H243761   5.792   1.262  13.536 -0.8633 -0.9582  0.4290
 7424TIP3   OH243762   0.876   1.425  16.438  0.0926  0.1375  0.4248
 7424TIP3    H143763   0.828   1.480  16.500  0.1300 -0.6812  1.2000
 7424TIP3    H243764   0.910   1.353  16.491  1.3063  0.1480 -0.2979
 7425TIP3   OH243765   5.947   6.319  16.758  0.4075  0.3379  0.3647
 7425TIP3    H143766   5.920   6.270  16.835 -1.7500 -0.9481 -1.1223
 7425TIP3    H243767   5.909   6.406  16.771 -1.1042 -0.2696  0.1635
 7426TIP3   OH243768   2.230   2.721  17.078 -0.2957  0.1280 -0.1392
 7426TIP3    H143769   2.194   2.751  17.161  0.3389  0.3665  0.0597
 7426TIP3    H243770   2.257   2.631  17.095 -0.1195  0.1931 -0.0690
 7427TIP3   OH243771   4.463   6.630   0.003  0.3751 -0.4655 -0.1400
 7427TIP3    H143772   4.491   6.627  -0.089  1.4502  0.3756  0.1428
 7427TIP3    H243773   4.452   6.538   0.028  1.3994 -0.7592 -0.7227
 7428TIP3   OH243774   5.490   3.907   2.728  0.2082  0.1751  0.4505
 7428TIP3    H143775   5.571   3.925   2.775  1.8273 -1.4141 -1.5877
 7428TIP3    H243776   5.477   3.813   2.737 -2.0814  0.5142  1.6312
 7429TIP3   OH243777   1.145   6.450   1.846  0.3128 -1.1385 -0.0579
 7429TIP3    H143778   1.101   6.424   1.927  0.9319 -0.2065  0.6043
 7429TIP3    H243779   1.085   6.510   1.803 -0.1109 -1.8044 -0.4112
 7430TIP3   OH243780   2.831   4.743   3.904 -0.0906  0.1796  0.5231
 7430TIP3    H143781   2.905   4.737   3.964  1.0923 -0.5676 -0.9332
 7430TIP3    H243782   2.770   4.802   3.947  1.3231  0.7858  1.8050
 7431TIP3   OH243783   2.033   5.040   2.834 -0.5413  0.1454  0.0954
 7431TIP3    H143784   2.003   5.116   2.884  0.1971  0.3365  0.2618
 7431TIP3    H243785   2.052   4.974   2.901  3.0407  1.2760  0.3874
 7432TIP3   OH243786   3.622   3.415   0.249  0.5846  0.6384  0.2594
 7432TIP3    H143787   3.682   3.488   0.233 -0.1718  1.9120  2.7587
 7432TIP3    H243788   3.676   3.348   0.291  0.1070  2.6118  4.5445
 7433TIP3   OH243789   4.536   1.434  13.832 -0.0555  0.3180  0.5895
 7433TIP3    H143790   4.532   1.505  13.768 -2.1941 -0.5345 -0.2998
 7433TIP3    H243791   4.509   1.356  13.784  0.2214 -0.7392  2.0631
 7434TIP3   OH243792   0.021   4.143  16.502 -0.6389  0.3868  0.2546
 7434TIP3    H143793  -0.018   4.174  16.420  0.9453 -1.0964 -1.1351
 7434TIP3    H243794  -0.018   4.057  16.517 -0.3023  0.2861  0.5817
 7435TIP3   OH243795   5.836   4.490  15.649  0.3198  0.2908 -0.2755
 7435TIP3    H143796   5.928   4.478  15.626  1.0997  0.8683  2.1630
 7435TIP3    H243797   5.787   4.446  15.580  2.4725 -1.3850 -0.8360
 7436TIP3   OH243798   0.373   6.415  11.848  0.2023  0.2394 -0.0526
 7436TIP3    H143799   0.387   6.325  11.816  1.6166 -0.1027  1.4242
 7436TIP3    H243800   0.399   6.470  11.774  1.6047 -0.5450 -0.1833
 7437TIP3   OH243801   3.798   0.142  14.459 -0.3811  0.1199  0.1564
 7437TIP3    H143802   3.891   0.130  14.475 -0.4494 -0.5460  0.0821
 7437TIP3    H243803   3.769   0.203  14.527  0.1370  0.4676  0.0697
 7438TIP3   OH243804   6.223   1.722   0.021 -0.3366  0.0854  0.4558
 7438TIP3    H143805   6.266   1.801   0.053  0.8160  0.1771 -1.2206
 7438TIP3    H243806   6.291   1.674  -0.026 -1.8314 -0.1860 -1.6023
 7439TIP3   OH243807   2.126   0.243  11.520  0.0938 -0.2097 -0.1006
 7439TIP3    H143808   2.133   0.182  11.446  0.8314 -0.9611  0.5729
 7439TIP3    H243809   2.036   0.274  11.517  0.1433 -0.1126 -1.3994
 7440TIP3   OH243810   4.458   2.957   2.898 -0.5034 -0.2063  0.9356
 7440TIP3    H143811   4.413   2.877   2.923  2.0050 -2.1886 -0.4676
 7440TIP3    H243812   4.419   2.981   2.814  0.1704 -1.2143  0.3175
 7441TIP3   OH243813   3.397   2.562   5.280  0.4699  0.4584  0.6097
 7441TIP3    H143814   3.357   2.638   5.236  0.2007 -0.2256 -0.3462
 7441TIP3    H243815   3.388   2.490   5.217  2.7410  0.1371  0.5707
 7442TIP3   OH243816   3.291   2.726   3.741 -0.0391 -0.7462 -0.0505
 7442TIP3    H143817   3.319   2.635   3.731 -0.1155 -0.8178  0.3633
 7442TIP3    H243818   3.205   2.730   3.700  0.1766 -0.7447 -0.5046
 7443TIP3   OH243819   5.349   2.841   4.671 -0.3775 -0.5957  0.6801
 7443TIP3    H143820   5.392   2.922   4.645 -1.6191 -0.1175  0.0437
 7443TIP3    H243821   5.284   2.868   4.737 -0.2872 -1.1777  1.0166
 7444TIP3   OH243822   2.932   3.570  14.835 -0.1674 -0.3255  0.5991
 7444TIP3    H143823   2.861   3.510  14.813 -0.4560  1.0136 -2.7740
 7444TIP3    H243824   2.927   3.580  14.930 -3.7916 -1.1495  0.6378
 7445TIP3   OH243825   2.173   4.032  11.893 -0.0627  0.0158  0.0772
 7445TIP3    H143826   2.247   4.066  11.943  0.3149  0.0460 -0.4887
 7445TIP3    H243827   2.211   3.963  11.838 -0.4304  0.1161 -0.3078
 7446TIP3   OH243828   5.305   3.835  12.064  0.3968  0.2028  0.5214
 7446TIP3    H143829   5.308   3.909  12.126  1.1505 -0.0513  0.7973
 7446TIP3    H243830   5.312   3.876  11.978  0.4941  0.4772  0.6586
 7447TIP3   OH243831   4.154   3.073  15.889 -0.1558  0.3503 -0.3328
 7447TIP3    H143832   4.060   3.095  15.887 -0.0434  0.9105  0.1569
 7447TIP3    H243833   4.183   3.101  15.976  0.5514  0.5525 -0.6276
 7448TIP3   OH243834   2.656   3.894   3.777  0.1199 -0.3683 -0.1619
 7448TIP3    H143835   2.655   3.987   3.798  0.5644 -0.3180 -0.3447
 7448TIP3    H243836   2.666   3.850   3.861  0.6295 -0.2188 -0.1415
 7449TIP3   OH243837   2.158   0.153   1.197 -0.9835  0.1217  0.1324
 7449TIP3    H143838   2.199   0.212   1.134  0.4971  0.0040  0.9591
 7449TIP3    H243839   2.075   0.197   1.219 -0.2719  1.5252  0.1481
 7450TIP3   OH243840   1.908   4.951   0.145 -0.1952 -0.7700 -0.8903
 7450TIP3    H143841   1.861   5.035   0.141 -1.3912 -1.4085 -0.5627
 7450TIP3    H243842   1.946   4.941   0.058  0.6807  0.4969 -0.6934
 7451TIP3   OH243843   3.513   5.943   6.264 -0.2722 -0.5987  0.3488
 7451TIP3    H143844   3.606   5.945   6.289  0.3010 -1.1323 -1.5714
 7451TIP3    H243845   3.484   6.034   6.272  0.4918 -0.3710  0.6714
 7452TIP3   OH243846   1.088   1.970   3.414  0.5794 -0.3373 -0.1893
 7452TIP3    H143847   1.128   2.056   3.404 -0.8822  0.4501  0.4346
 7452TIP3    H243848   1.009   1.974   3.361 -0.2806 -0.7472  1.0183
 7453TIP3   OH243849   4.819   0.624   3.688 -0.8914  0.0215  0.3587
 7453TIP3    H143850   4.864   0.667   3.761 -0.3551  0.1773 -0.0579
 7453TIP3    H243851   4.743   0.582   3.729 -0.9290  0.6030  0.9119
 7454TIP3   OH243852   6.729   2.822   2.549 -0.0776 -0.5316  0.1325
 7454TIP3    H143853   6.792   2.887   2.580  1.4921 -2.9938  2.5095
 7454TIP3    H243854   6.646   2.848   2.590  0.1894  0.6966 -0.0646
 7455TIP3   OH243855   0.811   5.150  13.003 -0.4209 -0.3635  0.2565
 7455TIP3    H143856   0.828   5.143  13.097  0.0532  1.0384  0.2978
 7455TIP3    H243857   0.870   5.219  12.973  0.0659 -1.3970 -1.2488
 7456TIP3   OH243858   1.281   1.289  17.137 -0.8180  0.2201  0.0022
 7456TIP3    H143859   1.268   1.379  17.108 -1.2160  0.4577  0.8713
 7456TIP3    H243860   1.234   1.236  17.072  0.0255  0.5748 -0.9118
 7457TIP3   OH243861   1.087   3.986   5.252 -0.2563  0.3871 -0.2924
 7457TIP3    H143862   1.166   4.036   5.231  0.1248 -0.3999 -0.7488
 7457TIP3    H243863   1.016   4.050   5.243  0.2735  0.9717 -0.3894
 7458TIP3   OH243864   3.072   0.952   3.366 -0.3854  0.3888  0.4198
 7458TIP3    H143865   3.156   0.963   3.409  0.4281 -1.2814 -0.6226
 7458TIP3    H243866   3.012   0.927   3.436  0.2054  0.6382  1.0225
 7459TIP3   OH243867   2.813   3.021  12.831  0.2718  0.0914 -0.4561
 7459TIP3    H143868   2.790   3.051  12.743  1.3063 -0.3306 -0.8836
 7459TIP3    H243869   2.866   3.092  12.867  0.2581  0.0496 -0.3532
 7460TIP3   OH243870   0.298   4.625  10.767  0.2485 -0.2881 -0.1353
 7460TIP3    H143871   0.393   4.616  10.761  0.3520  1.3696 -2.9405
 7460TIP3    H243872   0.263   4.563  10.704 -0.5720 -0.8478  0.8289
 7461TIP3   OH243873   6.093   1.539   3.445  0.3045  1.4567  0.2332
 7461TIP3    H143874   6.114   1.547   3.352  0.6483  2.9614  0.4101
 7461TIP3    H243875   6.155   1.597   3.488  2.9214 -2.1457  1.8601
 7462TIP3   OH243876   5.610   3.512  14.817 -0.4129  0.1910  0.2165
 7462TIP3    H143877   5.555   3.442  14.852 -1.2973  0.6701 -0.1794
 7462TIP3    H243878   5.694   3.501  14.860 -1.0513 -0.0896  1.4308
 7463TIP3   OH243879   0.893   4.841   1.699  0.3644  0.2955  0.4523
 7463TIP3    H143880   0.892   4.933   1.727  0.1321  0.3131  0.3824
 7463TIP3    H243881   0.817   4.802   1.741  1.1779 -0.1880  1.5411
 7464TIP3   OH243882   3.859   5.589  16.723  0.6748  0.1388 -0.1700
 7464TIP3    H143883   3.771   5.556  16.739 -0.7466  2.3930 -2.6008
 7464TIP3    H243884   3.892   5.536  16.651  0.0457  1.2115 -1.2824
 7465TIP3   OH243885   1.565   0.877  11.711  0.2291 -0.7714 -0.2839
 7465TIP3    H143886   1.482   0.851  11.671  0.1285  1.6588 -1.8064
 7465TIP3    H243887   1.628   0.813  11.678 -0.4112 -0.5949 -1.9206
 7466TIP3   OH243888   1.024   1.270   3.196 -0.3247  0.1933 -0.5963
 7466TIP3    H143889   1.044   1.354   3.237  1.7807  0.1673 -1.4199
 7466TIP3    H243890   1.001   1.212   3.269 -0.1245  1.0554  0.1603
 7467TIP3   OH243891   3.491   4.787   2.994 -0.4935 -0.3142 -0.0561
 7467TIP3    H143892   3.559   4.839   3.037  0.7712 -1.8239 -0.1469
 7467TIP3    H243893   3.418   4.848   2.983  1.1719  1.6557 -0.8500
 7468TIP3   OH243894   5.654   5.706   4.987  0.1502  0.2753  0.2335
 7468TIP3    H143895   5.683   5.716   5.078 -1.3585  2.5235  0.5235
 7468TIP3    H243896   5.641   5.611   4.977  2.9296 -0.3535  1.4659
 7469TIP3   OH243897   2.961   3.001   3.998  0.1910  0.1131  0.0700
 7469TIP3    H143898   2.923   2.947   4.067 -2.3951 -0.6897 -1.8332
 7469TIP3    H243899   3.040   2.953   3.972  0.4627 -0.2676  1.5094
 7470TIP3   OH243900   3.214   4.253  11.554 -0.2347  0.1849 -0.1875
 7470TIP3    H143901   3.180   4.211  11.475 -1.1674  0.1374  0.2313
 7470TIP3    H243902   3.148   4.318  11.577  0.5240  0.9018 -0.0191
 7471TIP3   OH243903   3.027   3.327  11.674  0.1168  0.7169 -0.5569
 7471TIP3    H143904   3.029   3.236  11.706  1.4332  0.4801 -1.2712
 7471TIP3    H243905   3.003   3.319  11.582 -0.6600  1.1751 -0.3994
 7472TIP3   OH243906   6.331   3.800  12.795  0.3580  0.3156  0.0579
 7472TIP3    H143907   6.332   3.770  12.886  1.4374 -0.9153 -0.3324
 7472TIP3    H243908   6.269   3.742  12.751  1.7472 -0.7926 -0.5039
 7473TIP3   OH243909   2.405   6.472   4.880  0.3703  0.3261  0.9776
 7473TIP3    H143910   2.479   6.465   4.941  0.7538  1.6160  0.6877
 7473TIP3    H243911   2.446   6.482   4.794 -0.1482 -3.1951  0.1722
 7474TIP3   OH243912   1.387   0.426  11.434  0.3132 -0.5620 -0.2150
 7474TIP3    H143913   1.418   0.461  11.350 -0.4376 -1.6712 -0.9835
 7474TIP3    H243914   1.292   0.431  11.428  0.2457 -0.9379  0.4488
 7475TIP3   OH243915   0.472   4.728   3.282 -0.3371  0.3277 -0.2244
 7475TIP3    H143916   0.508   4.746   3.195  0.6842  1.2972  0.3710
 7475TIP3    H243917   0.413   4.800   3.299 -0.5871  0.1018 -0.1393
 7476TIP3   OH243918   4.459   3.083  11.225 -0.3720  0.1122 -0.2326
 7476TIP3    H143919   4.365   3.061  11.227 -0.2194 -1.2485 -2.8349
 7476TIP3    H243920   4.467   3.144  11.151  0.6790  0.9903  0.5829
 7477TIP3   OH243921   2.242   5.273  14.766 -0.0373 -0.7111  0.3053
 7477TIP3    H143922   2.252   5.281  14.860  0.6537 -0.9793  0.2621
 7477TIP3    H243923   2.331   5.262  14.733 -0.0396  1.4386 -0.5832
 7478TIP3   OH243924   3.606   3.803  16.118  0.0046  0.2449 -0.0746
 7478TIP3    H143925   3.563   3.719  16.134 -0.3983  0.6955  1.3745
 7478TIP3    H243926   3.698   3.787  16.138 -0.0200  0.0780 -0.0924
 7479TIP3   OH243927   4.586   4.864   2.286 -0.5474 -0.1844 -0.5429
 7479TIP3    H143928   4.673   4.825   2.283  0.3605  1.4602  1.7705
 7479TIP3    H243929   4.535   4.803   2.339 -0.4105 -0.4240 -0.6824
 7480TIP3   OH243930   0.933   0.270   5.163  0.3189 -0.6067 -0.4969
 7480TIP3    H143931   0.882   0.317   5.098  1.3817 -0.3419 -1.1658
 7480TIP3    H243932   1.024   0.287   5.139  0.7429 -0.6098  0.9791
 7481TIP3   OH243933   0.413   5.675   5.116 -0.0103 -0.3246 -0.2647
 7481TIP3    H143934   0.378   5.612   5.180  0.0086 -0.0442  0.0280
 7481TIP3    H243935   0.335   5.720   5.083 -0.1516 -1.4461 -1.4987
 7482TIP3   OH243936   6.361   1.458   3.026 -0.6717  0.0048  0.1823
 7482TIP3    H143937   6.424   1.399   2.986  0.9964  2.1877 -0.6533
 7482TIP3    H243938   6.392   1.468   3.117  0.0513  0.8328 -0.1406
 7483TIP3   OH243939   1.557   5.572   0.895  0.0217 -0.1145  0.0980
 7483TIP3    H143940   1.632   5.623   0.864  0.4776 -0.7290  0.1729
 7483TIP3    H243941   1.486   5.596   0.836  0.8485 -1.2256 -1.4231
 7484TIP3   OH243942   5.840   3.088   1.714 -0.7775 -0.8730  0.2386
 7484TIP3    H143943   5.814   3.130   1.796  2.5572 -0.8097  1.4094
 7484TIP3    H243944   5.757   3.062   1.673 -2.7540  2.2175  1.8800
 7485TIP3   OH243945   6.371   1.970  14.625  0.0009 -0.0654  0.4430
 7485TIP3    H143946   6.442   1.913  14.595  1.1333  0.5404  1.8586
 7485TIP3    H243947   6.379   2.049  14.571  1.6336  0.7678  1.8207
 7486TIP3   OH243948   4.942   0.123   1.036  0.0506  0.1286  0.0821
 7486TIP3    H143949   4.869   0.074   0.999 -0.9751  1.2071  0.6283
 7486TIP3    H243950   4.927   0.121   1.130 -0.0499  1.5332  0.1142
 7487TIP3   OH243951   4.379   2.997   1.437 -0.3268 -0.1004 -0.2110
 7487TIP3    H143952   4.302   2.953   1.402 -0.5274  0.2734 -0.2430
 7487TIP3    H243953   4.453   2.950   1.399 -0.5392 -0.0414 -0.7079
 7488TIP3   OH243954   6.747   0.121  16.215 -0.4937 -0.2508  0.5973
 7488TIP3    H143955   6.655   0.133  16.240 -0.2040  0.5038  1.3144
 7488TIP3    H243956   6.775   0.207  16.184 -0.6142 -0.9435 -1.6825
 7489TIP3   OH243957   1.063   3.710   2.963  0.7554 -0.1597 -0.0348
 7489TIP3    H143958   1.014   3.783   3.002  1.1480 -0.8523  1.8807
 7489TIP3    H243959   0.996   3.653   2.925  0.4814  1.5956 -2.4773
 7490TIP3   OH243960   0.609   3.484  11.258 -0.1755  0.6338 -0.6254
 7490TIP3    H143961   0.588   3.394  11.232  1.4603 -0.3865  1.3504
 7490TIP3    H243962   0.574   3.492  11.347  2.1827  0.9397  0.3311
 7491TIP3   OH243963   0.758   4.840   2.974 -0.5244  0.2604  0.0259
 7491TIP3    H143964   0.777   4.780   2.902  2.0331 -0.4872  1.2041
 7491TIP3    H243965   0.815   4.915   2.958 -1.5716  1.1073  0.1329
 7492TIP3   OH243966   6.768   3.348   1.456 -0.8788 -0.1839  0.1483
 7492TIP3    H143967   6.719   3.404   1.515 -1.6937  0.6157 -1.2190
 7492TIP3    H243968   6.839   3.313   1.509 -0.7596  1.5842  1.2360
 7493TIP3   OH243969   4.375   6.832   2.235  0.4662  0.2176 -0.3488
 7493TIP3    H143970   4.398   6.924   2.246 -3.1840  1.0878  1.6039
 7493TIP3    H243971   4.372   6.797   2.324 -0.1034 -1.2216 -0.9003
 7494TIP3   OH243972   6.548   6.358  11.469  0.7086  0.1036 -0.7906
 7494TIP3    H143973   6.639   6.350  11.497  0.6061 -2.0805 -0.9346
 7494TIP3    H243974   6.550   6.346  11.374  0.4402  1.9737 -1.0739
 7495TIP3   OH243975   5.427   6.491  15.574  0.8401 -0.0637 -0.2630
 7495TIP3    H143976   5.422   6.530  15.661  1.6112 -0.1797 -0.1552
 7495TIP3    H243977   5.414   6.564  15.514 -1.3204 -0.2392 -0.0659
 7496TIP3   OH243978   0.567   5.374  15.383 -0.0006 -0.6616 -0.7550
 7496TIP3    H143979   0.492   5.314  15.387 -0.1908 -0.3550  1.0578
 7496TIP3    H243980   0.608   5.355  15.298 -1.9149 -1.0735 -1.6443
 7497TIP3   OH243981   3.916   2.006   6.617 -0.3211 -0.4457  0.4871
 7497TIP3    H143982   3.883   2.087   6.656 -1.3041  0.0040 -1.1753
 7497TIP3    H243983   3.913   2.022   6.522 -0.0004 -2.2270  0.1409
 7498TIP3   OH243984   0.949   4.910  12.875  0.0050  0.1722 -0.4117
 7498TIP3    H143985   0.870   4.964  12.878  0.1099  0.2805  0.5386
 7498TIP3    H243986   1.003   4.942  12.947 -0.5479 -2.1175  1.1397
 7499TIP3   OH243987   6.814   0.480   4.950  0.2012 -0.1805  1.1790
 7499TIP3    H143988   6.734   0.473   4.897  0.6052 -1.0450  0.6657
 7499TIP3    H243989   6.881   0.436   4.898  0.9912  0.4463  1.6568
 7500TIP3   OH243990   3.514   6.112   4.359 -0.9708  0.2962 -0.3217
 7500TIP3    H143991   3.452   6.079   4.424  0.9763 -1.7420  0.6233
 7500TIP3    H243992   3.599   6.080   4.388  0.6574  3.2450 -1.3633
 7501TIP3   OH243993   3.214   3.913  15.105  0.4571  0.5909 -0.4630
 7501TIP3    H143994   3.125   3.879  15.111  1.3591 -2.0035 -0.4433
 7501TIP3    H243995   3.231   3.951  15.192  0.1030 -1.0496  0.3811
 7502TIP3   OH243996   6.263   1.475  15.417 -0.5168  0.1540 -0.5064
 7502TIP3    H143997   6.221   1.403  15.465 -1.7882  0.2252 -1.4557
 7502TIP3    H243998   6.329   1.432  15.362  0.3161 -0.0197  0.5904
 7503TIP3   OH243999   5.510   6.666  14.233 -0.0606 -0.3274 -0.2155
 7503TIP3    H144000   5.470   6.687  14.149  0.0949  0.5376 -0.0827
 7503TIP3    H244001   5.578   6.732  14.244 -1.8746  1.3340  1.8556
 7504TIP3   OH244002   2.080   4.929   3.857  0.3956  0.1246  0.2583
 7504TIP3    H144003   2.009   4.873   3.826  0.6748  0.0131 -0.1863
 7504TIP3    H244004   2.079   5.005   3.798  1.2423 -0.3208 -0.3461
 7505TIP3   OH244005   0.529   6.457   0.330  0.1609 -0.4485 -0.3445
 7505TIP3    H144006   0.580   6.420   0.258 -1.0024  0.3724 -1.6398
 7505TIP3    H244007   0.438   6.446   0.304 -0.2672  1.1318  0.3169
 7506TIP3   OH244008   5.868   3.535  13.762 -0.4411  0.6829 -0.2227
 7506TIP3    H144009   5.944   3.476  13.769 -0.5734  0.4252 -0.9348
 7506TIP3    H244010   5.833   3.538  13.851 -0.7316 -0.7220 -0.2598
 7507TIP3   OH244011   3.005   3.845   3.996 -0.3264  0.5521 -0.2969
 7507TIP3    H144012   2.912   3.821   3.987  0.8646 -4.2605 -2.7371
 7507TIP3    H244013   3.017   3.915   3.932 -1.9986  0.2108 -1.0527
 7508TIP3   OH244014   2.277   0.582   5.173 -0.4458  0.1856  0.3142
 7508TIP3    H144015   2.330   0.544   5.103 -0.1640  0.8864  0.1407
 7508TIP3    H244016   2.336   0.587   5.248 -0.9044 -1.0852  0.7858
 7509TIP3   OH244017   4.838   5.979   2.672  0.3540 -0.1225 -0.2215
 7509TIP3    H144018   4.934   5.980   2.666  0.6355  1.5670  2.7143
 7509TIP3    H244019   4.818   5.907   2.732 -0.4607 -1.7302 -2.2973
 7510TIP3   OH244020   2.872   1.031  15.027  0.2747  0.2682  0.0314
 7510TIP3    H144021   2.860   0.969  14.955 -1.0831  2.4212 -1.7200
 7510TIP3    H244022   2.884   1.116  14.984 -0.2167  1.5892  2.3369
 7511TIP3   OH244023   5.805   3.988   3.519 -0.4225 -0.0142 -0.2388
 7511TIP3    H144024   5.737   3.953   3.461  0.7995 -0.1639 -1.6338
 7511TIP3    H244025   5.874   4.018   3.460  0.0654  1.5933  1.0710
 7512TIP3   OH244026   2.084   3.869   6.002  0.2323  0.2880  0.0120
 7512TIP3    H144027   2.001   3.822   5.988  0.5873  0.1734 -2.0291
 7512TIP3    H244028   2.129   3.818   6.069 -0.6487 -0.6020 -0.0448
 7513TIP3   OH244029   3.059   4.211  11.818  0.4086 -0.3355  0.3898
 7513TIP3    H144030   3.032   4.123  11.792  0.3171 -0.1451 -0.1678
 7513TIP3    H244031   3.128   4.197  11.883  0.1277 -0.8149  0.5919
 7514TIP3   OH244032   0.058   5.524   1.556 -0.3443  0.0677  0.2789
 7514TIP3    H144033   0.025   5.598   1.505  2.3511  0.6738 -0.7441
 7514TIP3    H244034   0.117   5.563   1.620 -0.8521 -1.0188  1.4418
 7515TIP3   OH244035   4.847   0.731   0.143 -0.5506 -0.4054  0.2704
 7515TIP3    H144036   4.807   0.758   0.061 -1.9781 -1.1947  0.6722
 7515TIP3    H244037   4.940   0.753   0.133 -0.8552  0.3441 -1.1773
 7516TIP3   OH244038   0.175   2.591   1.536  0.1403 -0.5472  0.7145
 7516TIP3    H144039   0.093   2.567   1.578  0.1801  0.1254  1.1865
 7516TIP3    H244040   0.222   2.643   1.602 -0.4790  1.9034 -0.6796
 7517TIP3   OH244041   3.583   6.654  12.867  0.1449 -0.7384  0.0534
 7517TIP3    H144042   3.561   6.656  12.961  2.0481 -1.1983  0.5626
 7517TIP3    H244043   3.501   6.634  12.823 -1.1820  1.2012  1.4693
 7518TIP3   OH244044   0.783   3.200   2.430  0.2134  0.2778  0.0172
 7518TIP3    H144045   0.698   3.240   2.450  0.1634 -0.0897  0.5608
 7518TIP3    H244046   0.779   3.114   2.472  0.0849 -0.5538 -1.6317
 7519TIP3   OH244047   5.891   2.132   1.308  0.3728  0.5241  0.2630
 7519TIP3    H144048   5.878   2.206   1.367  0.2767  0.0671  0.8233
 7519TIP3    H244049   5.959   2.079   1.350  0.1066  0.0521  0.1070
 7520TIP3   OH244050   6.103   6.530  12.891 -0.7664 -0.2065 -0.4145
 7520TIP3    H144051   6.034   6.482  12.845 -0.2856 -0.7125 -0.6194
 7520TIP3    H244052   6.162   6.558  12.821 -0.2559 -0.6130 -0.1494
 7521TIP3   OH244053   1.887   3.374   4.460 -0.1594  0.1895 -0.4097
 7521TIP3    H144054   1.793   3.391   4.448 -0.5730 -1.4583  0.1921
 7521TIP3    H244055   1.920   3.353   4.373 -0.9581 -1.8140 -0.2872
 7522TIP3   OH244056   0.572   0.499  15.792 -0.1530 -0.2473  0.5411
 7522TIP3    H144057   0.528   0.440  15.854 -2.0871 -1.7133 -2.0414
 7522TIP3    H244058   0.659   0.461  15.780 -0.3869 -0.9438  1.0036
 7523TIP3   OH244059   0.640   6.540  16.920  0.5855  1.0509  0.1953
 7523TIP3    H144060   0.617   6.488  16.844 -0.1748  0.6938  0.6601
 7523TIP3    H244061   0.725   6.507  16.948 -0.1431 -0.3652  0.8355
 7524TIP3   OH244062   2.863   4.385   4.895 -0.4550  0.1323 -0.5144
 7524TIP3    H144063   2.950   4.423   4.900 -0.5028  0.0887  1.9046
 7524TIP3    H244064   2.865   4.310   4.956 -2.0478 -0.0935 -0.6729
 7525TIP3   OH244065   5.330   3.651   3.933 -0.5088  0.3803 -0.1540
 7525TIP3    H144066   5.387   3.699   3.873 -0.2587  1.6102  1.0166
 7525TIP3    H244067   5.350   3.559   3.916  0.2353  0.7251 -1.2825
 7526TIP3   OH244068   2.188   0.103   4.662 -0.6371  0.3585  0.2774
 7526TIP3    H144069   2.196   0.193   4.633  0.4445 -0.3504 -1.8387
 7526TIP3    H244070   2.241   0.098   4.742 -1.1647  1.6945  0.7235
 7527TIP3   OH244071   2.727   1.771  11.797  0.0741 -0.2486 -0.5130
 7527TIP3    H144072   2.802   1.823  11.767  0.6683  0.4733  1.9899
 7527TIP3    H244073   2.656   1.834  11.806 -0.0126 -0.3971 -0.1505
 7528TIP3   OH244074   5.683   0.733  11.221 -0.0566  0.4751 -0.3814
 7528TIP3    H144075   5.674   0.652  11.270 -0.3338  1.0947  0.6159
 7528TIP3    H244076   5.744   0.712  11.150  0.7306 -0.2984  0.5114
 7529TIP3   OH244077   1.147   6.502  16.217  0.1008  0.0535  0.8429
 7529TIP3    H144078   1.225   6.527  16.168 -0.4224  0.1335  0.0392
 7529TIP3    H244079   1.181   6.458  16.295  0.9841  1.2502  1.1713
 7530TIP3   OH244080   6.664   3.321  11.261 -0.0924 -0.2180  0.1022
 7530TIP3    H144081   6.738   3.276  11.302 -0.0078 -1.3642 -1.2431
 7530TIP3    H244082   6.697   3.346  11.174 -1.4413 -1.2181 -0.7298
 7531TIP3   OH244083   2.296   4.694   5.047 -0.5957 -0.3066  0.2929
 7531TIP3    H144084   2.276   4.602   5.066 -2.5304  0.0001 -0.0779
 7531TIP3    H244085   2.357   4.690   4.974 -0.4782 -1.3023  0.4270
 7532TIP3   OH244086   6.507   6.303  15.302  0.4502  0.0144 -0.6704
 7532TIP3    H144087   6.555   6.370  15.253 -0.6225  0.7120 -0.8045
 7532TIP3    H244088   6.447   6.353  15.358 -1.0580 -0.8285 -1.4706
 7533TIP3   OH244089   4.840   6.137   4.946 -0.5286 -0.0264 -0.3061
 7533TIP3    H144090   4.865   6.137   5.039  1.2651  0.1460 -0.7590
 7533TIP3    H244091   4.812   6.048   4.929 -2.3980  0.3005  0.7568
 7534TIP3   OH244092   3.040   5.243   4.566 -0.1773  0.1365 -0.1110
 7534TIP3    H144093   3.049   5.148   4.572 -0.7925  0.1174  0.6110
 7534TIP3    H244094   2.951   5.261   4.596 -0.4084  0.8639 -1.1402
 7535TIP3   OH244095   3.812   2.816   1.588 -0.0268  0.1634  0.0422
 7535TIP3    H144096   3.779   2.867   1.514 -2.6158 -1.2814  0.0993
 7535TIP3    H244097   3.894   2.777   1.556 -0.8628 -0.0752 -1.9286
 7536TIP3   OH244098   0.749   1.342   4.926  0.4409 -0.9125 -0.0709
 7536TIP3    H144099   0.812   1.411   4.905  1.3133 -1.9626 -1.0374
 7536TIP3    H244100   0.773   1.269   4.868 -2.9743 -0.6562 -2.0324
 7537TIP3   OH244101   2.348   4.256   5.131  0.1683 -0.1415  0.4615
 7537TIP3    H144102   2.433   4.224   5.162 -0.3559 -0.3529  1.7641
 7537TIP3    H244103   2.367   4.295   5.046  1.8389  1.0555  1.3191
 7538TIP3   OH244104   2.247   4.869  12.971  0.0731 -0.1995  0.3442
 7538TIP3    H144105   2.300   4.940  12.936  0.3824 -1.0902 -1.1162
 7538TIP3    H244106   2.304   4.825  13.033 -0.4651  1.3844  2.0388
 7539TIP3   OH244107   3.440   5.712   1.270 -0.0988  0.0931 -0.1802
 7539TIP3    H144108   3.452   5.807   1.274  3.6693 -0.0723 -2.7339
 7539TIP3    H244109   3.381   5.699   1.196 -0.2051  0.4261 -0.1578
 7540TIP3   OH244110   6.252   5.395  16.927  0.5684 -0.1776  0.1027
 7540TIP3    H144111   6.208   5.336  16.988  2.1260 -2.4357 -0.7935
 7540TIP3    H244112   6.240   5.482  16.965 -0.9591 -1.1544  2.0680
 7541TIP3   OH244113   6.063   3.869  15.848 -0.0274  0.2479 -0.4912
 7541TIP3    H144114   5.972   3.863  15.878 -0.4920  0.5847 -1.7758
 7541TIP3    H244115   6.080   3.785  15.806  0.3770  0.0550  0.0498
 7542TIP3   OH244116   2.474   5.386  11.919 -0.0073 -0.3443  0.0582
 7542TIP3    H144117   2.386   5.366  11.951 -0.7295  0.1794 -1.4995
 7542TIP3    H244118   2.481   5.337  11.837  1.0672 -0.1928  0.0520
 7543TIP3   OH244119   1.887   3.485   5.105 -0.3226 -0.1290  0.1958
 7543TIP3    H144120   1.860   3.564   5.151  0.1423 -1.0188  2.0665
 7543TIP3    H244121   1.866   3.503   5.013 -2.6584  1.1252  0.9033
 7544TIP3   OH244122   6.277   4.737   2.304  0.7284 -0.4374  0.1869
 7544TIP3    H144123   6.299   4.649   2.336 -2.8172 -1.1015  1.2975
 7544TIP3    H244124   6.249   4.785   2.382 -0.6007  0.5294 -0.8327
 7545TIP3   OH244125   2.403   4.565  12.577  0.1829  0.1627 -0.3697
 7545TIP3    H144126   2.442   4.497  12.522  2.9221  1.0439  0.2946
 7545TIP3    H244127   2.432   4.647  12.536 -1.1713  0.9209  0.1218
 7546TIP3   OH244128   4.553   1.593  16.646 -0.1342 -0.4469  0.0560
 7546TIP3    H144129   4.495   1.658  16.686  0.5591 -0.7712  1.6788
 7546TIP3    H244130   4.638   1.610  16.686  0.2283 -1.8585 -0.0750
 7547TIP3   OH244131   5.565   3.722  14.207  0.1188 -0.2806 -0.2200
 7547TIP3    H144132   5.621   3.781  14.157 -1.5000 -0.0271 -1.8692
 7547TIP3    H244133   5.522   3.778  14.272  0.1519 -0.0474 -0.3995
 7548TIP3   OH244134   0.417   1.010  12.922 -0.0925 -0.4624  0.1364
 7548TIP3    H144135   0.507   0.994  12.952  0.8911  0.1205 -2.1962
 7548TIP3    H244136   0.392   0.929  12.878 -0.2529 -0.2561 -0.1597
 7549TIP3   OH244137   3.474   3.789   4.693 -0.0238  0.2482 -0.4541
 7549TIP3    H144138   3.525   3.841   4.632 -0.8341  1.5045 -0.1047
 7549TIP3    H244139   3.437   3.853   4.754  0.8056 -0.9736  1.4036
 7550TIP3   OH244140   1.268   2.420  12.265  0.2297  0.4884 -0.3172
 7550TIP3    H144141   1.318   2.442  12.186 -0.5495  0.9915 -0.6802
 7550TIP3    H244142   1.192   2.371  12.233  0.3525 -0.0548  0.2040
 7551TIP3   OH244143   0.494   2.260   6.046  0.2832  0.2679  0.0038
 7551TIP3    H144144   0.523   2.190   5.988 -0.4805  0.5590 -0.7433
 7551TIP3    H244145   0.416   2.224   6.089  0.2854  0.4164  0.1316
 7552TIP3   OH244146   0.891   3.493  13.720  0.5292 -0.3101 -0.0958
 7552TIP3    H144147   0.874   3.413  13.769  0.7474 -0.8812 -0.9346
 7552TIP3    H244148   0.975   3.477  13.677  0.3990  0.2296 -0.5621
 7553TIP3   OH244149   6.337   3.707   0.362  0.0076  0.4265 -0.0698
 7553TIP3    H144150   6.389   3.639   0.405 -1.1171 -0.2448  0.2741
 7553TIP3    H244151   6.378   3.718   0.277 -0.1191 -1.1226 -0.3728
 7554TIP3   OH244152   3.028   2.192  12.476 -0.4196 -0.5364  0.6958
 7554TIP3    H144153   3.105   2.249  12.477  0.0355 -1.0835 -0.7569
 7554TIP3    H244154   3.057   2.112  12.433 -2.1030 -0.2828 -1.0597
 7555TIP3   OH244155   1.217   2.383   2.664  0.0743 -0.2119  0.0594
 7555TIP3    H144156   1.194   2.469   2.700  1.2945  0.3880 -0.5142
 7555TIP3    H244157   1.279   2.403   2.594  1.7444 -1.6593  1.0520
 7556TIP3   OH244158   3.064   6.344  12.313  0.1087  0.1667 -0.3731
 7556TIP3    H144159   3.124   6.271  12.298  0.4085 -0.0212  1.5063
 7556TIP3    H244160   3.008   6.345  12.235 -0.3080 -2.4612 -0.2138
 7557TIP3   OH244161   3.079   3.115   2.623  0.1243 -0.1376  0.0999
 7557TIP3    H144162   3.088   3.088   2.714  2.1318 -0.5123 -0.1529
 7557TIP3    H244163   3.084   3.033   2.573 -0.4637  0.1123 -0.3851
 7558TIP3   OH244164   2.332   4.655  12.043  0.3448  0.2455 -0.4023
 7558TIP3    H144165   2.325   4.745  12.076  1.3854  0.5349 -0.9054
 7558TIP3    H244166   2.274   4.604  12.099  0.0890  1.1559  0.1863
 7559TIP3   OH244167   5.604   2.599  10.921  0.3464 -0.3012  0.4432
 7559TIP3    H144168   5.654   2.524  10.952  1.3824 -0.2779 -1.0106
 7559TIP3    H244169   5.656   2.633  10.848 -0.8108  0.9717  0.1658
 7560TIP3   OH244170   5.071   2.483  14.954 -0.2328 -0.1531  0.2317
 7560TIP3    H144171   4.994   2.444  14.997 -1.9109  1.4882 -1.0849
 7560TIP3    H244172   5.089   2.425  14.881 -0.5075 -0.3384  0.3070
 7561TIP3   OH244173   2.168   1.756  16.736  0.4761 -0.0431  0.0176
 7561TIP3    H144174   2.255   1.723  16.712  1.2207 -0.1262  2.5140
 7561TIP3    H244175   2.181   1.849  16.750 -0.0316  0.0871 -0.3772
 7562TIP3   OH244176   1.107   5.668   4.580  0.1210 -0.0801  0.3226
 7562TIP3    H144177   1.189   5.619   4.570 -0.7223 -1.2825 -1.1359
 7562TIP3    H244178   1.131   5.758   4.557  1.5361  0.1165  2.3216
 7563TIP3   OH244179   1.563   5.981   0.767  0.0663 -0.0240  0.5689
 7563TIP3    H144180   1.567   6.066   0.810  0.5859  1.2893 -1.9237
 7563TIP3    H244181   1.472   5.954   0.774  0.1644  0.0008  2.6078
 7564TIP3   OH244182   2.354   6.276  15.637  0.3417  0.1795 -0.0030
 7564TIP3    H144183   2.274   6.262  15.586  0.0896  0.1301  0.3978
 7564TIP3    H244184   2.354   6.205  15.702  1.5792 -0.8380 -1.0489
 7565TIP3   OH244185   3.879   6.171  11.889  0.1880  0.7669  0.1224
 7565TIP3    H144186   3.895   6.220  11.808 -0.4164 -0.6383 -0.8894
 7565TIP3    H244187   3.868   6.239  11.956 -1.3869  2.0849 -1.3475
 7566TIP3   OH244188   6.324   0.868   5.118 -0.4791  0.2330  0.1815
 7566TIP3    H144189   6.388   0.896   5.052  1.2811  1.4202  2.2665
 7566TIP3    H244190   6.306   0.776   5.096  1.1656  0.1542 -1.0743
 7567TIP3   OH244191   0.486   1.086   0.566  0.3790 -0.9232 -0.1743
 7567TIP3    H144192   0.544   1.149   0.608  0.8982 -1.5586  0.0809
 7567TIP3    H244193   0.398   1.111   0.595  0.7182 -1.3024  1.2500
 7568TIP3   OH244194   0.766   3.950  15.278  0.4409 -0.2245  0.1593
 7568TIP3    H144195   0.812   4.019  15.230  1.8905 -2.1899 -1.4328
 7568TIP3    H244196   0.742   3.885  15.211  2.0115 -2.8142  1.9181
 7569TIP3   OH244197   0.968   2.133   1.279  0.4053 -0.2656 -0.0412
 7569TIP3    H144198   1.049   2.091   1.251  0.0703  0.3498 -2.1062
 7569TIP3    H244199   0.964   2.214   1.227 -0.8333  0.4221  1.0674
 7570TIP3   OH244200   1.196   6.350  12.905 -0.3660  0.1628 -0.3508
 7570TIP3    H144201   1.136   6.423  12.889 -0.5283  0.2292  0.5249
 7570TIP3    H244202   1.195   6.339  13.000 -0.9548 -1.4911 -0.5181
 7571TIP3   OH244203   6.702   1.548  14.222 -0.4445  0.0238  0.0550
 7571TIP3    H144204   6.684   1.563  14.314 -1.5632 -1.7964  0.1717
 7571TIP3    H244205   6.785   1.500  14.221 -0.1310  0.5449  0.0417
 7572TIP3   OH244206   4.290   5.260   1.860  0.4401  0.5463  0.1087
 7572TIP3    H144207   4.217   5.269   1.921  0.0970 -0.3797 -0.1532
 7572TIP3    H244208   4.337   5.344   1.866  1.1440  0.0611  2.5601
 7573TIP3   OH244209   1.007   5.563   1.281  0.3359 -0.1656 -0.1305
 7573TIP3    H144210   1.062   5.485   1.292 -0.9695 -1.1651 -0.3894
 7573TIP3    H244211   0.974   5.582   1.368 -0.9155 -1.1309 -0.3698
 7574TIP3   OH244212   0.396   6.528   6.406 -0.1429 -0.4557 -0.9737
 7574TIP3    H144213   0.468   6.583   6.374  1.1231 -1.3890  0.1464
 7574TIP3    H244214   0.417   6.441   6.374 -0.9601 -0.6956 -0.8773
 7575TIP3   OH244215   2.887   1.641  13.529  0.0433 -0.6702 -0.2911
 7575TIP3    H144216   2.936   1.722  13.544  1.2503 -1.1703 -1.3716
 7575TIP3    H244217   2.826   1.637  13.603  2.4951 -0.6674  1.8824
 7576TIP3   OH244218   3.409   6.784  16.656 -0.0838  0.2073 -0.2231
 7576TIP3    H144219   3.362   6.753  16.579  0.8312  3.0710 -2.0889
 7576TIP3    H244220   3.476   6.718  16.671 -0.0623 -0.2704 -2.1200
 7577TIP3   OH244221   1.405   3.491   4.789 -0.1678 -0.1767 -0.2310
 7577TIP3    H144222   1.450   3.410   4.813 -0.7495 -0.1532  1.0574
 7577TIP3    H244223   1.464   3.561   4.817  1.0350 -0.0995 -2.7329
 7578TIP3   OH244224   5.053   0.170   4.128  0.5702 -0.6938 -0.5194
 7578TIP3    H144225   5.052   0.262   4.154 -0.2487 -0.3155 -1.7596
 7578TIP3    H244226   5.010   0.124   4.200 -1.7989  0.3340 -1.1707
 7579TIP3   OH244227   2.234   4.918  16.789 -0.0874  0.2787 -0.6943
 7579TIP3    H144228   2.280   4.905  16.706 -1.8053 -0.8010 -1.5227
 7579TIP3    H244229   2.204   5.009  16.786  2.1539  1.1119  0.0021
 7580TIP3   OH244230   5.772   1.418  13.830 -0.3462 -0.3984 -0.0600
 7580TIP3    H144231   5.849   1.386  13.877 -0.3651  0.5181  0.6225
 7580TIP3    H244232   5.705   1.352  13.845 -0.2619 -0.2607  0.9680
 7581TIP3   OH244233   2.093   0.336   1.735 -0.0988 -0.7436  0.1620
 7581TIP3    H144234   2.000   0.343   1.714 -0.0832 -0.7007  0.1066
 7581TIP3    H244235   2.095   0.288   1.818 -0.2511  0.5511  0.9370
 7582TIP3   OH244236   3.759   1.425   5.501 -0.2827  0.0186  0.2292
 7582TIP3    H144237   3.752   1.483   5.577  0.4518  1.9990 -1.1116
 7582TIP3    H244238   3.673   1.432   5.459 -0.1521  0.2662 -0.0021
 7583TIP3   OH244239   4.924   1.047   2.627  0.3635 -0.1196  0.2553
 7583TIP3    H144240   4.852   1.001   2.585 -0.5593 -0.4335  2.0703
 7583TIP3    H244241   5.000   0.990   2.615 -0.6322 -1.9434  1.9720
 7584TIP3   OH244242   0.983   4.463  16.486  0.5459 -0.3181 -0.1470
 7584TIP3    H144243   1.040   4.518  16.541  1.9602 -1.5112 -0.3373
 7584TIP3    H244244   0.915   4.433  16.546  1.8677 -1.3129  0.9549
 7585TIP3   OH244245   1.450   1.298  13.353 -0.8530 -0.1777  0.4934
 7585TIP3    H144246   1.519   1.233  13.343 -0.3861  0.2365  0.9950
 7585TIP3    H244247   1.474   1.347  13.431 -1.9718 -0.3481  0.9638
 7586TIP3   OH244248   2.148   5.318  16.571 -0.1130 -0.4896 -0.0167
 7586TIP3    H144249   2.202   5.365  16.508  1.1734 -1.4006  0.3614
 7586TIP3    H244250   2.088   5.266  16.518  0.3204 -0.5243 -0.4752
 7587TIP3   OH244251   4.452   5.346  15.393 -0.1127  0.0740 -0.3474
 7587TIP3    H144252   4.474   5.277  15.330  1.4870 -0.4150  0.7013
 7587TIP3    H244253   4.401   5.409  15.341 -0.6484 -1.3124 -1.6080
 7588TIP3   OH244254   3.293   4.182   3.210  0.0597  0.0090  0.1300
 7588TIP3    H144255   3.228   4.132   3.259  0.3505  0.6090  1.1583
 7588TIP3    H244256   3.254   4.195   3.124 -0.8041 -0.3998  0.4544
 7589TIP3   OH244257   5.958   4.267  17.032  0.0044 -0.0192  0.0221
 7589TIP3    H144258   6.006   4.184  17.029 -0.9751 -0.5686 -1.1600
 7589TIP3    H244259   6.024   4.332  17.057  0.9933 -1.0000  0.0371
 7590TIP3   OH244260   5.099   2.283  11.204  0.3963 -0.1888  0.2956
 7590TIP3    H144261   5.056   2.317  11.125  1.9840 -0.1215 -0.5935
 7590TIP3    H244262   5.143   2.203  11.175  0.5915 -0.4396  1.2424
 7591TIP3   OH244263   0.608   6.836  13.284 -0.0375  0.3653 -0.6023
 7591TIP3    H144264   0.609   6.740  13.278  4.3099  0.0254  1.6941
 7591TIP3    H244265   0.551   6.854  13.359  0.5624 -0.6227  0.1230
 7592TIP3   OH244266   0.822   4.691  14.728 -0.8443 -0.4031 -0.0737
 7592TIP3    H144267   0.865   4.618  14.773  2.2490  0.3396 -1.5081
 7592TIP3    H244268   0.794   4.654  14.644  1.3939  0.0625 -1.1203
 7593TIP3   OH244269   3.959   3.373   4.210  0.1258 -0.3999 -0.0252
 7593TIP3    H144270   3.883   3.338   4.257  0.1304  0.5804  0.7481
 7593TIP3    H244271   3.934   3.369   4.118 -0.2692 -1.4666  0.1149
 7594TIP3   OH244272   4.665   3.171  14.435  0.6965 -0.4870 -0.6075
 7594TIP3    H144273   4.684   3.158  14.528  0.8192 -2.0132 -0.8248
 7594TIP3    H244274   4.615   3.252  14.433 -0.7173 -1.2395  0.9892
 7595TIP3   OH244275   1.161   3.000   2.111  0.3988  0.2488  0.0387
 7595TIP3    H144276   1.240   2.981   2.161 -0.2768  1.6148  1.7678
 7595TIP3    H244277   1.115   2.916   2.104  0.7627 -0.0682  1.3111
 7596TIP3   OH244278   1.003   3.807  15.104  0.3809  0.3730 -0.2967
 7596TIP3    H144279   0.928   3.760  15.140  1.3569 -2.1481 -1.3265
 7596TIP3    H244280   0.965   3.863  15.035 -0.5455 -1.3730 -1.2779
 7597TIP3   OH244281   4.304   3.336   4.333 -0.0248  0.0195 -0.2388
 7597TIP3    H144282   4.245   3.411   4.324 -0.4507 -0.0388  1.7159
 7597TIP3    H244283   4.381   3.361   4.283 -1.0904  0.7292 -1.6134
 7598TIP3   OH244284   6.027   6.185   6.754  0.4390 -0.1143  0.2310
 7598TIP3    H144285   6.079   6.168   6.676  0.4511 -0.4136  0.3022
 7598TIP3    H244286   6.090   6.212   6.820  0.4713 -0.2153  0.2410
 7599TIP3   OH244287   6.557   3.270  17.167  0.4870 -0.4051 -0.0524
 7599TIP3    H144288   6.517   3.195  17.123 -0.4833 -0.8194  1.4961
 7599TIP3    H244289   6.484   3.326  17.191  0.8846 -0.6417  1.8454
 7600TIP3   OH244290   2.639   3.401  12.039  0.1795 -0.1040  0.0474
 7600TIP3    H144291   2.722   3.422  11.996  0.3601 -0.9609 -0.0471
 7600TIP3    H244292   2.663   3.339  12.109 -0.2685  0.3208  0.5895
 7601TIP3   OH244293   1.076   6.531  13.695  0.1390  0.1964  0.1655
 7601TIP3    H144294   0.981   6.527  13.687  0.0385  0.6203  1.0807
 7601TIP3    H244295   1.099   6.618  13.662  0.3268 -0.2682 -0.9940
 7602TIP3   OH244296   0.598   5.704  11.985  0.0845 -0.3526 -0.4401
 7602TIP3    H144297   0.643   5.738  12.062 -1.2196  1.1980 -0.3187
 7602TIP3    H244298   0.521   5.658  12.020 -0.8188  0.8387 -0.7977
 7603TIP3   OH244299   5.088   3.847  12.531 -0.1115  0.1906 -0.3700
 7603TIP3    H144300   5.139   3.803  12.463  1.5299 -0.3987  1.1698
 7603TIP3    H244301   5.018   3.785  12.553  0.1948 -0.2167 -0.5391
 7604TIP3   OH244302   4.863   2.314  11.368 -0.7122  0.2653  0.3725
 7604TIP3    H144303   4.945   2.315  11.318 -1.1012  0.7831 -0.2790
 7604TIP3    H244304   4.849   2.222  11.389 -0.6041  0.0116 -0.6047
 7605TIP3   OH244305   1.034   0.584   6.219  0.5730 -0.1804  0.4300
 7605TIP3    H144306   0.977   0.652   6.181  1.5530 -0.1077 -0.9761
 7605TIP3    H244307   0.996   0.567   6.305 -2.0012 -0.6391 -0.7076
 7606TIP3   OH244308   1.704   3.460  12.135  0.5325 -0.1239  0.4032
 7606TIP3    H144309   1.745   3.526  12.079  1.8160 -0.1185  1.3105
 7606TIP3    H244310   1.691   3.385  12.077 -0.5820  0.7510 -0.5413
 7607TIP3   OH244311   1.768   0.983   1.396  0.4679  0.2744  0.3928
 7607TIP3    H144312   1.799   0.900   1.360 -3.6487 -0.4845 -2.0906
 7607TIP3    H244313   1.799   1.049   1.333  1.0708  0.2363  0.6386
 7608TIP3   OH244314   2.803   6.077   5.662 -0.1066  0.5454  0.1301
 7608TIP3    H144315   2.877   6.016   5.669  0.3272  0.9410 -0.7040
 7608TIP3    H244316   2.742   6.049   5.729 -0.7363 -1.9280 -1.3264
 7609TIP3   OH244317   2.767   6.723   0.807  0.7665 -0.1258 -0.8113
 7609TIP3    H144318   2.692   6.764   0.763 -0.5517  1.4135  2.5142
 7609TIP3    H244319   2.829   6.794   0.821  0.0499  0.0697  1.8562
 7610TIP3   OH244320   1.932   2.461   0.161  0.7122  0.1805 -0.3206
 7610TIP3    H144321   1.966   2.527   0.101  0.6561  0.2191 -0.3093
 7610TIP3    H244322   1.956   2.493   0.248 -0.9101  1.1299 -0.1676
 7611TIP3   OH244323   6.251   0.632   0.349  0.2400  0.7798 -0.4976
 7611TIP3    H144324   6.335   0.677   0.341 -0.1572  1.6896  0.1450
 7611TIP3    H244325   6.190   0.701   0.378 -0.0946 -0.4438  2.0478
 7612TIP3   OH244326   2.801   4.163  16.702  0.0691 -0.0055 -0.0840
 7612TIP3    H144327   2.829   4.248  16.737 -2.8153  0.8029  0.5110
 7612TIP3    H244328   2.803   4.104  16.778  2.5015 -0.7091 -0.5851
 7613TIP3   OH244329   6.078   0.872   2.914 -0.0736  0.0637 -0.4386
 7613TIP3    H144330   6.007   0.839   2.969 -0.3290  1.0952 -0.1104
 7613TIP3    H244331   6.077   0.967   2.929  0.5595  0.2388 -1.3990
 7614TIP3   OH244332   4.328   3.385  13.933 -0.4995 -0.0357 -0.0986
 7614TIP3    H144333   4.365   3.330  14.001 -0.2935 -0.2655 -0.3946
 7614TIP3    H244334   4.233   3.369  13.939 -0.5597  0.5906  0.6851
 7615TIP3   OH244335   0.317   0.164  16.573 -0.6985  0.2303  0.2072
 7615TIP3    H144336   0.345   0.159  16.481 -1.8305  0.1234 -0.1613
 7615TIP3    H244337   0.397   0.177  16.622  0.0154 -0.3568 -0.7476
 7616TIP3   OH244338   1.938   1.421   4.491 -0.1559 -0.6747  0.7535
 7616TIP3    H144339   1.939   1.326   4.483  0.9951 -0.6668  0.6830
 7616TIP3    H244340   1.881   1.450   4.421  0.2775 -1.2659  0.1442
 7617TIP3   OH244341   2.765   3.924   3.506 -0.4963  0.1497  0.1198
 7617TIP3    H144342   2.680   3.931   3.463 -0.5316  0.4946  0.2395
 7617TIP3    H244343   2.744   3.933   3.599 -0.4084 -0.4724  0.2025
 7618TIP3   OH244344   3.562   5.009   5.644  0.0532  0.7206  0.0062
 7618TIP3    H144345   3.488   4.962   5.605  1.3413 -1.8232  0.3883
 7618TIP3    H244346   3.522   5.076   5.699 -1.9820 -0.6073  0.2691
 7619TIP3   OH244347   3.375   3.596   0.942  0.2602 -0.2007  0.4614
 7619TIP3    H144348   3.446   3.613   0.880  0.7945  0.6743  1.2871
 7619TIP3    H244349   3.295   3.618   0.895  0.2240 -3.6878 -1.4334
 7620TIP3   OH244350   6.118   3.056   4.397 -0.4295  0.2964 -0.5412
 7620TIP3    H144351   6.179   2.983   4.405  1.5319  1.9446  0.9394
 7620TIP3    H244352   6.169   3.132   4.425 -3.0473  1.8845  0.2982
 7621TIP3   OH244353   5.965   2.372  12.678 -0.6709 -0.2593 -0.1071
 7621TIP3    H144354   6.034   2.432  12.708 -0.8977 -0.5430  1.0433
 7621TIP3    H244355   5.899   2.429  12.638 -0.8981  0.2867  1.0062
 7622TIP3   OH244356   1.103   4.202  12.104 -0.0830  0.2525  0.4459
 7622TIP3    H144357   1.191   4.163  12.105  0.5059  1.5334  0.2540
 7622TIP3    H244358   1.115   4.289  12.141 -1.1953  0.6236 -0.0246
 7623TIP3   OH244359   0.058   1.617  12.452 -1.1029 -0.9563 -0.2190
 7623TIP3    H144360   0.050   1.624  12.357  1.5455  2.3382 -0.3937
 7623TIP3    H244361  -0.016   1.668  12.486 -1.6658 -1.5707 -0.5048
 7624TIP3   OH244362   3.149   5.066  15.525 -0.3870 -0.3651 -0.1453
 7624TIP3    H144363   3.171   5.158  15.519  0.2076 -0.5239 -0.4441
 7624TIP3    H244364   3.057   5.062  15.500 -0.1203  0.0103 -1.2288
 7625TIP3   OH244365   4.200   5.229  15.513  0.0356 -0.1083 -0.1156
 7625TIP3    H144366   4.145   5.188  15.447  0.9775 -0.8558 -0.4556
 7625TIP3    H244367   4.286   5.237  15.472  0.7701 -1.0505  1.1632
 7626TIP3   OH244368   2.522   5.366   3.540  0.2497 -0.4489 -0.0446
 7626TIP3    H144369   2.428   5.371   3.560 -0.9661  3.5592 -4.7192
 7626TIP3    H244370   2.555   5.454   3.561  2.1275 -0.7228 -1.5697
 7627TIP3   OH244371   5.706   3.412  16.674 -0.0801 -0.0781  0.1992
 7627TIP3    H144372   5.783   3.468  16.674  0.2589 -0.5365  0.2214
 7627TIP3    H244373   5.703   3.376  16.762 -0.8141  0.5960  0.4609
 7628TIP3   OH244374   1.621   2.572   3.843  0.3787  0.3398  0.2303
 7628TIP3    H144375   1.635   2.666   3.850  0.4347  0.3390  0.1256
 7628TIP3    H244376   1.596   2.545   3.932  0.6185  0.4106  0.3198
 7629TIP3   OH244377   5.346   1.415  16.889  0.6776  0.4581 -0.4274
 7629TIP3    H144378   5.317   1.479  16.953 -1.5504 -1.0494  0.1768
 7629TIP3    H244379   5.285   1.424  16.816  0.4565 -0.8017 -0.4166
 7630TIP3   OH244380   3.768   0.971  14.514 -0.1505 -0.3834 -0.2024
 7630TIP3    H144381   3.792   0.902  14.453  0.5475 -0.1396 -0.2098
 7630TIP3    H244382   3.761   1.050  14.460  0.6873 -0.1226  0.0512
 7631TIP3   OH244383   0.877   6.079  12.292  0.0788 -0.2304 -0.1429
 7631TIP3    H144384   0.964   6.116  12.306  0.2828 -0.7084 -0.1140
 7631TIP3    H244385   0.851   6.045  12.377  0.4850 -1.3886 -0.4687
 7632TIP3   OH244386   4.726   5.407   4.850  0.3722 -0.1998 -0.0546
 7632TIP3    H144387   4.728   5.385   4.756  0.6235 -0.7415  0.0716
 7632TIP3    H244388   4.699   5.499   4.852  0.3306 -0.1898 -0.6578
 7633TIP3   OH244389   4.738   2.669  14.159  0.2111  0.4985 -0.5352
 7633TIP3    H144390   4.740   2.712  14.073  0.9326 -0.4845 -1.0246
 7633TIP3    H244391   4.733   2.741  14.221  0.0857  1.2450 -1.3846
 7634TIP3   OH244392   0.090   2.610   3.290  0.0592  0.0627 -0.3506
 7634TIP3    H144393   0.054   2.694   3.263  1.0203  0.1029 -1.6091
 7634TIP3    H244394   0.051   2.593   3.376 -0.4872  1.5670 -0.2798
 7635TIP3   OH244395   2.013   5.585   4.797 -0.3558 -0.7618  0.2201
 7635TIP3    H144396   2.055   5.574   4.712 -1.3240  0.7263 -0.4893
 7635TIP3    H244397   1.956   5.509   4.806  0.5302 -1.4654  0.0355
 7636TIP3   OH244398   1.285   4.010   5.937  0.7676  0.0088 -0.4530
 7636TIP3    H144399   1.370   4.046   5.963  1.0809 -1.4643  0.6544
 7636TIP3    H244400   1.232   4.016   6.017  0.5404 -1.1111 -0.5174
 7637TIP3   OH244401   2.649   1.204   2.617  0.3806 -0.2288  0.0145
 7637TIP3    H144402   2.708   1.252   2.675 -0.6917 -0.9089  1.7371
 7637TIP3    H244403   2.568   1.254   2.619  0.5244  0.1331 -1.5254
 7638TIP3   OH244404   4.735   3.773  11.108  0.3433 -0.5331  0.4547
 7638TIP3    H144405   4.807   3.807  11.160  0.1053 -1.6460  1.5664
 7638TIP3    H244406   4.661   3.768  11.168  0.0370 -1.7768  0.0255
 7639TIP3   OH244407   0.987   3.023  12.514  0.2554 -0.2193  0.2775
 7639TIP3    H144408   1.043   3.007  12.438 -0.2911 -0.8911  0.0156
 7639TIP3    H244409   0.899   2.999  12.485 -0.2522  1.1947  0.5566
 7640TIP3   OH244410   4.989   5.377  14.175 -0.0306 -0.0049 -0.3567
 7640TIP3    H144411   5.073   5.331  14.172 -0.1686 -0.2183 -0.8754
 7640TIP3    H244412   4.940   5.332  14.243  0.3804  0.3031  0.1543
 7641TIP3   OH244413   4.956   5.068  14.258  0.1673 -0.8681  0.6489
 7641TIP3    H144414   4.937   5.048  14.167  2.3452  3.0248 -0.9309
 7641TIP3    H244415   4.880   5.117  14.289  0.6952  0.5431 -0.2062
 7642TIP3   OH244416   2.334   2.372  16.337 -0.2502 -0.3242  0.1648
 7642TIP3    H144417   2.311   2.390  16.246  0.9878 -0.5382 -0.2104
 7642TIP3    H244418   2.393   2.297  16.333 -0.2618 -0.4039  1.1571
 7643TIP3   OH244419   5.491   2.481   2.468  0.0861 -0.5637  0.4241
 7643TIP3    H144420   5.577   2.439   2.472  1.0575  0.7611 -2.7700
 7643TIP3    H244421   5.505   2.567   2.508  0.6530  0.0825 -1.0634
 7644TIP3   OH244422   2.708   2.990  13.441  0.3759 -0.2220  0.6132
 7644TIP3    H144423   2.796   3.026  13.456  0.0658  1.0647 -0.4263
 7644TIP3    H244424   2.652   3.068  13.436 -1.1597 -1.0662  3.0900
 7645TIP3   OH244425   0.893   2.199   3.610  0.1216 -0.1673 -0.2544
 7645TIP3    H144426   0.858   2.110   3.609 -0.5827  0.0884  0.7123
 7645TIP3    H244427   0.890   2.226   3.702  0.4263  0.8123 -0.5138
 7646TIP3   OH244428   6.535   3.870  10.763  0.4907 -0.1246 -0.0135
 7646TIP3    H144429   6.516   3.804  10.696 -2.7812  0.5791  0.0637
 7646TIP3    H244430   6.593   3.933  10.720 -0.2470 -0.5350 -1.6629
 7647TIP3   OH244431   2.623   0.022  11.803  0.1523  0.4350 -0.3781
 7647TIP3    H144432   2.604  -0.035  11.878 -0.2999 -0.0888 -0.8872
 7647TIP3    H244433   2.610   0.110  11.837  0.8436  0.2526  0.4169
 7648TIP3   OH244434   5.554   5.205   3.932 -0.2044  0.2602 -0.3169
 7648TIP3    H144435   5.539   5.111   3.941  1.5236 -0.2486 -1.9533
 7648TIP3    H244436   5.521   5.244   4.013 -1.7192 -1.6445  0.0331
 7649TIP3   OH244437   0.858   4.631  15.810 -0.7094 -0.4421 -0.6392
 7649TIP3    H144438   0.826   4.592  15.891  0.3838 -0.2747 -0.1167
 7649TIP3    H244439   0.817   4.717  15.807 -2.3492 -1.2005 -1.2990
 7650TIP3   OH244440   6.385   2.996  10.562 -0.5969 -0.1128  0.6849
 7650TIP3    H144441   6.365   2.913  10.521 -0.3837 -0.4656  1.2718
 7650TIP3    H244442   6.333   3.061  10.515 -0.1191 -0.4551 -0.3277
 7651TIP3   OH244443   5.830   0.455   4.757  0.6145  0.1868 -0.1188
 7651TIP3    H144444   5.777   0.376   4.767 -0.7264  1.1526  0.6951
 7651TIP3    H244445   5.916   0.422   4.730 -0.4410 -1.3999 -1.8139
 7652TIP3   OH244446   5.117   2.232  15.132  0.2944  0.1208  0.2305
 7652TIP3    H144447   5.049   2.223  15.199  0.4258 -1.7816  0.1567
 7652TIP3    H244448   5.070   2.219  15.049  0.1772  2.2039 -0.0723
 7653TIP3   OH244449   6.116   4.916   3.384  0.3770 -0.5302 -0.1890
 7653TIP3    H144450   6.173   4.889   3.312  1.2659  2.7403 -0.8991
 7653TIP3    H244451   6.173   4.967   3.442 -1.4728  1.7693 -0.2249
 7654TIP3   OH244452   5.245   2.812  14.217  0.4177 -0.2448  0.0249
 7654TIP3    H144453   5.167   2.850  14.259 -0.1711 -2.1203  0.7307
 7654TIP3    H244454   5.287   2.886  14.174 -1.7349  0.8393 -0.3478
 7655TIP3   OH244455   2.700   6.323   3.149  0.0121 -0.1603 -0.2455
 7655TIP3    H144456   2.684   6.388   3.080 -2.9078 -1.2898 -0.7914
 7655TIP3    H244457   2.691   6.239   3.105  0.6514 -0.9331  1.0490
 7656TIP3   OH244458   1.193   4.725   2.207  0.2363  0.0935  0.4169
 7656TIP3    H144459   1.208   4.816   2.233  0.5917  0.3589 -0.6405
 7656TIP3    H244460   1.098   4.716   2.204  0.1108  1.1885 -1.7933
 7657TIP3   OH244461   0.039   6.458   3.675 -0.4877 -0.2244 -0.0476
 7657TIP3    H144462   0.082   6.408   3.744 -0.0171  0.5551  0.2404
 7657TIP3    H244463   0.044   6.549   3.704 -1.8532 -0.0572 -0.2775
 7658TIP3   OH244464   5.589   6.010  12.521  0.7190  0.0232  0.0163
 7658TIP3    H144465   5.593   5.961  12.603 -0.1056 -0.0905 -0.0078
 7658TIP3    H244466   5.677   6.046  12.510  0.8465 -0.0008  0.9253
 7659TIP3   OH244467   3.516   1.616   6.566  0.1104  0.3703  0.1757
 7659TIP3    H144468   3.581   1.673   6.609  0.8305 -0.2873 -0.0097
 7659TIP3    H244469   3.462   1.676   6.515  0.0374  1.0294  0.9983
 7660TIP3   OH244470   2.229   4.911  11.173 -0.0333  0.3057  0.4832
 7660TIP3    H144471   2.262   4.822  11.164 -1.7379 -0.2368 -1.0222
 7660TIP3    H244472   2.268   4.959  11.099 -0.1764  0.4641  0.5090
 7661TIP3   OH244473   6.516   1.669  13.003 -0.2258  0.2064 -0.2859
 7661TIP3    H144474   6.579   1.696  13.069 -0.4569  3.5704 -1.2882
 7661TIP3    H244475   6.431   1.695  13.039 -0.4983  0.6392 -1.2090
 7662TIP3   OH244476   6.238   3.217   5.820  0.4076  0.2736 -0.3112
 7662TIP3    H144477   6.153   3.261   5.824  1.0395  1.4872  0.3423
 7662TIP3    H244478   6.283   3.243   5.901  0.6436 -1.9929  0.3757
 7663TIP3   OH244479   4.178   6.494   1.892 -0.1023  0.4721 -0.3554
 7663TIP3    H144480   4.083   6.503   1.897 -0.0691  0.9577 -0.5504
 7663TIP3    H244481   4.211   6.584   1.896  0.3954  0.2619  0.5979
 7664TIP3   OH244482   5.647   5.321   3.490 -0.3552 -0.2101  0.1004
 7664TIP3    H144483   5.605   5.255   3.545  0.4347 -3.5294 -2.8593
 7664TIP3    H244484   5.740   5.300   3.494 -0.0990  0.6341 -0.9957
 7665TIP3   OH244485   0.018   6.803  12.659 -0.3291  0.2813 -0.2801
 7665TIP3    H144486   0.033   6.719  12.617  0.7860 -0.0554  0.7356
 7665TIP3    H244487   0.063   6.796  12.744  0.0937  2.0107 -0.3185
 7666TIP3   OH244488   3.677   6.789  12.566  0.3330 -0.5923 -0.1446
 7666TIP3    H144489   3.624   6.712  12.585  1.5716 -1.1832  1.0553
 7666TIP3    H244490   3.715   6.772  12.480  0.7052 -1.3960  0.1690
 7667TIP3   OH244491   3.748   3.911  14.898  0.4544 -0.0754 -0.0579
 7667TIP3    H144492   3.799   3.848  14.846  0.5970 -0.4516  0.5306
 7667TIP3    H244493   3.690   3.857  14.951  0.0959  0.3198 -0.0442
 7668TIP3   OH244494   0.748   2.916  14.318 -0.5031 -0.1552 -0.2204
 7668TIP3    H144495   0.823   2.878  14.273  0.3228  0.6170  0.4712
 7668TIP3    H244496   0.716   2.845  14.375 -0.3151 -0.4910 -0.5267
 7669TIP3   OH244497   2.305   3.552  14.540 -0.3412 -0.4273 -0.4884
 7669TIP3    H144498   2.345   3.535  14.455 -0.2232  0.7959 -0.6982
 7669TIP3    H244499   2.332   3.641  14.561  1.2527 -1.3461  1.7239
 7670TIP3   OH244500   6.054   6.720   0.689 -0.0159  0.3047 -0.2105
 7670TIP3    H144501   6.051   6.768   0.606  1.3113 -0.9515 -1.0117
 7670TIP3    H244502   5.966   6.683   0.698 -0.3920  1.0477 -0.6614
 7671TIP3   OH244503   6.332   4.839  14.584 -0.3641  0.2005 -0.3178
 7671TIP3    H144504   6.236   4.844  14.583 -0.3839 -0.1901 -0.6052
 7671TIP3    H244505   6.353   4.797  14.667 -0.3856  1.2703  0.2441
 7672TIP3   OH244506   0.993   1.226  14.998  0.2488  0.1559  0.6004
 7672TIP3    H144507   1.044   1.216  15.078  0.2868  0.0217  0.5593
 7672TIP3    H244508   0.911   1.180  15.016 -0.3896  1.4531  1.1410
 7673TIP3   OH244509   2.588   5.140   4.032  0.1522  0.0931  0.1378
 7673TIP3    H144510   2.552   5.169   3.949  1.9614  1.9365 -0.0756
 7673TIP3    H244511   2.683   5.143   4.019  0.4645 -0.7656  1.8986
 7674TIP3   OH244512   5.854   4.771   3.367  0.6414 -0.2470  0.3681
 7674TIP3    H144513   5.817   4.857   3.384  2.2397  0.3742  0.9083
 7674TIP3    H244514   5.922   4.761   3.434  3.1083 -0.2692 -1.9566
 7675TIP3   OH244515   2.244   5.904  12.019 -0.1582 -0.1075  0.0545
 7675TIP3    H144516   2.247   5.860  11.934  0.3689 -1.0190  0.5271
 7675TIP3    H244517   2.154   5.936  12.026 -0.1303  0.2164 -0.9573
 7676TIP3   OH244518   3.897   6.153   5.468 -0.2304 -0.5374 -0.5277
 7676TIP3    H144519   3.918   6.244   5.488  0.3685 -0.8263  0.2102
 7676TIP3    H244520   3.916   6.144   5.374  1.0374 -0.2539 -0.3129
 7677TIP3   OH244521   2.770   2.777   4.725 -0.1657 -0.0092  0.0442
 7677TIP3    H144522   2.724   2.701   4.690 -1.9293  1.1532 -0.2848
 7677TIP3    H244523   2.785   2.834   4.649 -0.3460  0.7057  0.5352
 7678TIP3   OH244524   6.387   1.655  13.427 -0.0230  0.4352  0.4530
 7678TIP3    H144525   6.476   1.620  13.429 -1.5163 -3.8410  2.1388
 7678TIP3    H244526   6.390   1.728  13.490  2.0681 -0.1247  1.1037
 7679TIP3   OH244527   3.134   1.232  13.177 -0.0289  0.5521 -0.3995
 7679TIP3    H144528   3.161   1.290  13.248  2.7324  0.0470 -0.9381
 7679TIP3    H244529   3.178   1.149  13.195 -3.2709 -1.2498 -0.0633
 7680TIP3   OH244530   0.774   4.216  13.777 -0.4583 -0.1089  0.2473
 7680TIP3    H144531   0.761   4.122  13.790 -2.0739  0.1010  0.3728
 7680TIP3    H244532   0.696   4.256  13.816  0.5659  1.3421  0.8792
 7681TIP3   OH244533   0.190   2.322   0.582  0.4629  0.0590  0.3629
 7681TIP3    H144534   0.157   2.286   0.499  1.7639 -1.0078  0.2824
 7681TIP3    H244535   0.230   2.406   0.557  1.3829 -0.5359 -0.2071
 7682TIP3   OH244536   2.178   0.762   0.963 -0.4461 -0.2395 -0.2162
 7682TIP3    H144537   2.112   0.707   1.007 -0.8712 -0.8725 -1.6094
 7682TIP3    H244538   2.155   0.758   0.871  0.4532  1.0615 -0.5151
 7683TIP3   OH244539   4.384   6.833   5.154  0.0345  0.1506 -0.5343
 7683TIP3    H144540   4.362   6.875   5.237 -1.0393 -0.7031 -0.3533
 7683TIP3    H244541   4.479   6.829   5.153  0.0745  0.6625  0.4105
 7684TIP3   OH244542   1.884   4.535   0.060 -0.8925 -0.1459 -0.0137
 7684TIP3    H144543   1.832   4.462   0.028 -1.4771 -0.2752  1.1600
 7684TIP3    H244544   1.964   4.495   0.094 -0.8454 -0.1527 -0.1337
 7685TIP3   OH244545   0.187   0.150  10.911 -0.4593  0.2463  0.4241
 7685TIP3    H144546   0.223   0.203  10.840 -0.0665 -2.5603 -1.6561
 7685TIP3    H244547   0.093   0.146  10.893 -0.4754  0.1927  0.5165
 7686TIP3   OH244548   4.941   2.984  11.551 -0.1543  0.5000 -0.2589
 7686TIP3    H144549   4.971   2.929  11.479  1.2102 -0.8234  1.2386
 7686TIP3    H244550   4.931   3.071  11.512  2.3076  0.2508 -1.6802
 7687TIP3   OH244551   5.103   6.673   4.942 -0.7118 -0.2131 -0.2600
 7687TIP3    H144552   5.102   6.587   4.984  0.3789 -0.4409 -0.6754
 7687TIP3    H244553   5.196   6.698   4.940 -0.9207  0.5551 -0.9784
 7688TIP3   OH244554   2.422   3.514  15.835  0.2672  0.3502  0.3346
 7688TIP3    H144555   2.494   3.576  15.822 -1.5186  2.2821 -1.2760
 7688TIP3    H244556   2.452   3.433  15.795  1.4737  1.1749 -0.5120
 7689TIP3   OH244557   3.085   6.013   4.245 -0.4498  0.1658  0.8983
 7689TIP3    H144558   3.037   5.985   4.167 -0.3474  1.5217  0.3239
 7689TIP3    H244559   3.177   6.007   4.220 -0.4162  0.5567  0.9233
 7690TIP3   OH244560   5.855   3.549  16.932  0.1023  0.2824 -0.0309
 7690TIP3    H144561   5.947   3.541  16.909  0.1118  0.2183  0.0256
 7690TIP3    H244562   5.843   3.641  16.954  0.5502 -0.0161  1.6188
 7691TIP3   OH244563   0.635   3.556  12.498 -0.4812 -0.0788 -0.9951
 7691TIP3    H144564   0.658   3.632  12.445  0.0197  0.6704  0.2365
 7691TIP3    H244565   0.719   3.521  12.527 -0.7467  0.1349  0.0936
 7692TIP3   OH244566   3.029   0.309   5.995 -0.0298  0.0824  0.1493
 7692TIP3    H144567   3.105   0.287   6.049  0.8001 -0.2516 -1.1190
 7692TIP3    H244568   2.994   0.389   6.034  1.6734  0.8982  0.0613
 7693TIP3   OH244569   4.653   2.655   3.115 -0.0858  0.0320 -0.2232
 7693TIP3    H144570   4.630   2.642   3.023 -1.4591 -0.2668  0.1285
 7693TIP3    H244571   4.673   2.567   3.147 -2.2429 -0.3236  0.3738
 7694TIP3   OH244572   2.010   6.738   6.247  0.5664  0.3707 -0.1839
 7694TIP3    H144573   2.061   6.736   6.328  2.4014  2.9833 -1.1291
 7694TIP3    H244574   2.070   6.703   6.181 -0.9833 -1.9381 -0.4706
 7695TIP3   OH244575   6.024   2.532   0.359  0.3898 -0.1054 -0.1150
 7695TIP3    H144576   6.081   2.588   0.411  0.9383 -0.3707 -0.4299
 7695TIP3    H244577   6.032   2.446   0.398  2.6366 -0.8501 -2.0249
 7696TIP3   OH244578   3.980   0.749   5.928 -1.0271 -0.4173  0.2146
 7696TIP3    H144579   3.991   0.667   5.975  1.5855 -0.7835 -0.8423
 7696TIP3    H244580   4.058   0.800   5.950 -2.2522  1.5253  0.3068
 7697TIP3   OH244581   3.413   2.275  15.792  0.3468  0.5224  0.8233
 7697TIP3    H144582   3.350   2.261  15.862 -1.3338 -1.3968 -0.9362
 7697TIP3    H244583   3.464   2.193  15.789  0.9005  0.8756  0.2885
 7698TIP3   OH244584   4.436   3.458   0.153  0.0641 -0.2550  0.0130
 7698TIP3    H144585   4.488   3.389   0.194 -0.5388 -1.8134 -1.6863
 7698TIP3    H244586   4.461   3.538   0.199  0.7951 -1.5852  2.0655
 7699TIP3   OH244587   3.790   6.809  14.948  0.7210  0.4310 -0.1170
 7699TIP3    H144588   3.749   6.804  14.862  0.2333  0.0889  0.1256
 7699TIP3    H244589   3.746   6.882  14.991 -0.1400 -0.3477  0.3838
 7700TIP3   OH244590   5.740   3.440  13.310 -0.0826  0.4686 -0.6034
 7700TIP3    H144591   5.826   3.441  13.352 -0.3365  0.9780 -0.0749
 7700TIP3    H244592   5.736   3.522  13.260  0.2985 -0.2308 -1.8219
 7701TIP3   OH244593   1.398   6.357   3.354 -0.0680 -0.2289 -0.0414
 7701TIP3    H144594   1.382   6.381   3.445  0.3111  1.7289 -0.4372
 7701TIP3    H244595   1.311   6.341   3.318 -0.3910  0.8938  0.2060
 7702TIP3   OH244596   4.608   0.931  15.483  0.0618 -0.1836  0.2906
 7702TIP3    H144597   4.642   0.859  15.536 -0.2735 -0.5843 -0.0366
 7702TIP3    H244598   4.546   0.890  15.422  0.5931  0.2326 -0.5531
 7703TIP3   OH244599   1.346   3.938   2.997  0.0189 -0.1852 -0.0296
 7703TIP3    H144600   1.315   3.892   2.919 -3.2518  0.3252  0.8200
 7703TIP3    H244601   1.293   3.903   3.068  1.5842  0.7370  1.6800
 7704TIP3   OH244602   3.876   3.807   4.081 -0.1362 -0.0801 -0.3035
 7704TIP3    H144603   3.902   3.754   4.005  2.8941 -2.3227  2.0188
 7704TIP3    H244604   3.947   3.871   4.091 -1.2781  1.2099 -0.1925
 7705TIP3   OH244605   5.891   2.691  11.466 -0.2908  0.1449 -0.1407
 7705TIP3    H144606   5.966   2.741  11.434  2.0657 -2.1655  1.3438
 7705TIP3    H244607   5.884   2.617  11.405  0.5962 -1.2265  1.3431
 7706TIP3   OH244608   2.830   0.305  16.803  0.0901  0.1249  0.3186
 7706TIP3    H144609   2.877   0.298  16.719 -0.7446  1.3779 -0.2863
 7706TIP3    H244610   2.772   0.381  16.791 -0.4184 -0.0020  1.8564
 7707TIP3   OH244611   5.348   0.748   2.674  0.3600  0.3927 -0.4236
 7707TIP3    H144612   5.399   0.823   2.645  0.6759  1.1476  1.8592
 7707TIP3    H244613   5.413   0.680   2.691  0.5158  0.8679  1.0537
 7708TIP3   OH244614   1.746   3.824   3.789 -0.2713 -0.1872 -0.1921
 7708TIP3    H144615   1.729   3.828   3.883  1.8762 -1.0237  0.2962
 7708TIP3    H244616   1.735   3.731   3.766 -0.4919 -0.0393 -0.7106
 7709TIP3   OH244617   0.922   4.772   5.008  0.1335  0.1582  0.7232
 7709TIP3    H144618   0.828   4.769   4.995 -0.0327  1.1628  1.5882
 7709TIP3    H244619   0.957   4.798   4.923 -0.1814 -2.1326 -0.1686
 7710TIP3   OH244620   4.500   6.614  14.991 -0.0788  0.5848  0.1831
 7710TIP3    H144621   4.529   6.524  14.978  0.1708  0.4709  1.4748
 7710TIP3    H244622   4.449   6.634  14.912  1.3035 -0.0880 -0.9264
 7711TIP3   OH244623   0.221   3.738   2.765 -0.1437  0.6478 -0.2950
 7711TIP3    H144624   0.200   3.670   2.700  0.7366 -0.9386  0.9815
 7711TIP3    H244625   0.173   3.815   2.736 -2.0338 -0.8073 -1.2666
 7712TIP3   OH244626   2.730   4.859  12.352  0.3493 -0.0431  1.1255
 7712TIP3    H144627   2.824   4.844  12.347  0.5707  0.8916  2.2688
 7712TIP3    H244628   2.721   4.953  12.368 -0.6994 -0.3989  2.8725
 7713TIP3   OH244629   3.881   2.893   0.089  0.2255  0.0573 -0.3140
 7713TIP3    H144630   3.867   2.886  -0.006  0.3589  0.0572 -0.3333
 7713TIP3    H244631   3.967   2.855   0.103 -0.6089 -1.7792  0.0568
 7714TIP3   OH244632   5.409   6.365   1.631  0.0648  0.1992 -0.4636
 7714TIP3    H144633   5.453   6.287   1.596  0.6069  0.9812 -1.5919
 7714TIP3    H244634   5.438   6.369   1.723 -0.3217 -1.1504 -0.2547
 7715TIP3   OH244635   6.183   5.670  17.005  0.0836 -0.8073 -0.1966
 7715TIP3    H144636   6.202   5.678  16.911 -0.2412  1.1775 -0.1508
 7715TIP3    H244637   6.222   5.749  17.044 -2.8208  0.2978  0.7743
 7716TIP3   OH244638   4.058   3.481  16.083 -0.2271 -0.2334  0.5455
 7716TIP3    H144639   4.122   3.497  16.014 -0.8176 -0.2574 -0.0161
 7716TIP3    H244640   4.082   3.541  16.154  0.2927 -0.1044  0.2571
 7717TIP3   OH244641   3.523   2.563   4.210 -0.2772 -0.1618  0.5040
 7717TIP3    H144642   3.496   2.655   4.209 -0.8560 -0.3116 -1.2761
 7717TIP3    H244643   3.576   2.555   4.289  0.6596  1.9701  0.1733
 7718TIP3   OH244644   6.305   4.602   5.258 -0.5711  0.3308  0.7043
 7718TIP3    H144645   6.227   4.548   5.269 -0.6795  0.5009  0.7671
 7718TIP3    H244646   6.282   4.664   5.188 -0.2271 -0.1132  0.1908
 7719TIP3   OH244647   3.668   5.941  12.449 -0.0590 -0.4148 -0.6304
 7719TIP3    H144648   3.594   5.931  12.389  0.3269  0.7024 -1.3436
 7719TIP3    H244649   3.743   5.905  12.401  0.2211  0.3364 -0.7788
 7720TIP3   OH244650   2.867   1.230   4.168  0.2504 -0.3478  0.1967
 7720TIP3    H144651   2.858   1.190   4.254 -1.6535  0.0220  0.2140
 7720TIP3    H244652   2.881   1.323   4.186  3.7307 -0.7040  0.1299
 7721TIP3   OH244653   0.993   2.618   3.470  0.6338 -0.2235  0.2090
 7721TIP3    H144654   1.035   2.533   3.457  0.9989 -0.0269  0.0950
 7721TIP3    H244655   0.912   2.613   3.419 -0.6388 -1.4368  2.1899
 7722TIP3   OH244656   6.492   6.747   2.113  0.1784 -0.3446  0.2499
 7722TIP3    H144657   6.498   6.754   2.208  0.0107  0.7815  0.1991
 7722TIP3    H244658   6.399   6.760   2.094 -0.0787 -2.2504  0.0243
 7723TIP3   OH244659   5.099   1.043   0.646 -0.2004  0.0708  1.0018
 7723TIP3    H144660   5.029   1.099   0.681 -0.7552 -1.0446  1.7333
 7723TIP3    H244661   5.078   0.955   0.678  1.7568 -0.2428  1.6043
 7724TIP3   OH244662   4.632   4.686  15.250  0.2128  0.2845 -0.1720
 7724TIP3    H144663   4.667   4.606  15.210  3.1381  2.1463 -1.7554
 7724TIP3    H244664   4.640   4.672  15.344  0.9101 -1.1799 -0.4258
 7725TIP3   OH244665   0.386   0.722   2.159  0.1390 -0.2310 -0.0353
 7725TIP3    H144666   0.306   0.771   2.175 -0.7148 -1.6123  0.0660
 7725TIP3    H244667   0.372   0.678   2.075 -0.2470 -2.3864  1.0719
 7726TIP3   OH244668   1.620   0.816  14.711 -0.5538  0.2972  0.7309
 7726TIP3    H144669   1.540   0.815  14.763 -0.1401 -1.2342  1.3958
 7726TIP3    H244670   1.626   0.727  14.674  0.1951  0.7551 -0.3092
 7727TIP3   OH244671   5.189   6.511  13.027 -0.2542 -0.2272 -0.1868
 7727TIP3    H144672   5.148   6.597  13.038 -0.6684 -0.2895 -1.1757
 7727TIP3    H244673   5.142   6.470  12.954  1.3246 -0.4528 -1.1250
 7728TIP3   OH244674   3.230   2.629   4.935  0.1521  0.0425  0.0043
 7728TIP3    H144675   3.287   2.705   4.947 -0.4659  0.5399 -0.1082
 7728TIP3    H244676   3.152   2.665   4.893 -0.1996 -0.6395  0.0613
 7729TIP3   OH244677   0.117   1.126   5.436 -0.3603 -0.1657 -0.3473
 7729TIP3    H144678   0.126   1.139   5.531  0.0304  3.9696 -0.7376
 7729TIP3    H244679   0.023   1.116   5.422 -0.3216 -2.0370  0.5266
 7730TIP3   OH244680   1.408   5.396   5.259  0.1969  0.0463  0.0137
 7730TIP3    H144681   1.381   5.365   5.172  0.6989  1.2180 -0.5906
 7730TIP3    H244682   1.328   5.431   5.298  0.5110  2.3402 -1.2532
 7731TIP3   OH244683   1.929   6.472  14.794  0.0606 -0.3499 -0.3552
 7731TIP3    H144684   1.956   6.382  14.815  1.0422 -0.4740 -1.9983
 7731TIP3    H244685   1.858   6.461  14.730 -1.8869  0.0435  1.6073
 7732TIP3   OH244686   1.953   4.427  11.616 -0.0544 -0.0698 -0.7392
 7732TIP3    H144687   1.993   4.363  11.675  0.5948 -0.2877 -1.4008
 7732TIP3    H244688   2.027   4.476  11.580 -0.5713  1.3988  0.1292
 7733TIP3   OH244689   5.230   4.387   3.353  0.1205 -0.5786  0.0522
 7733TIP3    H144690   5.285   4.426   3.421  1.7830  1.3420 -2.2398
 7733TIP3    H244691   5.285   4.319   3.315 -0.4646 -1.0358  0.0138
 7734TIP3   OH244692   2.461   0.100  11.453 -0.5738 -0.0223  0.1506
 7734TIP3    H144693   2.458   0.170  11.388 -1.9494 -0.5860 -0.4187
 7734TIP3    H244694   2.506   0.029  11.408  2.8753  1.1247  1.4442
 7735TIP3   OH244695   4.822   0.707  15.851  0.1792  0.3237 -0.3477
 7735TIP3    H144696   4.804   0.791  15.808  0.1651 -0.5577 -2.1706
 7735TIP3    H244697   4.749   0.696  15.912 -0.8339  0.7991 -1.4276
 7736TIP3   OH244698   5.961   1.111   3.688  0.6293  0.4563 -0.0764
 7736TIP3    H144699   6.000   1.074   3.767  1.2135  0.5553 -0.3133
 7736TIP3    H244700   5.898   1.045   3.659 -0.9978  1.2280  1.5275
 7737TIP3   OH244701   1.008   3.390  10.859  0.2448  0.2810  0.0498
 7737TIP3    H144702   0.916   3.414  10.869 -0.3807 -0.3794 -3.0762
 7737TIP3    H244703   1.016   3.307  10.906 -1.3217 -0.6821 -1.2620
 7738TIP3   OH244704   2.613   2.951   3.392  0.5456  0.1929  0.4451
 7738TIP3    H144705   2.636   3.029   3.443 -1.4348  0.3600  1.1957
 7738TIP3    H244706   2.517   2.948   3.395  0.3701 -0.2998 -2.5991
 7739TIP3   OH244707   2.271   6.787  10.757  0.1401  0.2338 -0.0679
 7739TIP3    H144708   2.249   6.708  10.707  2.9420  0.0393 -1.2312
 7739TIP3    H244709   2.332   6.756  10.824 -1.1839  0.9973  1.5587
 7740TIP3   OH244710   6.480   0.754  14.114 -0.1049 -0.0054 -0.1253
 7740TIP3    H144711   6.460   0.825  14.175 -2.7265 -0.0064 -0.8559
 7740TIP3    H244712   6.473   0.794  14.027 -2.0682 -1.1863 -0.5588
 7741TIP3   OH244713   1.680   2.250  15.117  0.0703  0.2738  0.1443
 7741TIP3    H144714   1.763   2.215  15.085 -1.1864 -1.3190 -1.5935
 7741TIP3    H244715   1.615   2.187  15.086 -1.9189  2.1381  0.3774
 7742TIP3   OH244716   4.617   4.527   2.020 -0.4700 -0.4820  0.3216
 7742TIP3    H144717   4.603   4.437   2.049  0.5749 -0.1215  2.0753
 7742TIP3    H244718   4.712   4.541   2.030 -0.4385  0.4629 -1.0176
 7743TIP3   OH244719   0.672   0.599   2.514 -0.2019 -0.1761  0.1958
 7743TIP3    H144720   0.626   0.678   2.486 -0.7438 -0.3516  0.5743
 7743TIP3    H244721   0.642   0.531   2.454 -2.0447 -0.7539  1.6750
 7744TIP3   OH244722   5.495   2.201  12.707  0.4148 -0.0285 -0.0058
 7744TIP3    H144723   5.514   2.282  12.661  0.4948  0.0245  0.1231
 7744TIP3    H244724   5.579   2.154  12.710  0.3518 -0.1536 -0.1525
 7745TIP3   OH244725   1.136   6.835   0.479  0.2607 -0.6377 -0.2203
 7745TIP3    H144726   1.200   6.767   0.456 -0.1695 -1.0799 -0.1256
 7745TIP3    H244727   1.146   6.846   0.574  0.4333 -0.4602 -0.2583
 7746TIP3   OH244728   0.980   2.961   6.526  0.1385 -0.3418  0.8450
 7746TIP3    H144729   0.895   2.963   6.570 -1.4598  1.2858 -1.9788
 7746TIP3    H244730   1.000   3.054   6.510  1.5314 -0.7867 -0.1498
 7747TIP3   OH244731   6.619   6.669   3.297 -0.0907 -0.5116 -0.2605
 7747TIP3    H144732   6.591   6.642   3.384 -0.3871 -0.1104 -0.2269
 7747TIP3    H244733   6.607   6.764   3.296  1.7676 -0.2310 -0.0765
 7748TIP3   OH244734   3.529   5.169   6.156  0.3536 -0.3943 -0.2377
 7748TIP3    H144735   3.470   5.221   6.102  1.5470  1.9968  0.6098
 7748TIP3    H244736   3.580   5.234   6.205  1.6283 -2.4044  1.2485
 7749TIP3   OH244737   1.181   6.709  10.163  0.2344 -0.4194  0.7032
 7749TIP3    H144738   1.087   6.693  10.152  0.0088  0.3397  1.4505
 7749TIP3    H244739   1.188   6.803  10.181  1.4412  0.3014 -2.7709
 7750TIP3   OH244740   2.444   2.680   5.708 -0.0363 -0.0685 -0.0800
 7750TIP3    H144741   2.493   2.737   5.768 -0.3309  0.2571 -0.1420
 7750TIP3    H244742   2.473   2.707   5.621 -0.6556  0.4407 -0.1354
 7751TIP3   OH244743   5.970   4.969   5.912 -0.0679 -0.1805  0.0918
 7751TIP3    H144744   5.931   4.981   5.998  0.1776  0.8577  0.0784
 7751TIP3    H244745   6.052   5.019   5.916 -0.5946  0.8325 -1.0894
 7752TIP3   OH244746   2.924   1.896  12.986  0.3660 -0.1404 -0.0716
 7752TIP3    H144747   2.897   1.868  12.899  1.6055 -1.1184 -0.1627
 7752TIP3    H244748   2.908   1.820  13.042  0.3762  0.1942  0.3883
 7753TIP3   OH244749   4.587   1.910  12.277 -0.0579  0.4973 -0.5699
 7753TIP3    H144750   4.601   1.877  12.366 -1.6897 -0.7216 -0.7197
 7753TIP3    H244751   4.577   1.831  12.224 -1.2725  1.2133 -1.4379
 7754TIP3   OH244752   3.610   6.044   3.360 -0.1241 -0.3160  0.1048
 7754TIP3    H144753   3.620   6.123   3.307  0.9925 -0.0203  0.7136
 7754TIP3    H244754   3.698   6.028   3.396 -0.4075 -1.6339  0.2737
 7755TIP3   OH244755   5.808   1.611  10.838 -0.1152  0.2116 -0.1912
 7755TIP3    H144756   5.739   1.545  10.841  1.4964 -1.6531 -1.3421
 7755TIP3    H244757   5.878   1.570  10.787  2.4329  1.4069  2.0493
 7756TIP3   OH244758   4.081   5.555   1.279 -0.6498  0.1025 -0.1796
 7756TIP3    H144759   4.049   5.466   1.298 -0.7732  0.0667 -0.5600
 7756TIP3    H244760   4.121   5.548   1.193 -0.2563  0.3179 -0.0167
 7757TIP3   OH244761   0.469   4.584   6.243 -0.0887  0.1371 -0.2219
 7757TIP3    H144762   0.382   4.565   6.210 -0.3793  0.8713  0.1020
 7757TIP3    H244763   0.477   4.531   6.322 -0.3499  0.2960 -0.0907
 7758TIP3   OH244764   5.237   1.388   6.475 -0.1639 -0.4201  0.2877
 7758TIP3    H144765   5.288   1.462   6.509  1.1900 -1.7669  1.3160
 7758TIP3    H244766   5.148   1.405   6.506 -0.0438  1.1415 -0.1220
 7759TIP3   OH244767   6.605   2.560  14.794 -0.3104 -0.4245  0.1459
 7759TIP3    H144768   6.553   2.493  14.751  1.8341 -1.5682 -0.7762
 7759TIP3    H244769   6.668   2.588  14.728  1.2970 -0.2491  1.6922
 7760TIP3   OH244770   0.280   6.136  14.679  0.3003  0.2101 -0.4157
 7760TIP3    H144771   0.189   6.117  14.700  0.4025 -1.2866 -1.1544
 7760TIP3    H244772   0.311   6.056  14.636  1.8941  0.7831 -0.3797
 7761TIP3   OH244773   3.326   4.915   3.899 -0.1969  0.4225 -0.4670
 7761TIP3    H144774   3.384   4.987   3.923  0.7081 -0.3587 -0.2904
 7761TIP3    H244775   3.281   4.892   3.980  0.0250  0.3214 -0.3745
 7762TIP3   OH244776   3.073   2.737   3.586 -0.4124  0.1907  0.4275
 7762TIP3    H144777   3.093   2.714   3.495  0.0071 -3.1879  1.2520
 7762TIP3    H244778   3.023   2.819   3.580 -0.5287 -0.0083 -2.8270
 7763TIP3   OH244779   0.900   4.329   0.564  0.2378  0.1211  0.5710
 7763TIP3    H144780   0.857   4.405   0.602 -2.1637 -0.6990 -0.3108
 7763TIP3    H244781   0.894   4.343   0.469 -0.0808 -1.0368  0.3954
 7764TIP3   OH244782   6.467   0.505   4.972  0.3370 -0.2796  0.1238
 7764TIP3    H144783   6.535   0.551   5.021  0.6318 -0.6656  0.0769
 7764TIP3    H244784   6.489   0.521   4.880  0.1769 -0.1364  0.1089
 7765TIP3   OH244785   3.208   2.942  13.424  0.2736  0.3366  0.2734
 7765TIP3    H144786   3.124   2.988  13.429  1.3983  2.5432  0.1408
 7765TIP3    H244787   3.228   2.918  13.515 -0.3651  0.0222  0.3354
 7766TIP3   OH244788   2.980   6.404  16.889  0.2566  0.8058  0.0404
 7766TIP3    H144789   3.022   6.339  16.946 -0.2410  0.4546  0.0043
 7766TIP3    H244790   2.900   6.429  16.935 -0.0472  0.6685 -0.4072
 7767TIP3   OH244791   0.062   4.778  10.320 -0.3010 -0.6073  0.6658
 7767TIP3    H144792   0.110   4.710  10.273 -0.1414 -0.3928  0.5165
 7767TIP3    H244793   0.076   4.858  10.268  0.8587 -0.1070  1.6919
 7768TIP3   OH244794   1.804   2.410  13.606  0.0622  0.0203 -0.3400
 7768TIP3    H144795   1.851   2.434  13.526  0.1875 -1.2023 -0.6532
 7768TIP3    H244796   1.809   2.488  13.661 -1.8409  1.7043 -2.3293
 7769TIP3   OH244797   3.022   5.202   5.221 -0.0549 -0.2367  0.2841
 7769TIP3    H144798   3.077   5.186   5.145  1.3785  2.7660  0.5197
 7769TIP3    H244799   2.933   5.200   5.188  0.4343 -0.9615 -1.0496
 7770TIP3   OH244800   4.685   2.527  15.231  0.0546 -0.0106  0.1543
 7770TIP3    H144801   4.738   2.457  15.268  0.7747  0.2190 -0.4276
 7770TIP3    H244802   4.604   2.484  15.203  0.5433 -0.6385 -0.3256
 7771TIP3   OH244803   4.570   3.158   3.260  0.2276  0.4340 -1.1551
 7771TIP3    H144804   4.494   3.158   3.317  0.3587  0.6269 -0.9806
 7771TIP3    H244805   4.604   3.247   3.264  2.3327 -0.3689  1.2614
 7772TIP3   OH244806   2.674   5.242  15.835 -0.3232  0.1479 -0.1129
 7772TIP3    H144807   2.662   5.332  15.806 -0.2979  0.3692  0.5531
 7772TIP3    H244808   2.586   5.212  15.858 -0.3633 -0.0738 -0.5436
 7773TIP3   OH244809   5.606   5.539  11.576 -0.7625 -0.5102 -0.2374
 7773TIP3    H144810   5.699   5.522  11.583 -0.6628  0.6677  2.1415
 7773TIP3    H244811   5.600   5.624  11.532 -0.5454  0.6335  1.8407
 7774TIP3   OH244812   5.294   5.928   1.849 -0.1587 -0.1623  0.5209
 7774TIP3    H144813   5.372   5.942   1.796 -0.7468  0.0351 -0.3343
 7774TIP3    H244814   5.223   5.924   1.784 -0.8912  0.0054  1.3015
 7775TIP3   OH244815   2.998   0.929  12.141  0.5782 -0.0172  0.1029
 7775TIP3    H144816   3.054   0.859  12.173 -0.0985 -2.1008 -2.8412
 7775TIP3    H244817   2.922   0.929  12.200  1.0319 -1.1228  0.7055
 7776TIP3   OH244818   4.453   4.707   2.468  0.3795 -0.3024  0.1591
 7776TIP3    H144819   4.361   4.722   2.443  0.9296  1.7788 -0.8504
 7776TIP3    H244820   4.450   4.692   2.562 -1.0562 -1.0469  0.0327
 7777TIP3   OH244821   1.237   3.480   3.040  0.5498  0.5582  0.2085
 7777TIP3    H144822   1.196   3.567   3.046 -2.6904 -0.9054  2.1053
 7777TIP3    H244823   1.255   3.455   3.131 -0.1252 -1.3655 -0.1321
 7778TIP3   OH244824   1.622   3.782   0.363 -0.1298 -0.4914  0.0342
 7778TIP3    H144825   1.671   3.701   0.378  1.3859  0.1983 -0.9273
 7778TIP3    H244826   1.667   3.823   0.289 -0.6277  1.4131  0.7503
 7779TIP3   OH244827   1.552   2.657  11.738  0.5451  0.7429 -0.3817
 7779TIP3    H144828   1.581   2.627  11.653  0.4392  0.9724 -0.5010
 7779TIP3    H244829   1.572   2.585  11.798  1.7715  1.0754 -0.3715
 7780TIP3   OH244830   0.095   0.340   0.434 -0.1553  0.1287 -0.3292
 7780TIP3    H144831   0.076   0.382   0.350 -2.8475  2.7596  1.3756
 7780TIP3    H244832   0.133   0.411   0.487  1.0657 -1.3437  0.8463
 7781TIP3   OH244833   3.926   2.791   6.015  0.5184  0.6497 -0.1055
 7781TIP3    H144834   3.934   2.768   6.108 -0.5945 -1.3285 -0.4520
 7781TIP3    H244835   3.861   2.861   6.014  1.0039  1.1405  0.6266
 7782TIP3   OH244836   2.014   5.543  12.447  0.2525 -0.3255 -0.3970
 7782TIP3    H144837   2.078   5.517  12.381  0.3975 -2.9668  0.6485
 7782TIP3    H244838   2.060   5.532  12.531 -0.3493  1.6347  0.2384
 7783TIP3   OH244839   0.733   1.205  15.870  0.4151  0.4313 -0.0640
 7783TIP3    H144840   0.732   1.276  15.935 -0.7600 -0.8917  1.4304
 7783TIP3    H244841   0.644   1.202  15.836  0.8330  0.6053 -1.2296
 7784TIP3   OH244842   3.886   3.595  12.213  0.3702 -0.1319  0.3034
 7784TIP3    H144843   3.944   3.664  12.181  0.6451 -0.4066  0.1998
 7784TIP3    H244844   3.834   3.637  12.281  0.3236  0.2545  0.0351
 7785TIP3   OH244845   2.575   4.814  12.903  0.2620 -0.1490 -0.0631
 7785TIP3    H144846   2.623   4.781  12.828  0.2474 -0.7062  0.1640
 7785TIP3    H244847   2.508   4.748  12.919  0.8093 -0.4797  0.9634
 7786TIP3   OH244848   1.645   4.879  16.740 -0.1421  0.4999 -0.3967
 7786TIP3    H144849   1.560   4.866  16.782  0.1132  1.9900  0.6457
 7786TIP3    H244850   1.709   4.869  16.810  0.2989  2.7435 -0.3960
 7787TIP3   OH244851   2.580   0.352  11.894 -0.0069  0.0952 -0.9905
 7787TIP3    H144852   2.546   0.325  11.808  2.0560  0.9004 -2.1489
 7787TIP3    H244853   2.563   0.446  11.898  0.1794  0.1163 -0.6567
 7788TIP3   OH244854   4.780   2.426   0.571 -0.1435  0.6516  0.5969
 7788TIP3    H144855   4.866   2.388   0.549 -0.5452 -0.5947  1.0897
 7788TIP3    H244856   4.789   2.452   0.663 -0.4091  0.1340  0.7757
 7789TIP3   OH244857   3.952   0.665   1.491 -0.4003 -0.1876  0.0597
 7789TIP3    H144858   3.939   0.589   1.435  0.8820  0.4050 -1.1111
 7789TIP3    H244859   3.958   0.630   1.580 -0.9959 -1.3072 -0.3292
 7790TIP3   OH244860   5.488   3.946  14.337 -0.2444 -0.1473  0.6892
 7790TIP3    H144861   5.477   3.946  14.432  0.2289 -0.8311  0.7552
 7790TIP3    H244862   5.409   3.904  14.303  0.3430 -1.4633  0.9000
 7791TIP3   OH244863   5.982   3.499  12.162  0.0415 -0.1323  0.1707
 7791TIP3    H144864   5.896   3.539  12.173 -0.6743 -1.9718  1.9660
 7791TIP3    H244865   5.979   3.461  12.074 -0.9812 -0.1306  0.1906
 7792TIP3   OH244866   5.577   4.350   5.100  0.7810  0.2106  0.2635
 7792TIP3    H144867   5.581   4.260   5.134  2.4487  0.1912  0.0914
 7792TIP3    H244868   5.537   4.340   5.014  0.7545 -0.3441  0.3316
 7793TIP3   OH244869   2.380   2.377   2.273 -0.7340  0.0826  0.1188
 7793TIP3    H144870   2.468   2.361   2.238 -0.0048 -0.9807  2.2445
 7793TIP3    H244871   2.321   2.362   2.200  0.8703  1.7430 -1.6317
 7794TIP3   OH244872   6.166   5.415   5.034  0.1329  0.0102 -0.4190
 7794TIP3    H144873   6.237   5.350   5.033  0.5479  0.4185 -2.8861
 7794TIP3    H244874   6.112   5.390   5.109  0.7479 -2.6866 -0.7733
 7795TIP3   OH244875   5.856   2.769  15.162  0.2920  0.3222 -0.4104
 7795TIP3    H144876   5.885   2.682  15.136 -2.1696 -0.6684 -0.1255
 7795TIP3    H244877   5.824   2.809  15.082 -1.0641 -0.1180 -0.1127
 7796TIP3   OH244878   3.973   1.656   6.546 -0.0194  0.2622 -0.1090
 7796TIP3    H144879   4.023   1.600   6.604 -0.4526 -1.1721 -1.0734
 7796TIP3    H244880   4.031   1.730   6.529  0.8548 -0.2344  0.6136
 7797TIP3   OH244881   5.971   2.054   5.972 -0.0023  0.5635  0.4809
 7797TIP3    H144882   5.988   2.040   6.065  0.8111 -1.7042  0.0658
 7797TIP3    H244883   5.927   1.973   5.943  0.2162  0.9971 -1.1999
 7798TIP3   OH244884   1.851   3.635  11.688  0.6338  0.3879  0.1544
 7798TIP3    H144885   1.757   3.628  11.670  0.7776  1.0490 -1.0021
 7798TIP3    H244886   1.890   3.651  11.602  1.8824 -0.5339  0.5220
 7799TIP3   OH244887   3.920   5.940  14.731  0.1302 -0.2160  0.2844
 7799TIP3    H144888   3.879   6.026  14.714  0.9076  0.1662  0.3014
 7799TIP3    H244889   3.955   5.914  14.646 -1.4901 -1.2860 -0.0949
 7800TIP3   OH244890   2.782   3.363  13.492  0.2665 -0.1165  0.5044
 7800TIP3    H144891   2.799   3.429  13.425  1.1769 -1.5016 -0.7103
 7800TIP3    H244892   2.697   3.325  13.468 -1.9221  2.6821  3.0718
 7801TIP3   OH244893   5.714   0.322  15.000 -0.6875 -0.5531  0.2199
 7801TIP3    H144894   5.738   0.406  15.038 -0.4631  0.0593 -1.2170
 7801TIP3    H244895   5.798   0.276  14.992 -0.7897 -0.8637  0.8459
 7802TIP3   OH244896   1.246   1.976  14.549  0.1890  0.4462 -0.0308
 7802TIP3    H144897   1.172   1.985  14.489 -1.6656  0.9900  2.1794
 7802TIP3    H244898   1.213   1.919  14.619  0.9099  2.7365  2.3318
 7803TIP3   OH244899   0.502   5.964  14.980 -0.0113 -0.1211 -0.0392
 7803TIP3    H144900   0.495   6.052  14.942  2.2037  0.5353  0.9123
 7803TIP3    H244901   0.589   5.934  14.956 -0.1204 -1.3835  1.0357
 7804TIP3   OH244902   1.149   2.086  11.434  0.1543  0.5024  0.2865
 7804TIP3    H144903   1.127   2.138  11.357 -3.6053 -1.3324 -0.1264
 7804TIP3    H244904   1.161   1.997  11.401  2.6360  0.3439  1.4189
 7805TIP3   OH244905   6.032   1.483  11.509  0.1106 -0.3197 -0.2029
 7805TIP3    H144906   6.074   1.565  11.481  0.9980 -1.2335 -1.7104
 7805TIP3    H244907   6.020   1.493  11.603  1.0041  1.1935 -0.2147
 7806TIP3   OH244908   2.377   0.809   6.399  0.5954  0.0286  0.5237
 7806TIP3    H144909   2.381   0.717   6.373  0.1569 -0.1127  0.9385
 7806TIP3    H244910   2.317   0.810   6.474 -0.8745  0.9008 -0.6045
 7807TIP3   OH244911   1.270   5.052   0.838  0.0170  0.1636 -0.7770
 7807TIP3    H144912   1.246   5.000   0.915 -0.8644  1.8909  0.1619
 7807TIP3    H244913   1.335   5.114   0.869 -0.3988  0.9312 -1.3918
 7808TIP3   OH244914   5.260   4.561   5.725 -0.2683 -0.3619  0.1060
 7808TIP3    H144915   5.335   4.622   5.721 -0.2545 -0.2566  1.4155
 7808TIP3    H244916   5.187   4.615   5.756 -0.6456 -0.6850 -0.2104
 7809TIP3   OH244917   5.941   2.789   2.739 -0.2468 -0.1048 -0.2717
 7809TIP3    H144918   6.021   2.755   2.780 -1.9144 -2.6055  1.1290
 7809TIP3    H244919   5.872   2.775   2.804 -2.2287 -0.0204 -2.2288
 7810TIP3   OH244920   3.029   1.719   3.775 -0.0681 -0.4537 -0.2949
 7810TIP3    H144921   3.088   1.782   3.818 -0.7743 -0.3626  0.5524
 7810TIP3    H244922   3.071   1.634   3.788 -0.3748 -0.4505  0.7599
 7811TIP3   OH244923   6.364   4.420   4.067  0.0947 -0.4319 -0.4613
 7811TIP3    H144924   6.335   4.418   3.976  1.0030 -0.5206 -0.7593
 7811TIP3    H244925   6.453   4.385   4.065 -0.2208 -1.3478  0.6020
 7812TIP3   OH244926   0.027   4.433   0.738  0.1673 -0.0827 -0.1585
 7812TIP3    H144927  -0.044   4.387   0.694 -0.2490 -0.6193  1.0341
 7812TIP3    H244928   0.047   4.378   0.814  1.2434  0.5294  0.0137
 7813TIP3   OH244929   4.564   1.422   4.626  0.4166 -0.2421  0.3470
 7813TIP3    H144930   4.505   1.497   4.634 -2.2444 -2.1856  0.5216
 7813TIP3    H244931   4.520   1.364   4.564  1.9943 -1.9633  0.7564
 7814TIP3   OH244932   1.153   2.995   5.598 -0.5534  0.0561 -0.1031
 7814TIP3    H144933   1.185   3.021   5.511 -0.4309 -1.1989 -0.4514
 7814TIP3    H244934   1.085   3.059   5.618 -0.6231  0.3363 -1.1574
 7815TIP3   OH244935   5.096   0.614   1.111 -1.2583 -0.1491 -0.8086
 7815TIP3    H144936   5.190   0.602   1.101 -1.2826  0.2151 -1.5460
 7815TIP3    H244937   5.087   0.688   1.172 -1.0546  0.3426 -1.3652
 7816TIP3   OH244938   4.472   3.267   6.001 -0.5163 -0.3477 -0.0968
 7816TIP3    H144939   4.529   3.228   5.934 -1.4149 -3.5740  0.8466
 7816TIP3    H244940   4.528   3.275   6.078 -0.4237 -0.0175 -0.1939
 7817TIP3   OH244941   2.957   6.478   4.728 -0.3118  0.5198 -0.4643
 7817TIP3    H144942   2.965   6.455   4.636  2.1975  0.1399 -0.2129
 7817TIP3    H244943   2.862   6.479   4.745 -0.8050  0.3204 -2.9381
 7818TIP3   OH244944   3.778   6.126   1.304  0.6053  0.3765 -0.0086
 7818TIP3    H144945   3.846   6.163   1.361  1.7871  0.0191 -1.1307
 7818TIP3    H244946   3.697   6.165   1.336  1.5556  2.3888  0.1429
 7819TIP3   OH244947   1.763   6.236  11.139 -0.3056 -0.1932 -0.8674
 7819TIP3    H144948   1.847   6.276  11.118 -0.2508  0.7373  0.9221
 7819TIP3    H244949   1.706   6.262  11.067  0.6700  0.0002 -1.5995
 7820TIP3   OH244950   0.529   5.377   0.090  0.1615  0.2276  0.4770
 7820TIP3    H144951   0.614   5.335   0.105 -0.6472 -1.8190 -0.3694
 7820TIP3    H244952   0.465   5.312   0.117 -1.1619  1.3242  0.0761
 7821TIP3   OH244953   1.880   3.658  16.966 -0.3252 -0.1469  0.2163
 7821TIP3    H144954   1.832   3.675  16.885  0.4902  1.7560  0.0829
 7821TIP3    H244955   1.964   3.622  16.938  0.3540  1.4383  0.1057
 7822TIP3   OH244956   3.220   0.275   1.100  0.5825  0.1171  0.5676
 7822TIP3    H144957   3.218   0.364   1.065  0.3212 -0.1656 -0.1502
 7822TIP3    H244958   3.199   0.285   1.193 -0.3571  0.7136  0.2993
 7823TIP3   OH244959   0.571   2.380   1.520 -0.0085 -0.1623  0.6710
 7823TIP3    H144960   0.666   2.394   1.514 -0.2255  1.4375  0.3892
 7823TIP3    H244961   0.535   2.468   1.530 -1.4688 -0.7526  0.8218
 7824TIP3   OH244962   6.737   2.640  16.627 -0.3123 -0.2455 -0.0817
 7824TIP3    H144963   6.766   2.564  16.678 -0.3342 -1.4612 -1.7769
 7824TIP3    H244964   6.692   2.602  16.552 -0.7151  1.4787 -0.7569
 7825TIP3   OH244965   1.166   1.098   1.694 -0.2347 -0.0083  0.2305
 7825TIP3    H144966   1.115   1.173   1.666  1.5020  0.6148 -1.4440
 7825TIP3    H244967   1.218   1.130   1.767 -0.8506 -0.1361  0.7366
 7826TIP3   OH244968   1.606   1.076  14.773  0.0451 -0.2505  0.5734
 7826TIP3    H144969   1.546   1.098  14.702  0.8996  0.4054  0.0228
 7826TIP3    H244970   1.641   0.990  14.750 -1.1837 -0.9539  1.2590
 7827TIP3   OH244971   3.222   1.810  16.902  0.3097  0.1506  0.2704
 7827TIP3    H144972   3.224   1.820  16.997 -0.6538  1.1180  0.2126
 7827TIP3    H244973   3.231   1.716  16.888 -1.2926 -0.2117  1.4138
 7828TIP3   OH244974   2.348   2.932  15.936  0.0024 -0.2949 -0.6842
 7828TIP3    H144975   2.275   2.878  15.967  1.5189 -1.8633  0.3692
 7828TIP3    H244976   2.311   3.020  15.927 -1.6921 -0.7409  1.1744
 7829TIP3   OH244977   6.833   1.435  10.845  0.0641 -0.7820  0.1759
 7829TIP3    H144978   6.896   1.431  10.917  0.6428 -1.5949 -0.3626
 7829TIP3    H244979   6.793   1.348  10.843  0.3546 -0.9059 -0.7494
 7830TIP3   OH244980   3.151   1.741   1.731 -0.0864  0.2447  0.4167
 7830TIP3    H144981   3.119   1.726   1.642  1.6291 -0.2716 -0.1437
 7830TIP3    H244982   3.071   1.752   1.783 -1.1554  2.7727 -1.5186
 7831TIP3   OH244983   2.803   2.716  16.417 -0.3941 -0.6489 -0.0018
 7831TIP3    H144984   2.855   2.720  16.336  0.2024  0.0732  0.4023
 7831TIP3    H244985   2.865   2.742  16.485 -1.4221  0.7423  0.4356
 7832TIP3   OH244986   6.282   2.027  13.588  0.5491  0.2667 -0.7529
 7832TIP3    H144987   6.241   2.076  13.659  1.6349 -2.0098  1.5702
 7832TIP3    H244988   6.366   2.071  13.573  0.0414  1.1390 -1.1446
 7833TIP3   OH244989   3.817   0.185  16.523  0.0016  0.0574 -0.5297
 7833TIP3    H144990   3.789   0.254  16.464  0.4688 -0.3491 -1.2367
 7833TIP3    H244991   3.735   0.143  16.552 -0.1839 -1.1445 -2.5990
 7834TIP3   OH244992   5.110   5.336   5.201  0.3272 -0.1230 -0.0179
 7834TIP3    H144993   5.149   5.406   5.254  1.1009 -0.8145  0.3484
 7834TIP3    H244994   5.028   5.373   5.169 -0.0605  0.3999  1.4777
 7835TIP3   OH244995   5.542   2.122   1.406 -0.3039  0.2838  0.1968
 7835TIP3    H144996   5.457   2.138   1.366 -1.0370 -1.6751  0.8549
 7835TIP3    H244997   5.591   2.073   1.341 -0.3523 -0.1784  0.5035
 7836TIP3   OH244998   1.134   0.436  12.446  0.3015  0.0839  0.4678
 7836TIP3    H144999   1.152   0.525  12.476 -0.7060  0.4378  0.0951
 7836TIP3    H245000   1.079   0.448  12.368  0.9803 -0.8530 -0.1822
 7837TIP3   OH245001   1.319   3.870  16.589  0.3736 -0.0982  0.0669
 7837TIP3    H145002   1.380   3.856  16.516  1.8844 -0.1437  1.3020
 7837TIP3    H245003   1.374   3.873  16.667 -1.2267 -0.2498  1.2577
 7838TIP3   OH245004   3.459   0.646  12.812  0.0071  0.4148 -0.0337
 7838TIP3    H145005   3.532   0.585  12.804  0.7717  1.1904  0.8689
 7838TIP3    H245006   3.485   0.722  12.761 -1.1129 -0.1259 -1.4853
 7839TIP3   OH245007   1.460   4.044   0.079  0.2286 -0.7545  1.2862
 7839TIP3    H145008   1.461   3.950   0.093 -2.4420 -0.7754  1.8984
 7839TIP3    H245009   1.418   4.080   0.158 -2.9107  0.4351 -0.6873
 7840TIP3   OH245010   0.468   4.487  14.594 -0.0600  0.0826 -0.1191
 7840TIP3    H145011   0.453   4.440  14.677 -0.5308  0.5834  0.0825
 7840TIP3    H245012   0.537   4.436  14.551 -0.5525 -0.7923  0.0987
 7841TIP3   OH245013   0.548   3.461  11.767 -0.3500 -0.1466 -0.0978
 7841TIP3    H145014   0.501   3.542  11.749 -1.1906 -0.5554  0.1947
 7841TIP3    H245015   0.503   3.424  11.843  0.9477 -0.1602  0.6927
 7842TIP3   OH245016   2.553   1.006  14.132 -0.5602  0.2529 -0.4442
 7842TIP3    H145017   2.597   0.986  14.049 -0.0018  1.0500 -0.3475
 7842TIP3    H245018   2.618   0.983  14.199 -0.4153  1.1020 -0.2886
 7843TIP3   OH245019   4.073   4.470  12.486  0.3528 -0.0323  0.6594
 7843TIP3    H145020   4.057   4.465  12.392 -0.7210  0.4019  0.8085
 7843TIP3    H245021   4.148   4.529  12.494  1.0717 -0.8215  0.0369
 7844TIP3   OH245022   2.546   2.478   1.425  0.2533  0.1158  0.2596
 7844TIP3    H145023   2.557   2.385   1.445 -0.0428  0.1653  0.6779
 7844TIP3    H245024   2.607   2.523   1.483  0.5763  0.1697 -0.1195
 7845TIP3   OH245025   4.823   5.281  11.042 -0.2801 -0.2055 -0.0292
 7845TIP3    H145026   4.730   5.298  11.056 -0.4141  1.2525 -2.1857
 7845TIP3    H245027   4.839   5.198  11.086 -2.3170  0.0697  1.3647
 7846TIP3   OH245028   3.791   3.282  16.081 -0.0951 -0.2471  0.1248
 7846TIP3    H145029   3.725   3.231  16.034  0.9635 -1.2471 -0.3299
 7846TIP3    H245030   3.833   3.335  16.013  0.7022 -0.8887  0.0992
 7847TIP3   OH245031   1.537   0.220  10.703 -0.9863 -0.1085 -0.1769
 7847TIP3    H145032   1.470   0.193  10.640  0.8351 -1.1331 -1.8192
 7847TIP3    H245033   1.612   0.164  10.683  1.3384  2.8048 -0.3001
 7848TIP3   OH245034   4.775   1.907  17.008  0.1844  0.6250  0.0761
 7848TIP3    H145035   4.757   1.866  16.924 -0.1178 -0.7401  0.7748
 7848TIP3    H245036   4.708   1.976  17.016 -1.3553 -0.8071  0.2279
 7849TIP3   OH245037   1.135   2.409  15.024 -0.2839  0.0908 -0.0843
 7849TIP3    H145038   1.113   2.426  15.115  1.1401 -0.9066  0.4759
 7849TIP3    H245039   1.124   2.315  15.014  3.3234 -0.4804  0.2060
 7850TIP3   OH245040   6.487   6.577   1.466  0.4111 -0.5011  0.2726
 7850TIP3    H145041   6.393   6.579   1.484  0.0226  0.4772 -1.5735
 7850TIP3    H245042   6.528   6.603   1.548 -0.9068 -1.0047  1.1307
 7851TIP3   OH245043   0.886   6.775  10.772 -0.3241 -0.2870  0.5932
 7851TIP3    H145044   0.830   6.704  10.741 -0.6875 -0.2174  1.0694
 7851TIP3    H245045   0.944   6.795  10.698  0.1900 -1.4745  0.6589
 7852TIP3   OH245046   6.188   0.993  11.191 -0.7975 -0.0515  0.1184
 7852TIP3    H145047   6.265   0.945  11.161 -0.5150  0.1309  0.5456
 7852TIP3    H245048   6.213   1.085  11.184 -1.5414  0.0716 -1.2464
 7853TIP3   OH245049   4.675   4.830  13.564 -0.2696  0.4362  0.6682
 7853TIP3    H145050   4.672   4.805  13.657  1.6274  2.2796  1.3053
 7853TIP3    H245051   4.707   4.920  13.565 -0.9235  0.7466 -1.7811
 7854TIP3   OH245052   0.658   2.135  11.677  0.3069  0.0810  0.1809
 7854TIP3    H145053   0.679   2.196  11.748 -0.6397 -0.4581  0.9503
 7854TIP3    H245054   0.731   2.143  11.616  0.6669  1.2739  0.7319
 7855TIP3   OH245055   2.723   4.155   3.302 -0.1373 -0.3130 -0.1302
 7855TIP3    H145056   2.648   4.100   3.279 -0.0104 -0.5895  0.1204
 7855TIP3    H245057   2.798   4.114   3.260 -0.1060 -0.1016 -0.2828
 7856TIP3   OH245058   5.503   5.491  11.811 -0.6963  0.1747  0.5354
 7856TIP3    H145059   5.547   5.487  11.726 -0.1192  1.6482  0.7315
 7856TIP3    H245060   5.410   5.498  11.790 -0.6654 -0.6697  0.0714
 7857TIP3   OH245061   3.127   4.743   0.444 -0.0302  0.1809  0.3949
 7857TIP3    H145062   3.192   4.762   0.376 -0.2815 -2.1509 -0.5826
 7857TIP3    H245063   3.049   4.718   0.395 -1.2638  1.5674  1.5767
 7858TIP3   OH245064   5.978   0.026  12.110  0.1234  0.3295 -0.2630
 7858TIP3    H145065   6.004   0.114  12.084 -0.5629  0.5973 -0.0695
 7858TIP3    H245066   5.977  -0.025  12.029  2.0161  0.0870 -0.1836
 7859TIP3   OH245067   4.375   6.141   4.544  0.2350  0.6465 -0.7326
 7859TIP3    H145068   4.308   6.209   4.551 -0.9347 -0.6412  2.9982
 7859TIP3    H245069   4.337   6.076   4.483 -2.3090 -0.2768  1.6365
 7860TIP3   OH245070   1.984   2.163  15.649 -0.0334 -0.2919  0.1587
 7860TIP3    H145071   1.972   2.258  15.644  2.1053  0.0630  0.7484
 7860TIP3    H245072   2.078   2.151  15.664 -0.3183 -2.4942  0.5835
 7861TIP3   OH245073   5.005   4.937   1.164 -0.5380 -0.0548  0.9057
 7861TIP3    H145074   4.921   4.973   1.135 -0.7079 -1.2823 -0.2374
 7861TIP3    H245075   5.070   4.995   1.125 -0.8458  0.2872  0.8993
 7862TIP3   OH245076   2.813   1.596   3.853 -0.0802 -0.0462 -0.3195
 7862TIP3    H145077   2.883   1.536   3.877  0.5689  0.6266 -0.4866
 7862TIP3    H245078   2.856   1.682   3.849 -0.3658  0.0506 -2.8115
 7863TIP3   OH245079   2.621   6.277   2.475  0.5193 -0.5340 -0.3311
 7863TIP3    H145080   2.602   6.354   2.527 -0.2459  0.0481 -1.4251
 7863TIP3    H245081   2.715   6.264   2.483  1.5026  3.0232 -3.3820
 7864TIP3   OH245082   3.684   4.919  16.346  0.0567 -0.3943 -0.0499
 7864TIP3    H145083   3.777   4.902  16.357  0.0083 -1.6688 -1.3988
 7864TIP3    H245084   3.678   4.966  16.263 -0.5038 -0.1339  0.1288
 7865TIP3   OH245085   6.707   6.802   6.084 -0.0044  0.6051  0.0830
 7865TIP3    H145086   6.730   6.723   6.035  0.1380  0.0996  0.9401
 7865TIP3    H245087   6.613   6.794   6.099  0.4366 -0.9750  2.7577
 7866TIP3   OH245088   3.481   0.894   2.167 -0.7954  0.2067 -0.8704
 7866TIP3    H145089   3.451   0.803   2.161 -1.0968  0.1399  1.1113
 7866TIP3    H245090   3.415   0.944   2.119  0.3692 -0.7396 -3.6953
 7867TIP3   OH245091   4.145   2.674  12.249  0.2591 -0.7368  0.4665
 7867TIP3    H145092   4.141   2.754  12.302  2.0324 -1.8001  2.3040
 7867TIP3    H245093   4.229   2.679  12.204 -0.5701 -0.5848 -1.1415
 7868TIP3   OH245094   5.904   0.208   4.991 -0.0289  0.3829 -0.3567
 7868TIP3    H145095   5.983   0.158   4.972  0.3787  0.8460  0.0917
 7868TIP3    H245096   5.932   0.300   4.987 -0.4114  0.5395  0.3311
 7869TIP3   OH245097   5.293   3.409  15.131 -0.0502 -0.7850  0.1255
 7869TIP3    H145098   5.264   3.500  15.123 -0.8666 -0.8820  1.6908
 7869TIP3    H245099   5.221   3.358  15.095  0.5582 -0.8150 -1.0804
 7870TIP3   OH245100   4.999   3.263  16.080 -0.0149 -0.3683  0.3702
 7870TIP3    H145101   5.081   3.216  16.063 -0.3369 -0.8498  0.1281
 7870TIP3    H245102   5.014   3.306  16.165  1.1913  1.1609 -0.5605
 7871TIP3   OH245103   5.319   3.944  16.920 -0.4944 -0.0075  0.2216
 7871TIP3    H145104   5.276   3.973  16.839 -1.2392  0.0267  0.6173
 7871TIP3    H245105   5.313   3.849  16.917 -0.0064 -0.0355 -0.0302
 7872TIP3   OH245106   6.543   3.566   2.636  0.3956  0.0111  0.0802
 7872TIP3    H145107   6.599   3.504   2.591  0.0504  0.5415 -1.1212
 7872TIP3    H245108   6.497   3.613   2.566 -3.1993 -1.8437  0.9245
 7873TIP3   OH245109   5.819   0.865  14.292 -0.3428 -0.7386  0.0748
 7873TIP3    H145110   5.874   0.812  14.234 -0.5946  0.1066 -0.9694
 7873TIP3    H245111   5.879   0.897  14.359  0.0794 -1.2600 -0.0453
 7874TIP3   OH245112   0.270   0.874  15.346 -0.4351  0.5224  0.1367
 7874TIP3    H145113   0.343   0.935  15.331  0.9362 -0.8507  0.9865
 7874TIP3    H245114   0.261   0.870  15.441 -0.8245 -0.2495  0.0716
 7875TIP3   OH245115   1.101   3.062   2.507 -0.1935 -0.1314  0.1872
 7875TIP3    H145116   1.066   2.973   2.511 -1.3544  0.2861 -0.1347
 7875TIP3    H245117   1.188   3.052   2.467 -0.8068 -0.9957 -1.0147
 7876TIP3   OH245118   0.443   6.005   5.125  0.4339  0.0381 -0.4184
 7876TIP3    H145119   0.476   6.072   5.184  2.9812  0.5268 -2.2542
 7876TIP3    H245120   0.362   6.043   5.089  0.7159  1.1951  0.1339
 7877TIP3   OH245121   6.053   4.276   1.800  0.0602 -0.3697  0.3566
 7877TIP3    H145122   6.027   4.190   1.769  1.3973 -0.2823 -1.1577
 7877TIP3    H245123   6.098   4.316   1.726  2.8862  0.1409  2.1649
 7878TIP3   OH245124   5.413   3.372   3.784 -0.4188 -0.1275 -0.5275
 7878TIP3    H145125   5.346   3.323   3.831 -0.8351 -1.1035 -2.0338
 7878TIP3    H245126   5.369   3.401   3.704  0.0578  2.0582 -0.0658
 7879TIP3   OH245127   6.824   5.714   0.903 -0.2300 -0.1421 -0.3282
 7879TIP3    H145128   6.885   5.718   0.830  0.1439 -0.9208 -0.0667
 7879TIP3    H245129   6.795   5.623   0.907 -0.0781 -0.1688  0.6096
 7880TIP3   OH245130   5.503   5.436  14.004 -0.4245  0.5801 -0.1162
 7880TIP3    H145131   5.449   5.515  14.004 -0.6793  0.4080 -0.4266
 7880TIP3    H245132   5.461   5.378  13.940 -1.3718 -0.5858  1.4862
 7881TIP3   OH245133   2.997   0.791  12.549  0.3208  0.6634  0.0881
 7881TIP3    H145134   2.994   0.778  12.644  0.9730 -0.2219  0.0079
 7881TIP3    H245135   3.038   0.877  12.537 -2.1937  2.0106  0.6307
 7882TIP3   OH245136   5.218   4.342   5.003 -0.5294  0.4831  0.4508
 7882TIP3    H145137   5.189   4.390   4.926 -1.0038 -0.4895  0.0070
 7882TIP3    H245138   5.299   4.300   4.976 -1.2145 -0.6802  0.1288
 7883TIP3   OH245139   1.588   5.952   2.506 -0.2688 -0.1459  0.4921
 7883TIP3    H145140   1.609   6.041   2.475 -0.1879 -0.3304  0.0038
 7883TIP3    H245141   1.507   5.963   2.556  0.0734  0.3026  0.9691
 7884TIP3   OH245142   6.086   4.215  11.268 -0.3945 -0.1388  0.3762
 7884TIP3    H145143   6.013   4.277  11.262 -1.2524 -0.9979  1.2973
 7884TIP3    H245144   6.052   4.145  11.325  0.7064 -1.1976 -0.2283
 7885TIP3   OH245145   4.700   6.491   3.365 -0.9523 -1.0239  0.2440
 7885TIP3    H145146   4.736   6.423   3.307  2.2265  1.3302 -0.8303
 7885TIP3    H245147   4.643   6.543   3.308  0.8589  0.2878 -0.4794
 7886TIP3   OH245148   5.054   3.491   5.328  0.0787  0.0087  0.1771
 7886TIP3    H145149   4.969   3.486   5.371  0.6729  0.8202  1.5037
 7886TIP3    H245150   5.062   3.407   5.281 -1.6334  0.1236 -0.3845
 7887TIP3   OH245151   3.281   3.596   2.643  0.1721  0.1747 -0.3941
 7887TIP3    H145152   3.309   3.504   2.645 -0.3832 -0.0452  2.5825
 7887TIP3    H245153   3.342   3.641   2.702 -1.5801  0.9900  0.8920
 7888TIP3   OH245154   2.054   4.260   2.838 -0.0385 -0.2639  0.1470
 7888TIP3    H145155   1.973   4.245   2.789 -0.4382 -0.4486  0.8544
 7888TIP3    H245156   2.124   4.252   2.773 -0.5058 -1.3093 -0.2348
 7889TIP3   OH245157   3.205   5.059   2.668 -0.4144 -0.2164 -0.0209
 7889TIP3    H145158   3.250   5.137   2.700  0.5890 -0.0305 -1.7618
 7889TIP3    H245159   3.113   5.086   2.659  0.1117  1.1715 -1.7055
 7890TIP3   OH245160   0.026   1.950   1.227  0.0911 -0.2916 -0.0231
 7890TIP3    H145161  -0.020   1.966   1.310 -0.0362  1.2656 -0.3502
 7890TIP3    H245162  -0.032   1.986   1.160  0.6008 -0.7101 -0.7041
 7891TIP3   OH245163   3.763   0.975  14.041 -1.1474  0.3157 -0.4317
 7891TIP3    H145164   3.720   0.955  14.124 -1.6841  1.0879 -0.5106
 7891TIP3    H245165   3.822   0.901  14.026  0.1502  0.8878  1.4184
 7892TIP3   OH245166   4.511   0.321   5.566 -0.0348  0.0505  0.0925
 7892TIP3    H145167   4.592   0.371   5.567  0.4527 -0.7331  0.7442
 7892TIP3    H245168   4.461   0.354   5.640 -0.6636  1.0776 -0.7694
 7893TIP3   OH245169   2.356   2.775   3.759 -0.4368 -0.0045  0.1272
 7893TIP3    H145170   2.402   2.771   3.843  1.7590  0.6030 -0.9768
 7893TIP3    H245171   2.354   2.868   3.737 -0.1345 -0.2292 -0.9053
 7894TIP3   OH245172   1.257   3.643  15.445 -0.0078 -0.4304 -0.4335
 7894TIP3    H145173   1.232   3.677  15.531  1.8012 -0.6591  0.2376
 7894TIP3    H245174   1.189   3.579  15.423 -0.1861 -0.8056  1.1147
 7895TIP3   OH245175   0.646   6.835   2.856  0.1652 -0.1596  0.2191
 7895TIP3    H145176   0.590   6.889   2.800  0.2853 -1.0190 -0.7548
 7895TIP3    H245177   0.597   6.829   2.938 -0.8919 -0.3714 -0.3991
 7896TIP3   OH245178   2.255   2.180  15.630  0.1277  0.0404  0.2041
 7896TIP3    H145179   2.303   2.258  15.605  0.4981 -0.7900 -1.8638
 7896TIP3    H245180   2.321   2.123  15.670  0.6164 -0.5715 -1.4335
 7897TIP3   OH245181   3.002   0.547   4.786  0.4613  0.3587  0.3770
 7897TIP3    H145182   2.975   0.557   4.695  2.1964  0.7004 -0.1252
 7897TIP3    H245183   2.936   0.596   4.836 -1.0845 -0.6567 -0.5581
 7898TIP3   OH245184   2.261   5.806  12.764  0.1332  0.3120  0.6879
 7898TIP3    H145185   2.237   5.860  12.839 -1.7322  2.9829 -1.6212
 7898TIP3    H245186   2.254   5.864  12.689 -1.6389 -2.9900 -2.0105
 7899TIP3   OH245187   5.660   3.491  16.176  0.3597 -0.3784 -0.0849
 7899TIP3    H145188   5.723   3.457  16.239 -0.7723 -2.1152  0.1814
 7899TIP3    H245189   5.595   3.537  16.229  0.7676  0.4383 -0.2621
 7900TIP3   OH245190   6.581   3.851  16.289 -0.4512 -0.3334 -0.1520
 7900TIP3    H145191   6.610   3.910  16.219  1.9190 -0.1263  0.9023
 7900TIP3    H245192   6.622   3.767  16.269  1.0182 -0.0445  1.3824
 7901TIP3   OH245193   5.453   1.446   2.745 -0.6630 -0.2044 -0.1415
 7901TIP3    H145194   5.427   1.470   2.834  0.6401  0.5683  0.0510
 7901TIP3    H245195   5.500   1.363   2.755  0.2147  0.2987  0.0225
 7902TIP3   OH245196   5.126   6.023   2.233  0.6521 -0.0241  0.2402
 7902TIP3    H145197   5.170   5.947   2.195  0.4424  1.3967 -3.1191
 7902TIP3    H245198   5.032   6.004   2.222  0.6037  0.8697 -1.0494
 7903TIP3   OH245199   0.909   2.204   4.725 -0.2012  0.2651 -0.3132
 7903TIP3    H145200   0.929   2.195   4.632 -0.2237 -0.0788 -0.2836
 7903TIP3    H245201   0.970   2.145   4.770 -0.1818  0.4385 -0.1083
 7904TIP3   OH245202   6.243   2.000   2.145 -0.0723 -0.4539 -0.5419
 7904TIP3    H145203   6.206   2.017   2.231 -0.7733 -0.2457 -0.8774
 7904TIP3    H245204   6.273   2.086   2.115 -0.5275 -0.3865 -0.8188
 7905TIP3   OH245205   2.924   4.347   3.817  0.2618 -0.0476 -0.0148
 7905TIP3    H145206   2.977   4.360   3.895 -0.4070  1.0114  0.2877
 7905TIP3    H245207   2.955   4.414   3.755  0.9817 -1.0609 -0.7778
 7906TIP3   OH245208   1.360   1.809   3.712 -0.0483  0.1762  0.0088
 7906TIP3    H145209   1.324   1.785   3.798  0.9502 -0.5931  0.2236
 7906TIP3    H245210   1.353   1.905   3.710 -0.6386  0.1589  0.6980
 7907TIP3   OH245211   2.601   3.159   2.208  0.2500 -0.5641 -0.2892
 7907TIP3    H145212   2.661   3.138   2.279  1.1510 -0.7318 -1.0862
 7907TIP3    H245213   2.640   3.235   2.165 -1.0775  0.4944  0.3043
 7908TIP3   OH245214   6.031   1.437  12.264 -0.0720 -0.4684 -0.7965
 7908TIP3    H145215   6.086   1.380  12.210  2.6508 -1.1912  2.4092
 7908TIP3    H245216   6.092   1.498  12.305 -2.2244  1.2769  0.0037
 7909TIP3   OH245217   5.515   4.155  12.147 -0.5320 -0.2909  0.1274
 7909TIP3    H145218   5.557   4.186  12.227 -1.3803  2.7957 -0.4936
 7909TIP3    H245219   5.574   4.182  12.077 -0.6000 -1.4909 -0.4192
 7910TIP3   OH245220   5.858   0.079   2.802  0.2045  0.1718  0.4902
 7910TIP3    H145221   5.771   0.053   2.833  0.4502 -0.7508  0.4329
 7910TIP3    H245222   5.897  -0.002   2.769  0.4250  0.8890 -1.0886
 7911TIP3   OH245223   6.573   6.461  10.482  0.4796 -0.0559  0.1877
 7911TIP3    H145224   6.577   6.543  10.433 -0.0725  0.0280  0.2830
 7911TIP3    H245225   6.637   6.472  10.552 -0.3820  0.7353  0.8743
 7912TIP3   OH245226   5.044   4.049  14.042  0.4763  0.5818  0.3345
 7912TIP3    H145227   5.119   4.012  13.996  0.8906  1.2731  0.4375
 7912TIP3    H245228   5.011   4.118  13.984  0.2546  0.6405  0.5265
 7913TIP3   OH245229   3.257   6.084  12.922 -0.5308  0.6164  0.1712
 7913TIP3    H145230   3.339   6.133  12.925  0.0665 -0.3817  1.8467
 7913TIP3    H245231   3.263   6.033  12.841  0.5419  0.5224  0.2937
 7914TIP3   OH245232   0.826   2.345   0.433 -0.5638 -0.5750  0.3323
 7914TIP3    H145233   0.812   2.363   0.340  0.7268 -0.6953  0.0901
 7914TIP3    H245234   0.913   2.380   0.451  0.4293 -3.0282  0.7903
 7915TIP3   OH245235   6.009   4.733   2.191  0.1252  0.0697 -0.3602
 7915TIP3    H145236   6.102   4.751   2.187  0.1718  0.0318  0.3555
 7915TIP3    H245237   6.000   4.664   2.257 -0.1475 -1.8688 -2.2949
 7916TIP3   OH245238   2.584   3.636  16.987  0.3751 -0.0877  0.1529
 7916TIP3    H145239   2.495   3.656  17.014  0.7979  0.8333  0.9358
 7916TIP3    H245240   2.600   3.693  16.911  0.1511 -0.5784 -0.2643
 7917TIP3   OH245241   4.475   5.545   1.230 -0.0433  0.1477  0.1642
 7917TIP3    H145242   4.499   5.621   1.177  0.2411 -0.4199 -0.5483
 7917TIP3    H245243   4.489   5.573   1.320  3.2699 -0.0652 -0.1589
 7918TIP3   OH245244   2.844   1.426   2.484  0.3879  0.1118 -0.5657
 7918TIP3    H145245   2.901   1.350   2.495 -0.4284 -0.4263  0.0699
 7918TIP3    H245246   2.791   1.406   2.406 -1.4643 -1.0843  0.9135
 7919TIP3   OH245247   6.819   1.586   1.476  0.4829 -0.5875 -0.0643
 7919TIP3    H145248   6.735   1.622   1.449  0.7003  0.7034  0.9211
 7919TIP3    H245249   6.884   1.641   1.433  0.8750 -1.9164 -1.2741
 7920TIP3   OH245250   6.679   5.492  12.424  0.0703 -0.4386  0.2497
 7920TIP3    H145251   6.648   5.502  12.334  0.1372  0.0344  0.2757
 7920TIP3    H245252   6.610   5.531  12.478  1.1618  1.6103  0.2430
 7921TIP3   OH245253   2.400   4.066  12.376 -0.4441  0.2006  0.1146
 7921TIP3    H145254   2.347   3.990  12.351 -0.7236 -0.2180  1.8581
 7921TIP3    H245255   2.336   4.134  12.399 -0.2552 -0.0115  1.3523
 7922TIP3   OH245256   1.740   5.567   3.666 -0.0485 -0.0122 -0.2111
 7922TIP3    H145257   1.722   5.473   3.657  0.8191 -0.3308  1.0922
 7922TIP3    H245258   1.662   5.602   3.709 -0.5243 -0.0557 -1.0127
 7923TIP3   OH245259   3.947   4.664  13.638  0.0692 -0.0632  0.0810
 7923TIP3    H145260   4.021   4.622  13.682 -0.7412 -1.6983 -0.0677
 7923TIP3    H245261   3.986   4.706  13.561  0.7857 -1.5002 -0.3830
 7924TIP3   OH245262   2.356   2.073  13.471  0.1792 -0.0390  0.1193
 7924TIP3    H145263   2.351   2.017  13.548  0.1359  0.6303  0.6077
 7924TIP3    H245264   2.418   2.142  13.495 -0.9699  1.0313  0.1300
 7925TIP3   OH245265   2.394   5.067   4.204 -0.3595 -0.1073 -0.8220
 7925TIP3    H145266   2.469   5.098   4.152  1.2445 -0.3800  1.1843
 7925TIP3    H245267   2.406   4.972   4.208  0.8488  0.0514  1.7260
 7926TIP3   OH245268   4.108   6.435   2.766  0.0009 -0.6282 -0.3224
 7926TIP3    H145269   4.171   6.450   2.836  1.6991  0.3618 -1.9607
 7926TIP3    H245270   4.027   6.411   2.811  0.8134  0.6455  1.9860
 7927TIP3   OH245271   2.969   4.807  11.803 -0.0812  0.1476  0.0460
 7927TIP3    H145272   3.002   4.882  11.853 -2.1971  1.5309 -0.4995
 7927TIP3    H245273   2.895   4.775  11.856  0.5193 -1.3018  0.0427
 7928TIP3   OH245274   0.443   6.713  14.358  0.2153 -0.1061  0.3123
 7928TIP3    H145275   0.421   6.795  14.314  0.7862 -0.0956  0.0355
 7928TIP3    H245276   0.537   6.719  14.374  0.2386 -0.6520  0.3990
 7929TIP3   OH245277   6.771   1.530   4.149  0.0388 -0.0370 -0.2223
 7929TIP3    H145278   6.723   1.500   4.226 -1.5836  1.7994 -0.4387
 7929TIP3    H245279   6.732   1.483   4.076  1.0754 -1.2268 -0.0379
 7930TIP3   OH245280   5.697   5.431  16.225  0.7141 -0.0249 -0.3080
 7930TIP3    H145281   5.649   5.411  16.306  0.0165  1.0896 -0.4282
 7930TIP3    H245282   5.750   5.353  16.209 -3.2820 -2.7623 -1.7765
 7931TIP3   OH245283   5.916   3.672   1.452  0.1803  0.2053 -0.5660
 7931TIP3    H145284   5.875   3.646   1.370 -3.6953  1.0102  0.9293
 7931TIP3    H245285   5.909   3.595   1.508  0.2504  0.5245 -0.1146
 7932TIP3   OH245286   0.113   1.391   4.298 -0.1930  0.2745 -0.1196
 7932TIP3    H145287   0.096   1.426   4.386 -0.9309  2.1125 -0.9577
 7932TIP3    H245288   0.096   1.464   4.239  0.0221 -1.0085 -1.8380
 7933TIP3   OH245289   3.339   6.452  16.939  0.7677  0.4881  0.2258
 7933TIP3    H145290   3.411   6.473  16.880  0.7710 -1.7801 -0.6889
 7933TIP3    H245291   3.263   6.495  16.899  1.1042  0.4944 -0.4340
 7934TIP3   OH245292   5.156   1.100  16.621  0.0488  0.1701 -0.0553
 7934TIP3    H145293   5.142   1.073  16.712 -0.1423  1.3494  0.2866
 7934TIP3    H245294   5.104   1.039  16.570 -1.1220  0.4522  0.7536
 7935TIP3   OH245295   6.001   4.157  10.871 -0.0627  0.1064  0.2300
 7935TIP3    H145296   5.919   4.109  10.870  0.7213 -1.3669  1.5146
 7935TIP3    H245297   6.028   4.163  10.780 -0.0412 -2.2340  0.0247
 7936TIP3   OH245298   2.745   1.757  13.152  0.2333 -0.3877 -0.2238
 7936TIP3    H145299   2.708   1.712  13.076  0.6824 -0.8455 -0.1818
 7936TIP3    H245300   2.676   1.754  13.218 -0.3919  0.5707 -0.8136
 7937TIP3   OH245301   6.743   1.329  14.502  0.1265 -0.0619 -0.6615
 7937TIP3    H145302   6.700   1.246  14.520 -2.2753  0.9904 -1.1516
 7937TIP3    H245303   6.790   1.350  14.583  1.3496 -2.1419 -0.7550
 7938TIP3   OH245304   4.742   5.833  14.910 -0.2046 -0.2678  0.6196
 7938TIP3    H145305   4.657   5.790  14.902 -0.4136  0.0711  0.9601
 7938TIP3    H245306   4.739   5.876  14.996 -0.7412  2.0226 -0.4840
 7939TIP3   OH245307   0.153   2.727  11.190 -0.4397  0.3749  0.1704
 7939TIP3    H145308   0.194   2.789  11.250 -0.3990 -0.3855  0.9408
 7939TIP3    H245309   0.071   2.703  11.234  0.6873 -2.0260  1.1276
 7940TIP3   OH245310   3.200   6.240   5.397 -0.6873 -0.0828  0.3273
 7940TIP3    H145311   3.221   6.287   5.316  0.1888  0.7227  1.0050
 7940TIP3    H245312   3.117   6.277   5.425  1.1326  3.0108  2.1846
 7941TIP3   OH245313   2.769   5.223  13.237  0.0013  0.1663  0.0332
 7941TIP3    H145314   2.830   5.293  13.212 -0.6029  0.2908 -1.1326
 7941TIP3    H245315   2.817   5.174  13.304  1.1704  0.5891 -0.4543
 7942TIP3   OH245316   6.048   0.202  17.159 -0.4266  0.7196  0.1203
 7942TIP3    H145317   6.135   0.217  17.196  1.0276 -0.8579 -2.3536
 7942TIP3    H245318   6.040   0.270  17.091 -1.1358  0.8339  0.3137
 7943TIP3   OH245319   4.267   6.500  14.770  0.3173  0.0741 -0.0553
 7943TIP3    H145320   4.317   6.581  14.764 -0.5484  0.8667  2.1713
 7943TIP3    H245321   4.216   6.510  14.851  1.0684 -3.1811  0.9530
 7944TIP3   OH245322   5.415   3.933  12.679  0.2407  0.1984 -0.6954
 7944TIP3    H145323   5.445   3.851  12.719  3.1528  1.6784  0.4524
 7944TIP3    H245324   5.394   3.910  12.589  3.3578 -1.4520 -1.1414
 7945TIP3   OH245325   5.572   0.063  14.620  0.6986  0.1077  0.0888
 7945TIP3    H145326   5.540   0.121  14.551  2.0304 -0.5687 -1.1557
 7945TIP3    H245327   5.661   0.094  14.638  1.1235 -1.0279 -0.0050
 7946TIP3   OH245328   5.433   4.349  14.416 -0.0573  0.7313  0.3358
 7946TIP3    H145329   5.369   4.279  14.430 -0.4514  0.4658 -2.2580
 7946TIP3    H245330   5.438   4.395  14.500 -0.9173 -1.4650  1.6693
 7947TIP3   OH245331   6.145   1.483   2.723  0.0301 -0.6298 -0.5802
 7947TIP3    H145332   6.068   1.450   2.769  0.4110  0.5301  0.9722
 7947TIP3    H245333   6.109   1.524   2.644 -0.7882 -1.3754 -0.6169
 7948TIP3   OH245334   3.186   6.741  17.032 -0.3062  0.5821  0.1022
 7948TIP3    H145335   3.178   6.704  16.944  0.8029 -0.8087  0.5457
 7948TIP3    H245336   3.264   6.796  17.028  0.4058 -0.3589  0.4600
 7949TIP3   OH245337   6.120   2.303  16.080 -0.0129 -0.4432  0.9053
 7949TIP3    H145338   6.161   2.280  15.996 -0.0399  0.0144  0.7672
 7949TIP3    H245339   6.134   2.226  16.135  2.2650  0.2239  1.3324
 7950TIP3   OH245340   5.932   6.517   3.066 -0.4602  0.8479 -0.6053
 7950TIP3    H145341   5.941   6.493   3.158  2.6190  0.2022 -0.9399
 7950TIP3    H245342   5.846   6.557   3.059 -1.7649 -1.2191  2.0501
 7951TIP3   OH245343   3.665   0.821  16.586  0.1228 -0.0540  0.2173
 7951TIP3    H145344   3.752   0.836  16.550  0.9372 -3.7058  0.3115
 7951TIP3    H245345   3.607   0.821  16.510  0.2102  1.9205  0.1027
 7952TIP3   OH245346   4.221   1.358   0.645 -0.4041  0.3188 -0.2379
 7952TIP3    H145347   4.305   1.363   0.691 -0.5732 -0.3242  0.1573
 7952TIP3    H245348   4.156   1.381   0.711 -0.5802  0.3064 -0.4065
 7953TIP3   OH245349   2.356   5.832   2.640  0.2916  0.6640 -0.1439
 7953TIP3    H145350   2.283   5.849   2.700  0.1222  0.2172 -0.2220
 7953TIP3    H245351   2.414   5.908   2.651 -0.2893  1.1357 -0.2441
 7954TIP3   OH245352   0.674   4.999  11.638 -0.1949 -0.3327  0.1659
 7954TIP3    H145353   0.739   5.048  11.589  0.3384  0.0189  1.1882
 7954TIP3    H245354   0.720   4.920  11.667 -1.8354 -3.2106 -4.0815
 7955TIP3   OH245355   2.306   1.535   5.553 -0.2157 -0.3864 -0.0462
 7955TIP3    H145356   2.318   1.446   5.586  0.4428 -0.5367 -0.6824
 7955TIP3    H245357   2.250   1.577   5.619  2.1763 -0.2424  2.0472
 7956TIP3   OH245358   5.265   3.047   0.069 -0.0544  0.0404 -0.0692
 7956TIP3    H145359   5.192   2.986   0.055 -0.9220  1.0338 -0.0562
 7956TIP3    H245360   5.317   3.008   0.138 -0.9377 -0.3878  0.3684
 7957TIP3   OH245361   4.827   2.365   3.498 -0.0643 -0.4704  0.1360
 7957TIP3    H145362   4.847   2.449   3.456  0.7797  0.5184  2.3648
 7957TIP3    H245363   4.741   2.340   3.463  0.1389  0.7809 -1.3477
 7958TIP3   OH245364   2.491   3.506  14.347  0.3180  0.1507 -0.7991
 7958TIP3    H145365   2.569   3.513  14.403 -0.1901  0.3831 -0.1028
 7958TIP3    H245366   2.510   3.431  14.290 -0.0171 -1.4959  1.1435
 7959TIP3   OH245367   5.737   4.745  12.483  0.4047  0.3580 -0.0933
 7959TIP3    H145368   5.791   4.783  12.413  0.6134  3.5960  1.6120
 7959TIP3    H245369   5.768   4.655  12.491  1.0674  0.1565 -3.4077
 7960TIP3   OH245370   4.599   2.073   0.426  0.1477 -0.3042  0.2992
 7960TIP3    H145371   4.622   2.052   0.336  1.8690 -1.7026  1.0127
 7960TIP3    H245372   4.677   2.051   0.477 -0.1740  1.9960  1.9568
 7961TIP3   OH245373   5.569   4.546   4.767  0.0379 -0.0509  0.5673
 7961TIP3    H145374   5.568   4.450   4.765 -1.8418 -0.0724 -2.1204
 7961TIP3    H245375   5.622   4.567   4.844 -0.2538 -3.2295  1.8189
 7962TIP3   OH245376   2.479   2.817   4.010  0.0416  0.0258  0.6016
 7962TIP3    H145377   2.403   2.875   4.017  0.3583  0.5282  0.0598
 7962TIP3    H245378   2.554   2.875   4.021  0.3462 -0.5394  1.5908
 7963TIP3   OH245379   6.336   3.564  12.998  0.1961 -0.9461  0.8935
 7963TIP3    H145380   6.258   3.520  12.965 -0.1627  0.2467  0.0850
 7963TIP3    H245381   6.402   3.495  13.005 -1.0242 -2.0562  1.9636
 7964TIP3   OH245382   2.658   0.735   5.921 -0.1675 -0.2018  0.2874
 7964TIP3    H145383   2.708   0.801   5.969 -0.6019 -0.2744  0.8669
 7964TIP3    H245384   2.674   0.754   5.829 -1.9961  2.1388  0.3291
 7965TIP3   OH245385   1.463   1.129   3.062 -0.0696  0.2941 -0.3769
 7965TIP3    H145386   1.420   1.198   3.112 -0.7719 -0.3510 -0.0643
 7965TIP3    H245387   1.394   1.064   3.046  0.2761  0.2226 -1.7132
 7966TIP3   OH245388   6.717   2.671  16.341 -0.1629 -0.2698 -0.2779
 7966TIP3    H145389   6.661   2.748  16.330 -2.0466 -1.5878 -0.2331
 7966TIP3    H245390   6.700   2.618  16.264  0.8589 -0.8324 -0.1353
 7967TIP3   OH245391   2.868   1.080  12.819 -0.0055  0.3665  0.0218
 7967TIP3    H145392   2.880   1.063  12.726 -0.7680 -0.5834  0.0856
 7967TIP3    H245393   2.780   1.049  12.839 -0.5575  2.2380  0.6901
 7968TIP3   OH245394   5.655   6.477   2.504 -0.2883  0.6396  0.0075
 7968TIP3    H145395   5.714   6.522   2.444 -0.0984  0.2192 -0.1217
 7968TIP3    H245396   5.593   6.432   2.447  0.3891 -0.4431  0.0995
 7969TIP3   OH245397   4.462   5.556  15.641 -0.3671 -1.1044 -0.1021
 7969TIP3    H145398   4.491   5.482  15.586  0.0513  0.6086 -2.3556
 7969TIP3    H245399   4.434   5.622  15.578  0.9700  1.3766  1.7200
 7970TIP3   OH245400   1.897   2.093  13.362 -0.6572 -0.1855 -0.0268
 7970TIP3    H145401   1.895   2.068  13.454  1.2975  0.9642  0.3924
 7970TIP3    H245402   1.990   2.094  13.339 -0.8333  2.5206 -1.0957
 7971TIP3   OH245403   1.659   3.643   3.591  0.2752 -0.8243  0.6779
 7971TIP3    H145404   1.579   3.615   3.546 -0.0501  0.4496  0.3943
 7971TIP3    H245405   1.724   3.576   3.571  0.0792 -0.4318 -1.5580
 7972TIP3   OH245406   4.922   0.120   1.307  0.2745  0.1845  0.0373
 7972TIP3    H145407   4.890   0.203   1.341 -3.9708 -1.8627  1.7476
 7972TIP3    H245408   4.965   0.078   1.381  1.5057  0.4069 -0.5343
 7973TIP3   OH245409   3.707   5.409  11.769  0.0243  0.1989  0.1081
 7973TIP3    H145410   3.733   5.391  11.678 -2.0110 -0.1611 -0.4607
 7973TIP3    H245411   3.655   5.333  11.794 -0.9183  1.0907  0.9495
 7974TIP3   OH245412   1.357   4.532  13.759 -0.0533 -0.1274  0.6699
 7974TIP3    H145413   1.434   4.475  13.762  0.6485  0.6622 -1.3158
 7974TIP3    H245414   1.298   4.489  13.698  0.1244  0.8099 -0.1844
 7975TIP3   OH245415   3.611   4.675   2.766  0.2173  0.1312  0.2793
 7975TIP3    H145416   3.552   4.692   2.840 -0.8145  2.2287 -0.9355
 7975TIP3    H245417   3.560   4.620   2.707  0.8322 -1.0458  0.7936
 7976TIP3   OH245418   5.454   5.467  15.200 -0.1118  0.0859  0.4220
 7976TIP3    H145419   5.420   5.537  15.145  0.4170  0.7142  0.8806
 7976TIP3    H245420   5.419   5.386  15.161  0.1784  0.5235 -0.7623
 7977TIP3   OH245421   0.972   6.325   6.079  0.1587  0.3440 -0.0263
 7977TIP3    H145422   0.928   6.307   6.162 -1.9702 -1.6067 -1.4842
 7977TIP3    H245423   1.018   6.244   6.057  1.9243  1.3045 -0.1381
 7978TIP3   OH245424   6.568   3.650  14.300  0.4525 -0.3094 -0.0018
 7978TIP3    H145425   6.562   3.637  14.394 -1.7800 -1.5765 -0.2450
 7978TIP3    H245426   6.482   3.624  14.266  1.1656  0.1345 -2.3883
 7979TIP3   OH245427   6.426   0.895  11.116  0.1054 -0.4734  0.2406
 7979TIP3    H145428   6.482   0.964  11.082 -0.5564 -0.3874 -0.7240
 7979TIP3    H245429   6.458   0.815  11.075 -0.5101 -0.4127 -0.3792
 7980TIP3   OH245430   4.626   1.627  14.385 -0.5894  0.2781  0.9652
 7980TIP3    H145431   4.684   1.610  14.311 -2.0206 -0.3692 -0.0530
 7980TIP3    H245432   4.563   1.691  14.353 -3.5644 -2.7123  0.2336
 7981TIP3   OH245433   5.466   6.255  10.651 -0.5833 -0.1490 -0.4329
 7981TIP3    H145434   5.439   6.328  10.708  1.0530 -0.2252  0.4918
 7981TIP3    H245435   5.421   6.179  10.688 -1.1139  0.1268 -0.4916
 7982TIP3   OH245436   5.392   2.293  15.917 -0.2456 -0.0101  0.4025
 7982TIP3    H145437   5.398   2.242  15.837 -0.3602 -3.4988  2.4064
 7982TIP3    H245438   5.478   2.333  15.927 -0.0439 -0.0238 -1.1194
 7983TIP3   OH245439   4.613   0.642   4.754 -0.4740 -0.3526 -0.1909
 7983TIP3    H145440   4.633   0.702   4.826 -0.5961 -0.3839 -0.1303
 7983TIP3    H245441   4.673   0.668   4.685 -0.3948 -0.2841 -0.0978
 7984TIP3   OH245442   4.567   5.503   5.135 -0.4438  0.9902 -0.1606
 7984TIP3    H145443   4.598   5.439   5.199 -0.0634 -0.2367 -1.5104
 7984TIP3    H245444   4.472   5.492   5.134 -0.7172  2.6774  1.8451
 7985TIP3   OH245445   4.093   0.534  15.381 -0.6275 -0.0517 -0.5520
 7985TIP3    H145446   4.050   0.522  15.295 -1.0872  1.0438 -0.4918
 7985TIP3    H245447   4.148   0.456  15.391  1.3187  0.8845 -2.9368
 7986TIP3   OH245448   5.749   4.003  10.925  0.1395 -0.1829  0.3616
 7986TIP3    H145449   5.658   4.028  10.940  0.0132 -0.0150 -0.6096
 7986TIP3    H245450   5.770   3.943  10.997 -0.8425 -0.4887  0.4038
 7987TIP3   OH245451   4.239   2.492   0.498 -0.6838  0.5091 -0.1009
 7987TIP3    H145452   4.160   2.458   0.456  0.5173 -0.3588 -1.7740
 7987TIP3    H245453   4.280   2.415   0.537 -0.8488  1.0271  1.1415
 7988TIP3   OH245454   6.025   4.034  14.215  0.6132  0.2042 -0.3093
 7988TIP3    H145455   5.949   4.036  14.156  0.1383 -0.1967  0.2664
 7988TIP3    H245456   6.015   4.112  14.269  0.7484  0.2875 -0.4069
 7989TIP3   OH245457   5.561   5.895   3.195 -0.4326  0.4979  0.1204
 7989TIP3    H145458   5.578   5.842   3.273 -2.0257  0.2816  0.3509
 7989TIP3    H245459   5.594   5.982   3.218  0.1666  0.1522  0.5888
 7990TIP3   OH245460   2.581   3.759  11.164 -0.5613 -0.1728 -0.1849
 7990TIP3    H145461   2.663   3.711  11.171 -1.4371 -1.5389  1.2363
 7990TIP3    H245462   2.603   3.848  11.191  1.1437  0.4402 -3.0791
 7991TIP3   OH245463   0.846   3.963   3.712 -0.5177  0.6985 -0.4322
 7991TIP3    H145464   0.839   4.051   3.748 -0.5162  0.4830  0.1149
 7991TIP3    H245465   0.787   3.962   3.637 -2.1682  0.5501  0.8169
 7992TIP3   OH245466   1.639   5.346  11.393  0.0464  0.4159  0.0976
 7992TIP3    H145467   1.639   5.441  11.383 -0.5902  0.6330  1.7643
 7992TIP3    H245468   1.551   5.318  11.368  0.2916  0.2250 -0.5781
 7993TIP3   OH245469   4.196   4.759   3.087  0.3539  0.0609 -0.3213
 7993TIP3    H145470   4.223   4.820   3.155  1.5552 -0.8373  0.0360
 7993TIP3    H245471   4.277   4.719   3.057 -0.2982 -0.5286 -1.3562
 7994TIP3   OH245472   6.589   6.714   4.138  0.3682  0.0413  0.5277
 7994TIP3    H145473   6.534   6.747   4.209 -0.7941  0.1335 -0.3866
 7994TIP3    H245474   6.652   6.785   4.121 -0.8675  1.0130 -0.1180
 7995TIP3   OH245475   3.516   6.434  13.904 -0.1025  0.0978  0.5756
 7995TIP3    H145476   3.562   6.414  13.986  0.1255 -0.4762  0.3128
 7995TIP3    H245477   3.515   6.351  13.856  1.2134  0.7880 -0.7274
 7996TIP3   OH245478   2.009   5.778  12.281 -0.0419  0.3039 -0.2045
 7996TIP3    H145479   2.011   5.705  12.343  1.0710 -0.5663 -1.1895
 7996TIP3    H245480   2.066   5.749  12.209 -0.7169  1.5642 -1.2942
 7997TIP3   OH245481   0.885   0.186   4.437  0.3463  0.1056 -0.2199
 7997TIP3    H145482   0.797   0.214   4.411  0.9265  0.6616 -1.7353
 7997TIP3    H245483   0.943   0.243   4.387  1.5697 -0.2411  0.7786
 7998TIP3   OH245484   5.423   1.971  13.282  0.1161  0.1728  0.6280
 7998TIP3    H145485   5.382   2.024  13.351 -1.9186 -0.5070 -0.0043
 7998TIP3    H245486   5.433   2.031  13.208  0.2278  0.3287  0.7690
 7999TIP3   OH245487   6.725   6.152  13.656  0.4698 -0.1276 -0.4031
 7999TIP3    H145488   6.721   6.064  13.619 -1.0755  0.4455 -1.7180
 7999TIP3    H245489   6.799   6.193  13.612  0.0007 -0.1600 -1.2330
 8000TIP3   OH245490   5.159   2.351   5.433  0.2198  0.0089  0.2859
 8000TIP3    H145491   5.175   2.274   5.488  0.3075 -1.8593 -2.1865
 8000TIP3    H245492   5.127   2.315   5.350  1.0535  2.5972 -1.2727
 8001TIP3   OH245493   4.142   2.901   5.261  0.1844 -0.5909 -0.2377
 8001TIP3    H145494   4.220   2.847   5.260 -0.7088 -1.9299 -1.6501
 8001TIP3    H245495   4.108   2.893   5.350  0.9483 -1.0046  0.0226
 8002TIP3   OH245496   2.940   0.749  13.993 -0.0491  0.2321  0.6651
 8002TIP3    H145497   2.885   0.694  14.049  1.4223 -1.5459  0.4632
 8002TIP3    H245498   2.943   0.833  14.037 -0.0630 -0.7082  2.5335
 8003TIP3   OH245499   6.347   0.310  12.241  0.5218  0.0091  0.5064
 8003TIP3    H145500   6.362   0.245  12.172 -2.2790  0.2768 -0.4864
 8003TIP3    H245501   6.304   0.261  12.311 -1.4001  0.6622 -0.1564
 8004TIP3   OH245502   4.703   5.731   5.300 -0.1624  0.5114 -0.5524
 8004TIP3    H145503   4.786   5.724   5.253 -0.0896 -0.1789 -0.3186
 8004TIP3    H245504   4.643   5.676   5.251  0.6218 -2.6734  1.7312
 8005TIP3   OH245505   0.165   0.696  12.041  1.1320 -0.5412 -0.0392
 8005TIP3    H145506   0.226   0.625  12.060  0.3586 -1.1238  0.2917
 8005TIP3    H245507   0.099   0.690  12.110  0.0644 -0.6447 -1.0505
 8006TIP3   OH245508   2.375   0.789   5.788 -0.1314 -0.2126 -0.3484
 8006TIP3    H145509   2.432   0.720   5.822 -0.2306 -0.4331 -0.6301
 8006TIP3    H245510   2.288   0.768   5.824  0.4124  1.6084  2.3143
 8007TIP3   OH245511   6.096   5.661  14.044 -0.5194  0.2814 -0.6864
 8007TIP3    H145512   6.179   5.614  14.054 -0.0592  0.8434 -1.6585
 8007TIP3    H245513   6.082   5.703  14.129 -0.0282 -0.1753 -0.3763
 8008TIP3   OH245514   1.610   5.141  13.562  0.1465 -0.4346 -0.2712
 8008TIP3    H145515   1.594   5.101  13.477  0.3904 -1.5298  0.1813
 8008TIP3    H245516   1.535   5.116  13.615 -0.2436  0.6479 -0.2873
 8009TIP3   OH245517   0.626   4.394   2.287 -0.1050  0.0368  0.0819
 8009TIP3    H145518   0.600   4.472   2.337  0.6572 -0.5976  1.5185
 8009TIP3    H245519   0.571   4.396   2.209 -0.3047  1.8592  0.2273
 8010TIP3   OH245520   3.262   5.740   1.476 -0.0047 -0.2586 -0.4229
 8010TIP3    H145521   3.335   5.736   1.414 -0.3471  1.0222 -0.9328
 8010TIP3    H245522   3.238   5.832   1.479  0.9331 -0.0199  2.7531
 8011TIP3   OH245523   4.359   4.849  12.086 -0.5162  0.1487 -0.2563
 8011TIP3    H145524   4.425   4.893  12.032 -0.6069 -0.6892 -1.0706
 8011TIP3    H245525   4.288   4.913  12.091 -0.2282  0.5057 -0.5626
 8012TIP3   OH245526   1.422   5.099  13.738 -0.5815  0.2260 -0.0401
 8012TIP3    H145527   1.435   5.004  13.736  1.7356  0.4294  1.6335
 8012TIP3    H245528   1.366   5.113  13.814 -2.5566  0.1291 -1.3983
 8013TIP3   OH245529   6.811   0.367   2.928 -0.7915  0.0029 -0.3222
 8013TIP3    H145530   6.831   0.275   2.945  1.4090  0.4753  0.0423
 8013TIP3    H245531   6.718   0.376   2.946 -0.6660 -1.7466  1.5000
 8014TIP3   OH245532   3.181   0.778   3.740  0.1057  0.5952 -0.2690
 8014TIP3    H145533   3.113   0.723   3.780  0.6061  1.0795  1.3086
 8014TIP3    H245534   3.132   0.841   3.688 -0.7466  1.4005  1.4290
 8015TIP3   OH245535   0.244   5.262   2.190 -0.1954 -0.0176  0.2122
 8015TIP3    H145536   0.236   5.167   2.190 -1.2055  0.0364 -0.9103
 8015TIP3    H245537   0.172   5.292   2.133  0.8728  1.3432 -0.4864
 8016TIP3   OH245538   2.267   4.010   0.477  0.5149  0.1624 -0.3344
 8016TIP3    H145539   2.207   3.965   0.536 -2.2698  0.6214 -2.5959
 8016TIP3    H245540   2.354   3.989   0.511 -0.7978 -2.4854  1.7889
 8017TIP3   OH245541   4.828   4.923  16.386  0.1386  0.7220  0.0913
 8017TIP3    H145542   4.787   4.903  16.302  1.8088  1.2545 -0.9164
 8017TIP3    H245543   4.888   4.849  16.400  3.1829  2.6700 -1.5199
 8018TIP3   OH245544   5.186   1.414  13.776  0.3298  0.1485  0.0329
 8018TIP3    H145545   5.237   1.353  13.723 -1.4813 -0.1902 -1.4563
 8018TIP3    H245546   5.230   1.498  13.767  1.7379 -0.5208  0.4766
 8019TIP3   OH245547   0.149   6.744  16.483  0.3402 -0.4925  0.6234
 8019TIP3    H145548   0.100   6.791  16.550 -2.4844 -1.2785 -0.7229
 8019TIP3    H245549   0.158   6.807  16.411 -1.4637 -1.1874 -0.2918
 8020TIP3   OH245550   3.135   4.187  11.282 -0.8165 -0.5125 -0.1813
 8020TIP3    H145551   3.125   4.092  11.276 -0.9842 -0.5361  0.3885
 8020TIP3    H245552   3.129   4.218  11.192 -0.6822 -1.0517 -0.3783
 8021TIP3   OH245553   4.121   6.304  11.799  0.4922  0.4056  0.4612
 8021TIP3    H145554   4.140   6.256  11.880 -1.0715  0.8988  1.1409
 8021TIP3    H245555   4.058   6.249  11.753  1.5793 -0.0076 -0.5884
 8022TIP3   OH245556   6.031   5.832  15.177  0.4061  0.1411 -0.3697
 8022TIP3    H145557   5.970   5.845  15.105 -0.4126 -0.6120  0.1609
 8022TIP3    H245558   6.102   5.895  15.161 -0.5334  1.0784 -0.9693
 8023TIP3   OH245559   5.729   1.697  12.224 -0.3119 -0.3512 -0.3772
 8023TIP3    H145560   5.806   1.641  12.229 -0.8238 -0.9374  2.1080
 8023TIP3    H245561   5.758   1.783  12.255 -0.2374 -0.0458 -1.2658
 8024TIP3   OH245562   5.452   3.030  11.897  0.3753  0.7400 -0.1896
 8024TIP3    H145563   5.440   2.966  11.828  0.2631  0.9848 -0.3984
 8024TIP3    H245564   5.483   2.979  11.972 -0.0495  0.3959 -0.2468
 8025TIP3   OH245565   5.117   5.933  11.401  0.0097 -0.5640 -0.3234
 8025TIP3    H145566   5.167   5.980  11.334  1.0186 -2.7415 -1.2109
 8025TIP3    H245567   5.110   5.844  11.367 -3.4750 -0.7009  0.3540
 8026TIP3   OH245568   3.919   4.768   5.490  0.0685 -1.1081  0.1194
 8026TIP3    H145569   3.861   4.693   5.498 -1.2370 -0.3120 -1.2267
 8026TIP3    H245570   3.943   4.770   5.397  0.8776 -0.4314  0.3244
 8027TIP3   OH245571   0.598   5.980   4.488 -0.2276 -0.0758 -0.5268
 8027TIP3    H145572   0.570   5.907   4.542  1.1970  0.8026  1.5471
 8027TIP3    H245573   0.519   6.009   4.443 -0.8250 -2.8682 -1.4827
 8028TIP3   OH245574   6.677   5.408  12.052 -0.4496 -0.0675  0.4070
 8028TIP3    H145575   6.653   5.499  12.065 -0.3720  0.0271 -0.0842
 8028TIP3    H245576   6.770   5.404  12.074 -0.8600 -0.4205  2.2472
 8029TIP3   OH245577   3.436   6.839   0.007  0.3368  0.3686  0.4202
 8029TIP3    H145578   3.509   6.799   0.054 -0.5753  0.5752  2.0775
 8029TIP3    H245579   3.358   6.808   0.053 -0.6029  0.5138 -1.0306
 8030TIP3   OH245580   5.808   1.306  11.893  0.2175  0.0657  0.4217
 8030TIP3    H145581   5.745   1.273  11.957  1.0128  0.4947  1.4661
 8030TIP3    H245582   5.824   1.232  11.835 -0.7615 -0.2369  0.5170
 8031TIP3   OH245583   5.687   2.225  16.537  0.8358  0.1180  0.3525
 8031TIP3    H145584   5.635   2.196  16.462  1.5479  0.1184 -0.1509
 8031TIP3    H245585   5.646   2.182  16.613 -0.3805  0.7464  0.0783
 8032TIP3   OH245586   3.909   1.494  11.439 -0.2932  0.2290  0.7752
 8032TIP3    H145587   3.956   1.544  11.373 -0.0808  1.1917  1.6186
 8032TIP3    H245588   3.942   1.405  11.431 -0.2326  0.3425 -0.3546
 8033TIP3   OH245589   4.306   0.824  12.509 -0.2816  0.1296 -0.4556
 8033TIP3    H145590   4.213   0.846  12.512  0.1891  2.3583 -0.9032
 8033TIP3    H245591   4.351   0.905  12.530  1.6146 -0.2495 -2.6481
 8034TIP3   OH245592   1.532   5.208  14.160  0.4768 -0.0992 -0.2045
 8034TIP3    H145593   1.537   5.155  14.240 -0.4211 -1.0579 -0.7630
 8034TIP3    H245594   1.622   5.236  14.143  0.7208 -0.1121  0.9775
 8035TIP3   OH245595   5.561   3.155   5.402 -0.1454  0.3093 -0.1441
 8035TIP3    H145596   5.627   3.095   5.366 -1.0217 -0.2450 -0.8702
 8035TIP3    H245597   5.548   3.220   5.333 -2.6165 -1.3632 -1.3935
 8036TIP3   OH245598   0.499   6.663   4.311  0.2515 -0.3074  0.1488
 8036TIP3    H145599   0.590   6.694   4.311  0.4707 -0.9182 -0.0998
 8036TIP3    H245600   0.506   6.570   4.333  0.0722 -1.2850 -3.2166
 8037TIP3   OH245601   2.306   5.064   5.303 -0.2483  0.1960  0.3227
 8037TIP3    H145602   2.290   5.108   5.219  0.8214 -1.1036 -0.6160
 8037TIP3    H245603   2.280   5.127   5.369 -2.9138  0.5808 -0.9850
 8038TIP3   OH245604   4.356   1.730   0.736 -0.1463  0.1606  0.2786
 8038TIP3    H145605   4.403   1.653   0.768 -0.1022 -0.5576 -1.4035
 8038TIP3    H245606   4.410   1.762   0.663 -0.2199  1.7390  0.8821
 8039TIP3   OH245607   1.523   5.370  15.464 -0.3053  0.4164 -0.2427
 8039TIP3    H145608   1.476   5.448  15.493 -2.5653 -0.1252 -2.1328
 8039TIP3    H245609   1.477   5.343  15.384  1.5581 -1.7934 -0.6603
 8040TIP3   OH245610   4.500   6.026   0.568 -0.0742 -0.2445 -0.0971
 8040TIP3    H145611   4.431   5.974   0.528 -0.2014  0.4086 -0.7532
 8040TIP3    H245612   4.530   5.974   0.642 -0.8828 -0.7866 -0.1411
 8041TIP3   OH245613   1.699   1.555   1.714  0.6433  0.2577  0.2567
 8041TIP3    H145614   1.711   1.460   1.713  2.3448  0.4405  0.1513
 8041TIP3    H245615   1.681   1.578   1.623  1.0997  0.1186  0.1276
 8042TIP3   OH245616   3.889   6.483  10.330  0.7698  0.8061  0.3344
 8042TIP3    H145617   3.896   6.441  10.415 -0.9335 -0.6747 -0.2106
 8042TIP3    H245618   3.878   6.576  10.350  0.2938  0.4690  1.7262
 8043TIP3   OH245619   6.810   4.212  14.049 -0.9630  0.1902 -0.2641
 8043TIP3    H145620   6.892   4.182  14.009 -0.8990 -0.5106  0.3586
 8043TIP3    H245621   6.837   4.273  14.117 -0.7683 -1.5419  1.3131
 8044TIP3   OH245622   3.955   1.905   0.872 -0.1451 -0.0013  0.0095
 8044TIP3    H145623   4.013   1.940   0.803  0.2620 -1.3001 -0.3415
 8044TIP3    H245624   4.007   1.912   0.952  0.2725 -0.6036 -0.2042
 8045TIP3   OH245625   4.694   4.872   2.592 -0.1814  0.2878  0.5216
 8045TIP3    H145626   4.679   4.898   2.683 -2.0147  2.0830 -0.2226
 8045TIP3    H245627   4.655   4.784   2.586 -0.2852  0.2625  1.4062
 8046TIP3   OH245628   5.306   1.286   3.419 -0.6870  0.3551  0.4378
 8046TIP3    H145629   5.299   1.296   3.514  0.7037  0.4037  0.5672
 8046TIP3    H245630   5.323   1.193   3.406  1.5898  0.6941  0.4807
 8047TIP3   OH245631   5.980   0.486   1.706 -0.2016  0.1533  0.1897
 8047TIP3    H145632   5.912   0.553   1.716 -0.7475 -0.1831 -1.0744
 8047TIP3    H245633   5.940   0.419   1.652  1.4850  0.4894 -1.6154
 8048TIP3   OH245634   6.556   4.571  16.393 -0.2817  0.5241  0.3703
 8048TIP3    H145635   6.562   4.488  16.439 -0.6382 -1.0255 -2.2359
 8048TIP3    H245636   6.563   4.549  16.300 -0.6897  3.3706 -0.4457
 8049TIP3   OH245637   1.968   6.093   0.771  0.4021 -0.2698 -0.4101
 8049TIP3    H145638   1.939   6.031   0.837 -2.0608 -0.0541 -1.1941
 8049TIP3    H245639   2.025   6.042   0.713 -1.8404 -1.9784 -1.2433
 8050TIP3   OH245640   5.630   6.233  12.006  0.3276  0.1829 -0.6983
 8050TIP3    H145641   5.619   6.178  12.083  0.7255 -0.4995 -1.1262
 8050TIP3    H245642   5.717   6.212  11.973  0.1920  0.5245 -1.2925
 8051TIP3   OH245643   4.937   3.519   3.267  0.3207  0.2644 -0.6767
 8051TIP3    H145644   4.998   3.502   3.196  0.5304  0.0309 -0.4440
 8051TIP3    H245645   4.874   3.447   3.263  0.1855  0.3870 -0.7809
 8052TIP3   OH245646   3.871   1.775   4.269  0.1290 -0.1450  0.0277
 8052TIP3    H145647   3.775   1.772   4.262 -0.0040  0.0139  1.5166
 8052TIP3    H245648   3.888   1.816   4.353  1.5081 -1.0476  0.2209
 8053TIP3   OH245649   1.535   2.308  13.601 -0.2218  0.1083 -0.3589
 8053TIP3    H145650   1.473   2.353  13.544 -1.4558  1.0331  1.6185
 8053TIP3    H245651   1.608   2.369  13.611 -0.9731  0.8777  0.6922
 8054TIP3   OH245652   4.794   5.267   1.923  0.6629  0.9969  0.1302
 8054TIP3    H145653   4.703   5.237   1.912  0.8767 -0.2170  1.3380
 8054TIP3    H245654   4.816   5.309   1.840 -0.7690  0.6665 -0.4463
 8055TIP3   OH245655   5.746   1.803   2.015  0.1412 -0.6811  0.8482
 8055TIP3    H145656   5.797   1.785   1.936 -1.1620 -2.2379  0.3103
 8055TIP3    H245657   5.755   1.898   2.028  0.4791 -0.4028 -1.0954
 8056TIP3   OH245658   5.813   1.672   2.885  0.3754 -0.7716  0.3877
 8056TIP3    H145659   5.768   1.665   2.801  0.3896  2.6775 -0.0743
 8056TIP3    H245660   5.749   1.641   2.950 -1.4853  0.8864 -0.5514
 8057TIP3   OH245661   2.422   2.429   4.261 -0.6355  0.3287  0.3409
 8057TIP3    H145662   2.430   2.356   4.200 -0.1250 -0.3808  1.2466
 8057TIP3    H245663   2.464   2.502   4.216 -0.4646 -0.1256 -0.2544
 8058TIP3   OH245664   0.424   2.549  14.749 -0.1139 -0.0410 -0.0118
 8058TIP3    H145665   0.406   2.513  14.662  1.0459 -0.9148  0.0792
 8058TIP3    H245666   0.338   2.558  14.790 -0.8179  1.6822 -1.7175
 8059TIP3   OH245667   3.498   4.927  11.477  0.4320 -0.5626  0.1090
 8059TIP3    H145668   3.574   4.877  11.507  0.6282 -0.8171 -0.7788
 8059TIP3    H245669   3.526   5.018  11.486  0.8741 -0.6541 -0.2789
 8060TIP3   OH245670   6.496   4.118  16.689  0.0387  0.5780 -0.0483
 8060TIP3    H145671   6.465   4.059  16.758 -1.4017  0.0757 -1.0774
 8060TIP3    H245672   6.545   4.061  16.630 -0.2440  0.6656 -0.3654
 8061TIP3   OH245673   5.828   2.269   3.885  0.1483  0.2085  0.2577
 8061TIP3    H145674   5.898   2.302   3.828  0.2915  0.8540  0.7917
 8061TIP3    H245675   5.766   2.342   3.891 -0.0360  0.0205  0.6583
 8062TIP3   OH245676   0.357   0.133  16.319 -0.0131  0.2633  0.1002
 8062TIP3    H145677   0.310   0.104  16.241 -0.1932 -1.8081  0.9185
 8062TIP3    H245678   0.447   0.103  16.305 -0.0381 -0.0850  0.6428
 8063TIP3   OH245679   3.896   6.689   5.661  0.8430  0.2764  0.2150
 8063TIP3    H145680   3.894   6.763   5.721  1.4050  0.9182 -0.5331
 8063TIP3    H245681   3.954   6.626   5.702  0.2634  0.1928  0.9185
 8064TIP3   OH245682   1.098   3.325   1.211 -0.0370 -0.3870  0.1035
 8064TIP3    H145683   1.131   3.367   1.290 -2.3335  0.6710  0.5805
 8064TIP3    H245684   1.075   3.237   1.239  1.0421 -0.7012  0.0726
 8065TIP3   OH245685   1.128   5.686  11.756  0.1594  0.5616  0.3620
 8065TIP3    H145686   1.211   5.652  11.723  0.4622  1.4244  0.2010
 8065TIP3    H245687   1.135   5.678  11.851  0.8762  1.5943  0.4138
 8066TIP3   OH245688   1.575   3.501   5.051  1.1507  0.1021 -0.1142
 8066TIP3    H145689   1.556   3.584   5.008 -1.3123  0.2562  1.0896
 8066TIP3    H245690   1.632   3.524   5.125 -0.7558  1.0233  1.1321
 8067TIP3   OH245691   5.980   4.533   5.969  0.1214  0.0636  0.1604
 8067TIP3    H145692   6.066   4.496   5.950  1.1056  1.3693  1.7987
 8067TIP3    H245693   5.970   4.605   5.906 -1.1209 -1.8754 -1.9895
 8068TIP3   OH245694   2.312   6.536  12.391  0.3141  0.2453  0.2638
 8068TIP3    H145695   2.257   6.464  12.423 -0.1897  0.4850 -0.0459
 8068TIP3    H245696   2.256   6.582  12.328  0.0370  1.9028  1.6642
 8069TIP3   OH245697   1.070   3.233  15.946  0.1459  0.0897  0.5312
 8069TIP3    H145698   1.130   3.276  15.885 -0.5437  0.2890 -0.0241
 8069TIP3    H245699   1.104   3.145  15.955  0.5547  0.2176  0.2606
 8070TIP3   OH245700   3.029   2.094  14.488 -0.3712 -0.1467  0.0687
 8070TIP3    H145701   3.112   2.056  14.462 -0.4914  1.3500 -2.8481
 8070TIP3    H245702   2.964   2.053  14.431 -1.1636  0.9772  0.1176
 8071TIP3   OH245703   1.163   3.467  14.951 -0.0262  0.1597  0.6466
 8071TIP3    H145704   1.197   3.384  14.984 -0.9379 -0.9103 -0.9519
 8071TIP3    H245705   1.070   3.463  14.970 -0.5490 -0.3962 -1.6483
 8072TIP3   OH245706   4.358   0.692   3.652  0.2809 -0.8843 -0.1286
 8072TIP3    H145707   4.304   0.648   3.717 -0.1630 -1.7179 -1.0341
 8072TIP3    H245708   4.295   0.738   3.596  0.7074  0.6199  0.5632
 8073TIP3   OH245709   0.882   4.209  15.219  0.1155 -0.5360 -0.0895
 8073TIP3    H145710   0.971   4.197  15.187  0.1315  1.6626 -1.0452
 8073TIP3    H245711   0.887   4.187  15.312  2.4912  2.6170  0.6913
 8074TIP3   OH245712   2.693   6.478  14.898 -0.1458 -0.0760 -0.2303
 8074TIP3    H145713   2.783   6.454  14.922 -0.0537  0.8144  0.3619
 8074TIP3    H245714   2.641   6.458  14.976 -0.8014 -2.2309 -1.1302
 8075TIP3   OH245715   3.676   6.409   4.518 -0.1262 -0.3039 -0.4085
 8075TIP3    H145716   3.722   6.378   4.596  0.2948 -0.3008 -0.6530
 8075TIP3    H245717   3.607   6.344   4.503  0.6700 -1.0711 -0.8447
 8076TIP3   OH245718   3.294   1.913  13.880  0.1684 -0.0464 -0.3528
 8076TIP3    H145719   3.220   1.950  13.928 -2.2297 -1.0929 -2.9033
 8076TIP3    H245720   3.288   1.819  13.895  1.6349 -0.0690  0.1903
 8077TIP3   OH245721   4.798   1.302  13.613 -0.2999 -0.7441  0.0529
 8077TIP3    H145722   4.712   1.262  13.625 -0.3544 -0.4769  0.6146
 8077TIP3    H245723   4.851   1.235  13.570 -0.7722 -0.9262 -0.2512
 8078TIP3   OH245724   2.505   3.997   2.583  0.0546  0.2070 -0.8208
 8078TIP3    H145725   2.509   4.085   2.621 -0.2739 -0.5822  1.1806
 8078TIP3    H245726   2.446   4.006   2.508 -0.7524  1.5092 -0.0742
 8079TIP3   OH245727   5.409   0.492   4.110 -0.4552 -0.1282 -0.2152
 8079TIP3    H145728   5.439   0.550   4.040 -1.2316 -0.3809 -0.7648
 8079TIP3    H245729   5.447   0.407   4.088  1.3710  0.2965  1.0314
 8080TIP3   OH245730   5.235   1.229   5.780 -0.9287 -0.1146  0.1728
 8080TIP3    H145731   5.320   1.250   5.741 -1.1931  2.5661  0.8357
 8080TIP3    H245732   5.254   1.156   5.839  0.2225 -1.6863 -1.9653
 8081TIP3   OH245733   1.592   4.434  13.188 -0.9642 -0.4979 -0.5029
 8081TIP3    H145734   1.536   4.413  13.113  0.3797 -4.3664 -0.6516
 8081TIP3    H245735   1.681   4.432  13.152 -0.4664  0.6295  0.6397
 8082TIP3   OH245736   5.787   3.071  14.263  0.0176 -0.0493 -0.1342
 8082TIP3    H145737   5.749   3.024  14.337  1.5160  0.9756  1.3641
 8082TIP3    H245738   5.718   3.129  14.233 -0.6420 -0.5478  0.3972
 8083TIP3   OH245739   1.936   6.412  13.470  0.5193 -0.0084 -0.3242
 8083TIP3    H145740   1.988   6.360  13.531  1.0506 -0.9771 -1.5710
 8083TIP3    H245741   1.884   6.348  13.422  2.7210  0.2550 -3.3884
 8084TIP3   OH245742   1.115   3.835  15.682  0.1444 -0.6886  0.2894
 8084TIP3    H145743   1.079   3.879  15.760  1.4906 -0.9788  1.0967
 8084TIP3    H245744   1.039   3.823  15.625 -0.6813  0.5116  1.0853
 8085TIP3   OH245745   4.441   3.779  17.163 -0.1287 -0.0099 -0.1768
 8085TIP3    H145746   4.389   3.724  17.106 -1.3797 -0.1711  1.0808
 8085TIP3    H245747   4.510   3.814  17.106 -0.6421 -1.0727 -1.4937
 8086TIP3   OH245748   0.833   5.720  13.359 -0.5686 -0.2743 -0.1442
 8086TIP3    H145749   0.803   5.631  13.339 -0.5481 -0.7105  1.5697
 8086TIP3    H245750   0.924   5.710  13.385 -0.4050  0.3342 -0.4608
 8087TIP3   OH245751   1.162   3.120   3.440 -0.6372  0.1606 -0.4555
 8087TIP3    H145752   1.106   3.192   3.469 -0.1326  0.2519  0.3303
 8087TIP3    H245753   1.108   3.042   3.450 -0.8616  0.3248 -0.3788
 8088TIP3   OH245754   4.727   0.972   1.477  0.1895 -0.5768  0.4851
 8088TIP3    H145755   4.784   1.021   1.417 -1.1709  0.2325 -0.1899
 8088TIP3    H245756   4.785   0.945   1.548  1.5281 -0.2467 -0.4377
 8089TIP3   OH245757   5.639   5.610   1.931 -0.2094 -0.2931  0.4962
 8089TIP3    H145758   5.730   5.627   1.955 -0.0061 -0.6127 -0.0349
 8089TIP3    H245759   5.619   5.526   1.972  0.8623 -2.0003 -2.2594
 8090TIP3   OH245760   2.765   3.516   1.805 -0.8122  0.1346 -0.2466
 8090TIP3    H145761   2.748   3.490   1.715 -0.6506 -0.3534 -0.1371
 8090TIP3    H245762   2.810   3.442   1.844  0.0308  0.7428 -0.0410
 8091TIP3   OH245763   4.506   3.296  10.787  0.0210  0.4847  0.1537
 8091TIP3    H145764   4.566   3.359  10.827  1.0817 -0.9373  0.9234
 8091TIP3    H245765   4.551   3.265  10.709  0.2899 -0.5187  0.6819
 8092TIP3   OH245766   0.274   4.865  12.473 -0.1746  0.4362 -0.1227
 8092TIP3    H145767   0.251   4.927  12.542  1.6934  1.2253 -0.1506
 8092TIP3    H245768   0.250   4.910  12.392  1.9484  1.5795 -0.1951
 8093TIP3   OH245769   0.722   3.705  12.275  0.1443 -0.1503 -0.4779
 8093TIP3    H145770   0.684   3.752  12.201 -2.0559  0.3320  0.8736
 8093TIP3    H245771   0.799   3.755  12.299 -0.1752  0.7448 -1.2624
 8094TIP3   OH245772   3.677   0.239   1.072 -0.5091  0.3104 -0.0755
 8094TIP3    H145773   3.706   0.210   0.986  0.4352  0.2635  0.2482
 8094TIP3    H245774   3.621   0.314   1.055  0.0392  0.5855 -0.7060
 8095TIP3   OH245775   5.155   2.422   4.264 -0.2061  0.0044 -0.2492
 8095TIP3    H145776   5.185   2.483   4.196 -0.8404 -1.5595 -2.0347
 8095TIP3    H245777   5.148   2.476   4.343  0.9392  1.8280 -1.3061
 8096TIP3   OH245778   5.092   4.483  11.745 -0.6504 -0.5567  0.3307
 8096TIP3    H145779   5.132   4.563  11.780  0.4619 -2.0056  2.6611
 8096TIP3    H245780   5.007   4.510  11.713 -0.0120  1.6804  0.3786
 8097TIP3   OH245781   0.184   3.061   2.080  0.2693 -0.2205  0.3969
 8097TIP3    H145782   0.121   3.133   2.090  0.8944  0.8745 -2.4019
 8097TIP3    H245783   0.264   3.094   2.121  0.3654  0.4710 -0.3047
 8098TIP3   OH245784   5.295   0.304   6.510  0.4935  0.4410 -0.0352
 8098TIP3    H145785   5.276   0.382   6.563 -1.9582 -0.8331  1.1254
 8098TIP3    H245786   5.385   0.282   6.532  1.2171  2.8054 -0.2690
 8099TIP3   OH245787   1.207   2.471  15.272  0.2475  0.6952  0.3298
 8099TIP3    H145788   1.252   2.387  15.271  1.4794  1.3161  1.0506
 8099TIP3    H245789   1.275   2.534  15.297 -0.6257  1.9170 -0.2772
 8100TIP3   OH245790   6.399   3.392  14.127 -0.7200  0.2499  0.1142
 8100TIP3    H145791   6.409   3.471  14.074 -2.2922 -0.2092 -0.9271
 8100TIP3    H245792   6.344   3.419  14.201  0.3608  0.5617  0.8388
 8101TIP3   OH245793   4.499   5.586   6.649  0.0628  0.0881 -0.0397
 8101TIP3    H145794   4.546   5.611   6.570 -0.3302 -0.7953 -0.5673
 8101TIP3    H245795   4.409   5.614   6.634  0.3094  1.3954  0.7926
 8102TIP3   OH245796   0.142   6.554   0.345 -0.3388 -0.4484 -0.2805
 8102TIP3    H145797   0.203   6.603   0.399 -1.2616 -0.9488  1.2613
 8102TIP3    H245798   0.125   6.611   0.270 -0.0171  0.8151  0.5751
 8103TIP3   OH245799   1.480   5.188   4.952  0.4421 -0.1495 -0.4681
 8103TIP3    H145800   1.494   5.217   4.862  1.5928 -1.0744 -0.6225
 8103TIP3    H245801   1.434   5.104   4.943  0.6513 -0.2951 -0.2115
 8104TIP3   OH245802   3.644   2.906   5.799  0.1669  0.1369 -0.5611
 8104TIP3    H145803   3.553   2.878   5.808  0.6632 -1.0334  1.4287
 8104TIP3    H245804   3.672   2.928   5.888  1.6431  1.1534 -1.2278
 8105TIP3   OH245805   5.657   3.076   6.399  0.0032 -0.1350 -0.4164
 8105TIP3    H145806   5.614   3.005   6.352  0.1199 -0.0681 -0.6238
 8105TIP3    H245807   5.663   3.147   6.336  0.0472 -0.0008 -0.2622
 8106TIP3   OH245808   1.207   6.363  15.481  0.2583  0.6378 -0.5321
 8106TIP3    H145809   1.194   6.279  15.437  0.6416  0.6848 -0.7387
 8106TIP3    H245810   1.258   6.342  15.559 -0.3145  0.5717 -0.1654
 8107TIP3   OH245811   4.773   4.227  13.131 -0.2900  0.3478 -0.2205
 8107TIP3    H145812   4.821   4.257  13.054  0.4662  0.7434  0.3925
 8107TIP3    H245813   4.738   4.307  13.170 -1.6786  0.0439 -0.7914
 8108TIP3   OH245814   2.908   5.042   4.902  0.0881  0.2719  0.0419
 8108TIP3    H145815   2.855   5.121   4.889 -0.7598 -0.1460  0.8779
 8108TIP3    H245816   2.998   5.072   4.888 -0.3617  0.8946 -1.8704
 8109TIP3   OH245817   4.784   2.212   5.371  0.0813 -0.2660  0.0356
 8109TIP3    H145818   4.739   2.210   5.455  0.6768  0.2482  0.3763
 8109TIP3    H245819   4.731   2.270   5.317  0.9075  1.2753  0.7953
 8110TIP3   OH245820   3.947   2.602  14.565 -0.1315  0.5439  0.0116
 8110TIP3    H145821   4.009   2.673  14.547 -0.0794  0.5535  0.2329
 8110TIP3    H245822   3.977   2.530  14.509 -1.3922  1.3431 -1.8057
 8111TIP3   OH245823   5.109   0.998  13.324 -0.6692  0.3674  0.3506
 8111TIP3    H145824   5.144   1.086  13.309  1.2931 -0.2334  1.0094
 8111TIP3    H245825   5.145   0.945  13.253 -0.4207 -0.2193  0.8924
 8112TIP3   OH245826   3.277   6.114  14.038  0.2135 -0.2092  0.4383
 8112TIP3    H145827   3.347   6.073  13.988  0.4085 -0.6991  1.0864
 8112TIP3    H245828   3.310   6.113  14.129  0.6350  2.2302  0.3849
 8113TIP3   OH245829   0.230   1.147   1.003  0.6719 -0.8563  0.1470
 8113TIP3    H145830   0.247   1.226   0.951  1.5429 -1.4421 -0.4986
 8113TIP3    H245831   0.194   1.179   1.085  0.0438  0.1527 -0.4939
 8114TIP3   OH245832   3.481   2.205   0.312  0.3099 -0.1887  0.0620
 8114TIP3    H145833   3.433   2.134   0.271  0.8635 -0.8739  0.5692
 8114TIP3    H245834   3.438   2.217   0.397  1.3427 -1.1716  0.7465
 8115TIP3   OH245835   4.634   5.381   3.159  0.3753  0.0362  0.2574
 8115TIP3    H145836   4.551   5.336   3.176 -0.6121  1.6349 -0.1505
 8115TIP3    H245837   4.697   5.310   3.149 -0.5827 -1.1923  2.2609
 8116TIP3   OH245838   5.065   5.352  15.591  0.0284 -0.1231  0.1238
 8116TIP3    H145839   5.046   5.268  15.550 -0.9083  0.3724 -0.4824
 8116TIP3    H245840   5.109   5.403  15.523 -2.3554  1.0356 -0.6545
 8117TIP3   OH245841   5.710   4.153   1.441  0.2899  0.0783  0.2065
 8117TIP3    H145842   5.755   4.072   1.468  0.6822  0.3233  0.2862
 8117TIP3    H245843   5.709   4.207   1.519  0.2929  0.2714  0.0738
 8118TIP3   OH245844   4.685   1.944   4.394  0.0969  0.2441  0.4406
 8118TIP3    H145845   4.724   1.900   4.470 -1.4443 -0.3081  0.9643
 8118TIP3    H245846   4.759   1.984   4.348  1.1777 -0.2215  1.7076
 8119TIP3   OH245847   3.594   4.485   4.043  0.0965  0.0417 -0.5957
 8119TIP3    H145848   3.581   4.580   4.044 -1.9925 -0.1751 -1.6522
 8119TIP3    H245849   3.564   4.458   3.956 -1.2541 -1.7921  0.3726
 8120TIP3   OH245850   6.017   5.765   2.599  0.2968  0.0450 -0.2199
 8120TIP3    H145851   5.957   5.763   2.674  0.1056 -0.0793 -0.3728
 8120TIP3    H245852   6.085   5.827   2.624  0.3361 -0.1404  0.1321
 8121TIP3   OH245853   5.557   0.816  17.023  0.7563 -0.1743 -0.1958
 8121TIP3    H145854   5.635   0.817  16.968 -0.3715  0.2751 -1.9062
 8121TIP3    H245855   5.488   0.849  16.965 -0.6467 -0.3409  1.3213
 8122TIP3   OH245856   0.119   4.134  15.491  0.1574  0.7573  0.1468
 8122TIP3    H145857   0.074   4.205  15.538  1.6008  0.2150  2.5125
 8122TIP3    H245858   0.194   4.177  15.451  0.9057  0.6670  1.3910
 8123TIP3   OH245859   3.991   2.287   4.325  0.1451  0.2411 -0.1614
 8123TIP3    H145860   4.024   2.257   4.410 -0.9833 -0.0881  0.1657
 8123TIP3    H245861   3.997   2.210   4.268  2.2027  0.7976 -0.8152
 8124TIP3   OH245862   3.962   1.541   1.747  0.4790  0.2179 -0.1200
 8124TIP3    H145863   3.980   1.563   1.839 -0.6724 -2.7958  0.9897
 8124TIP3    H245864   3.869   1.559   1.736  0.6155  0.5684 -0.6856
 8125TIP3   OH245865   2.073   6.693  13.749  0.2273 -0.0940 -0.3223
 8125TIP3    H145866   2.129   6.700  13.826 -0.3425 -0.0454  0.0913
 8125TIP3    H245867   2.022   6.614  13.763 -0.2276  0.1783 -0.4103
 8126TIP3   OH245868   1.721   0.209  14.449  0.4701  0.3587 -0.0043
 8126TIP3    H145869   1.747   0.250  14.531  0.7740  1.0934 -0.4588
 8126TIP3    H245870   1.698   0.283  14.392 -2.6915 -0.1953  0.3683
 8127TIP3   OH245871   5.643   2.045  15.913 -0.1751  0.3134  0.1230
 8127TIP3    H145872   5.689   2.050  15.997 -0.9855  1.1265  0.5354
 8127TIP3    H245873   5.688   1.976  15.865 -0.0638 -0.5598  1.4495
 8128TIP3   OH245874   2.203   6.127   2.227  0.4611  0.1586  0.3005
 8128TIP3    H145875   2.194   6.037   2.258 -0.1834 -0.4326 -1.4904
 8128TIP3    H245876   2.289   6.155   2.260  0.8286 -1.2317  0.5944
 8129TIP3   OH245877   3.546   3.143   3.645  0.1560  0.4105  0.0265
 8129TIP3    H145878   3.551   3.176   3.735 -0.6680 -1.4097  0.7990
 8129TIP3    H245879   3.562   3.049   3.653  1.1434  0.3707 -1.8923
 8130TIP3   OH245880   0.401   2.502  11.830  0.1131 -1.4798  0.2132
 8130TIP3    H145881   0.411   2.515  11.736  2.7167 -0.9694  0.4999
 8130TIP3    H245882   0.392   2.590  11.866 -0.6894 -1.6643  0.4881
 8131TIP3   OH245883   1.090   1.597   2.734 -0.2122 -0.7300  0.6540
 8131TIP3    H145884   1.070   1.672   2.678 -0.2306  0.6190  2.3984
 8131TIP3    H245885   1.135   1.536   2.676  0.5280  0.9617 -0.6513
 8132TIP3   OH245886   6.590   3.208   5.705 -0.7357 -0.3046 -0.0106
 8132TIP3    H145887   6.619   3.283   5.757  2.2553 -0.2224 -1.6099
 8132TIP3    H245888   6.613   3.230   5.615 -2.2537 -2.0513 -0.9000
 8133TIP3   OH245889   0.029   0.485   0.177 -0.0045  0.6373  0.0745
 8133TIP3    H145890   0.075   0.426   0.117 -1.3539 -0.3703 -0.0164
 8133TIP3    H245891  -0.062   0.485   0.146 -0.3716  1.4616  1.0833
 8134TIP3   OH245892   5.141   3.953   4.274 -0.0809 -0.0922  0.1211
 8134TIP3    H145893   5.045   3.957   4.269 -0.3228 -3.5039 -2.2778
 8134TIP3    H245894   5.171   4.031   4.227 -1.7873  0.0973 -0.7502
 8135TIP3   OH245895   2.267   5.893   1.020 -0.1776  0.1186  0.1556
 8135TIP3    H145896   2.274   5.804   0.986 -0.8879  0.5273 -1.1284
 8135TIP3    H245897   2.347   5.937   0.991 -0.2671  0.1582 -0.0327
 8136TIP3   OH245898   2.918   3.376   3.674 -0.7789 -0.4786  0.0096
 8136TIP3    H145899   2.994   3.321   3.693 -0.9309 -0.5571  0.4137
 8136TIP3    H245900   2.853   3.351   3.740 -0.8449  0.1832  0.2114
 8137TIP3   OH245901   1.718   3.321   5.568 -0.4841  0.3442 -0.3328
 8137TIP3    H145902   1.653   3.252   5.551 -1.5705  1.7046 -2.1507
 8137TIP3    H245903   1.738   3.356   5.481  3.6027 -0.7239 -0.0133
 8138TIP3   OH245904   1.044   3.471  16.616 -0.6507 -0.1598  0.3891
 8138TIP3    H145905   0.961   3.468  16.568  0.3590 -1.1853 -1.3941
 8138TIP3    H245906   1.105   3.515  16.556  0.2454  0.1136  1.4511
 8139TIP3   OH245907   5.393   6.690   4.966  0.0310 -0.2915  0.4779
 8139TIP3    H145908   5.428   6.776   4.990 -0.3957 -0.0440  0.2243
 8139TIP3    H245909   5.470   6.633   4.961  0.6302  0.6056 -1.7167
 8140TIP3   OH245910   2.324   1.775  14.969 -0.4030  0.3794 -0.0465
 8140TIP3    H145911   2.373   1.847  14.929  0.5346  0.6674  1.5376
 8140TIP3    H245912   2.239   1.813  14.992 -0.7705  0.3387 -1.2648
 8141TIP3   OH245913   3.965   5.408  16.549  0.5422  0.2380 -0.2555
 8141TIP3    H145914   4.049   5.375  16.518  0.5056 -0.0808 -0.0239
 8141TIP3    H245915   3.913   5.421  16.469  0.4684 -0.5231 -0.3397
 8142TIP3   OH245916   6.669   0.566   2.156  0.0329 -0.4420 -0.0987
 8142TIP3    H145917   6.605   0.635   2.170  0.4487  0.0837 -0.6726
 8142TIP3    H245918   6.701   0.582   2.066  1.9489  0.1727  0.6369
 8143TIP3   OH245919   3.922   3.265  15.815  0.1765  0.2174  1.0683
 8143TIP3    H145920   3.853   3.319  15.774  0.0686  0.9687  2.1829
 8143TIP3    H245921   4.004   3.306  15.787  0.1217  0.3034  1.0334
 8144TIP3   OH245922   2.835   5.970  12.566  0.4127 -0.3001  0.2184
 8144TIP3    H145923   2.868   6.032  12.631 -1.0453  0.7774 -0.0181
 8144TIP3    H245924   2.835   6.019  12.483 -1.7679 -0.1836  0.2177
 8145TIP3   OH245925   1.776   2.077  15.487  0.1316  0.0061  0.0565
 8145TIP3    H145926   1.838   2.090  15.560  1.0620  2.3189 -1.0472
 8145TIP3    H245927   1.832   2.071  15.410 -0.9044 -1.2501 -0.6152
 8146TIP3   OH245928   4.729   2.584   4.722  0.1905  0.0821  0.7099
 8146TIP3    H145929   4.724   2.659   4.782  0.0848  0.9022 -0.3009
 8146TIP3    H245930   4.791   2.524   4.764  0.8937  1.0842  1.1528
 8147TIP3   OH245931   5.591   5.704  14.588 -0.1051  0.3800 -0.1157
 8147TIP3    H145932   5.621   5.766  14.523  2.4087  0.0296  0.5980
 8147TIP3    H245933   5.523   5.653  14.544 -0.1815  1.7287 -1.6254
 8148TIP3   OH245934   4.406   2.545  13.385 -0.0977 -0.6427  0.2970
 8148TIP3    H145935   4.472   2.611  13.408  0.7793 -1.0844 -0.8516
 8148TIP3    H245936   4.368   2.577  13.304 -0.6012 -0.8983  0.4300
 8149TIP3   OH245937   4.235   2.488   5.764  0.0694 -0.0572 -0.1981
 8149TIP3    H145938   4.289   2.462   5.839  2.2492 -0.4507 -1.8080
 8149TIP3    H245939   4.217   2.406   5.718 -0.4465  0.2890 -0.6268
 8150TIP3   OH245940   0.473   4.499  15.259  0.7015 -0.1255 -0.3859
 8150TIP3    H145941   0.535   4.497  15.187  1.5003  1.0858  0.2327
 8150TIP3    H245942   0.495   4.579  15.308 -2.8548  1.6879 -1.4508
 8151TIP3   OH245943   0.635   6.337   0.584 -0.4952  0.1212 -0.2524
 8151TIP3    H145944   0.649   6.389   0.505  0.9955 -0.9571 -0.7572
 8151TIP3    H245945   0.585   6.261   0.554  0.6522 -0.6311 -0.3467
 8152TIP3   OH245946   5.542   1.118  16.695 -0.3626  0.3406  0.4049
 8152TIP3    H145947   5.531   1.133  16.789 -1.2750 -0.2120  0.3951
 8152TIP3    H245948   5.453   1.115  16.660 -0.0274  1.1852 -0.5943
 8153TIP3   OH245949   2.621   3.138   5.545  0.0771  0.2454 -0.3045
 8153TIP3    H145950   2.689   3.203   5.528 -0.4169  0.7605 -0.3494
 8153TIP3    H245951   2.663   3.073   5.602  1.5465 -1.1199 -2.7844
 8154TIP3   OH245952   2.394   5.057   5.747 -0.1487 -0.1281  0.5139
 8154TIP3    H145953   2.451   4.980   5.742  1.9664  1.3868 -0.7190
 8154TIP3    H245954   2.383   5.072   5.841 -0.5155 -1.8322  0.7788
 8155TIP3   OH245955   0.818   5.059   6.328 -0.1128 -0.2501  0.0124
 8155TIP3    H145956   0.862   5.027   6.406 -0.1946 -2.2213 -0.7016
 8155TIP3    H245957   0.725   5.052   6.348 -0.1801  1.7782  0.6766
 8156TIP3   OH245958   6.598   6.542  10.879  0.2501 -0.2461 -0.4415
 8156TIP3    H145959   6.653   6.599  10.825  0.2603 -0.1127 -0.2920
 8156TIP3    H245960   6.624   6.454  10.854  1.4666 -0.2064  0.5205
 8157TIP3   OH245961   2.122   4.167   0.293  0.1293  0.0788 -0.7869
 8157TIP3    H145962   2.180   4.123   0.355  0.7670 -1.0097 -2.0858
 8157TIP3    H245963   2.076   4.095   0.249 -0.6298  0.8388 -1.2699
 8158TIP3   OH245964   1.184   0.873   4.660 -0.0341 -0.0641 -0.2774
 8158TIP3    H145965   1.226   0.824   4.589 -2.6900 -0.1670 -1.9247
 8158TIP3    H245966   1.206   0.964   4.643  2.5221 -0.3366  1.1122
 8159TIP3   OH245967   0.421   3.984   4.655  0.1861  1.0188  0.0071
 8159TIP3    H145968   0.361   4.054   4.628 -1.2011 -0.1050  0.0212
 8159TIP3    H245969   0.418   3.921   4.584 -0.1737  0.0446  0.8552
 8160TIP3   OH245970   5.234   4.627   2.129 -0.1101  0.3150  0.3007
 8160TIP3    H145971   5.266   4.633   2.039  1.0442 -2.1678  0.4632
 8160TIP3    H245972   5.141   4.649   2.123  0.3127  1.9719 -1.1513
 8161TIP3   OH245973   0.667   2.501  10.880 -0.0428  0.1602  0.3595
 8161TIP3    H145974   0.600   2.469  10.940 -0.6986 -1.0469 -0.9474
 8161TIP3    H245975   0.700   2.582  10.920 -0.5702 -0.5041  2.2171
 8162TIP3   OH245976   1.434   5.869   3.223 -0.0587  0.6692  0.2996
 8162TIP3    H145977   1.362   5.927   3.248 -1.0763  0.1765 -1.3320
 8162TIP3    H245978   1.407   5.833   3.138  0.7835 -1.7559  0.9864
 8163TIP3   OH245979   3.878   2.966  15.966 -0.1857 -1.0965  1.1173
 8163TIP3    H145980   3.804   3.019  15.937 -0.6579 -0.5686  3.0954
 8163TIP3    H245981   3.863   2.954  16.060  2.0921 -1.2283  1.5101
 8164TIP3   OH245982   1.363   4.059  16.796  0.2948 -0.2447  0.2926
 8164TIP3    H145983   1.417   4.001  16.849  0.0930  0.2920  1.1046
 8164TIP3    H245984   1.298   4.093  16.856 -1.1603 -1.1037 -0.7399
 8165TIP3   OH245985   5.950   4.508   4.309  0.3926 -0.0395 -0.3749
 8165TIP3    H145986   5.887   4.519   4.380 -0.3599  1.5307 -1.2268
 8165TIP3    H245987   6.035   4.503   4.352 -0.1128  0.2554  0.6721
 8166TIP3   OH245988   2.712   3.745  11.511  0.4570 -0.1237 -0.2684
 8166TIP3    H145989   2.774   3.681  11.547  0.6100 -0.0094 -0.3254
 8166TIP3    H245990   2.630   3.697  11.504  0.8157 -0.6339 -1.2946
 8167TIP3   OH245991   1.636   2.682   4.971 -0.2546 -0.1858 -0.5023
 8167TIP3    H145992   1.635   2.677   5.067  0.5697  0.2349 -0.4619
 8167TIP3    H245993   1.596   2.767   4.952  0.8626  0.3723 -0.4548
 8168TIP3   OH245994   1.611   4.492  15.658 -0.1440 -0.4989  0.5319
 8168TIP3    H145995   1.559   4.457  15.585 -2.3341 -0.4875  2.0278
 8168TIP3    H245996   1.587   4.438  15.733  0.7457  0.6108  1.6517
 8169TIP3   OH245997   0.865   4.854  13.490  0.3586 -0.3362 -0.0052
 8169TIP3    H145998   0.836   4.886  13.575  0.4555 -1.4346  0.4573
 8169TIP3    H245999   0.902   4.931  13.447  0.9631  0.0897  1.2340
 8170TIP3   OH246000   0.241   5.580  16.977 -0.2329  0.4289  0.1190
 8170TIP3    H146001   0.171   5.593  17.041  0.1283  2.2012  0.1825
 8170TIP3    H246002   0.204   5.610  16.895  0.2967  0.9406  0.0665
 8171TIP3   OH246003   4.207   2.808  13.854 -0.1036 -0.0454  0.1354
 8171TIP3    H146004   4.245   2.735  13.804 -0.9989 -0.9894  0.7869
 8171TIP3    H246005   4.261   2.814  13.932 -0.6725 -0.7405  0.5946
 8172TIP3   OH246006   6.677   4.503   3.658 -0.1420  0.4823 -0.2034
 8172TIP3    H146007   6.639   4.590   3.652 -1.4529  0.1111  1.9304
 8172TIP3    H246008   6.673   4.480   3.751  0.1017 -1.8862 -0.7028
 8173TIP3   OH246009   2.900   0.874   3.563 -0.5718 -0.0127 -0.1336
 8173TIP3    H146010   2.846   0.951   3.578 -0.3707 -0.1398  1.4033
 8173TIP3    H246011   2.840   0.800   3.570 -0.5192 -0.0660 -0.2412
 8174TIP3   OH246012   5.842   4.439   3.358  0.2320 -0.6125 -0.0219
 8174TIP3    H146013   5.842   4.439   3.453 -0.4906  0.1930 -0.0082
 8174TIP3    H246014   5.827   4.531   3.333 -0.4002 -0.9320 -0.8917
 8175TIP3   OH246015   0.068   1.279  11.620 -0.0439 -0.1145 -0.1553
 8175TIP3    H146016  -0.010   1.292  11.674  0.3383  0.8718  0.1963
 8175TIP3    H246017   0.102   1.194  11.646 -1.4341 -0.9373 -0.8880
 8176TIP3   OH246018   1.336   3.646  13.327 -0.0432  0.1436 -0.3634
 8176TIP3    H146019   1.249   3.649  13.288  0.2080  0.6196 -0.8919
 8176TIP3    H246020   1.353   3.736  13.356  0.5582  0.2137 -0.9072
 8177TIP3   OH246021   1.963   0.393   0.433 -0.1511  0.2750  0.0903
 8177TIP3    H146022   2.005   0.445   0.364 -0.5604  0.0492 -0.3364
 8177TIP3    H246023   1.872   0.423   0.433 -0.5345 -0.8333 -0.5665
 8178TIP3   OH246024   6.734   0.539  16.507 -0.0613 -0.4428 -0.2906
 8178TIP3    H146025   6.641   0.543  16.527  0.0004 -1.1642  0.1682
 8178TIP3    H246026   6.759   0.448  16.524  0.9873  0.0207  0.8093
 8179TIP3   OH246027   1.706   6.092   1.497 -0.6535 -0.0518 -0.2286
 8179TIP3    H146028   1.674   6.088   1.407 -2.4432 -1.1303  0.4086
 8179TIP3    H246029   1.739   6.004   1.515  0.2772  0.3307 -0.0119
 8180TIP3   OH246030   0.543   1.424  12.253  0.0612 -0.0652 -0.2272
 8180TIP3    H146031   0.629   1.383  12.253  0.0359 -0.1550 -1.8124
 8180TIP3    H246032   0.486   1.361  12.208 -0.4201  0.8090 -0.8739
 8181TIP3   OH246033   5.792   2.457   6.023 -0.3222  0.3314 -0.1339
 8181TIP3    H146034   5.782   2.528   5.960 -0.0573  0.9088  0.4615
 8181TIP3    H246035   5.783   2.499   6.109 -0.0568 -0.3315  0.2298
 8182TIP3   OH246036   4.986   0.539   2.319 -0.0279  0.4088 -0.3907
 8182TIP3    H146037   4.948   0.614   2.272  0.8574  0.6448 -0.7528
 8182TIP3    H246038   4.973   0.561   2.412 -1.1026  0.2977 -0.4940
 8183TIP3   OH246039   0.723   5.164   3.018 -0.3882  0.6199 -0.4091
 8183TIP3    H146040   0.744   5.157   2.925 -2.8477 -2.4961 -0.8922
 8183TIP3    H246041   0.647   5.223   3.022 -0.6467  0.2868 -0.4344
 8184TIP3   OH246042   2.735   5.140  14.203  0.4036 -0.3003  0.5911
 8184TIP3    H146043   2.784   5.151  14.121  1.0661  0.6269  1.0817
 8184TIP3    H246044   2.689   5.223  14.214 -1.6414 -1.3018 -0.0551
 8185TIP3   OH246045   3.304   2.109  12.321 -0.4415  0.1358  0.1792
 8185TIP3    H146046   3.301   2.202  12.343 -2.2158  0.0021  0.7130
 8185TIP3    H246047   3.248   2.100  12.244  1.6596 -0.1737 -1.3899
 8186TIP3   OH246048   0.229   5.385   2.472 -0.1890 -0.7019  0.3176
 8186TIP3    H146049   0.285   5.332   2.529  1.1123 -2.1189 -2.1099
 8186TIP3    H246050   0.217   5.331   2.394 -2.6739  0.7517 -0.4148
 8187TIP3   OH246051   5.845   1.743  11.568  0.3573  0.0933 -0.1315
 8187TIP3    H146052   5.844   1.702  11.654  1.0540  0.5031  0.0805
 8187TIP3    H246053   5.937   1.741  11.541  0.5964  2.3385  0.3071
 8188TIP3   OH246054   3.752   5.882  17.097 -0.1739  0.3606  0.4656
 8188TIP3    H146055   3.798   5.821  17.154  0.8909  1.7521  1.1828
 8188TIP3    H246056   3.769   5.850  17.008 -3.5696 -3.0378  0.8074
 8189TIP3   OH246057   6.405   2.462   6.117  0.0383 -0.0562 -0.2425
 8189TIP3    H146058   6.364   2.438   6.200 -1.8752 -0.8268 -1.3340
 8189TIP3    H246059   6.464   2.389   6.098  1.8077  0.9202  1.2035
 8190TIP3   OH246060   3.762   2.625  16.052 -0.5968  0.3011 -0.0735
 8190TIP3    H146061   3.670   2.647  16.038 -0.9438 -0.7751  0.4041
 8190TIP3    H246062   3.793   2.593  15.968 -0.9679 -0.3357  0.0212
 8191TIP3   OH246063   3.106   5.513   1.500  0.1050  0.3166  0.3229
 8191TIP3    H146064   3.156   5.594   1.491  0.6386  0.4012  3.3167
 8191TIP3    H246065   3.171   5.444   1.489 -0.0480  0.2960 -0.5495
 8192TIP3   OH246066   3.684   3.842   1.394  0.2242  0.5552 -0.0892
 8192TIP3    H146067   3.598   3.848   1.353  0.5564 -0.4470 -0.9771
 8192TIP3    H246068   3.707   3.932   1.416 -1.1125  0.8173  0.3157
 8193TIP3   OH246069   2.082   0.838  17.131 -0.0817  0.2586  0.5328
 8193TIP3    H146070   2.149   0.883  17.181  0.3590 -0.6049  0.7435
 8193TIP3    H246071   2.012   0.902  17.121 -0.2839  0.3924  2.4597
 8194TIP3   OH246072   4.575   2.408   5.276 -0.6240  0.0906 -0.5028
 8194TIP3    H146073   4.520   2.394   5.354 -0.0685  2.0487  0.3077
 8194TIP3    H246074   4.523   2.374   5.204 -1.3518 -1.3838  0.6585
 8195TIP3   OH246075   6.309   0.583  14.702 -0.0583 -0.3545  0.2932
 8195TIP3    H146076   6.348   0.670  14.709 -1.2251  0.1945  0.2202
 8195TIP3    H246077   6.221   0.594  14.738 -0.4597 -1.3499 -0.3646
 8196TIP3   OH246078   2.944   5.826  12.874  0.5814  0.0952  0.3137
 8196TIP3    H146079   2.856   5.790  12.865  0.6711 -0.0854  0.1660
 8196TIP3    H246080   3.002   5.754  12.851  0.7588  0.3548 -0.0559
 8197TIP3   OH246081   4.699   3.301   2.771 -0.0333  0.6356  0.1560
 8197TIP3    H146082   4.696   3.245   2.849  0.2068  0.1262 -0.1929
 8197TIP3    H246083   4.629   3.365   2.785  0.1952  0.7307  0.9176
 8198TIP3   OH246084   5.473   4.103  13.546 -0.4215 -0.6063 -0.4691
 8198TIP3    H146085   5.413   4.172  13.574 -0.3799 -1.0337  0.7224
 8198TIP3    H246086   5.500   4.129  13.458  0.4678  1.4896  0.3477
 8199TIP3   OH246087   4.470   0.171  11.038  0.4462  0.2207 -0.4237
 8199TIP3    H146088   4.438   0.104  10.978 -0.9097  0.6227 -0.1611
 8199TIP3    H246089   4.399   0.186  11.099  1.8500 -0.2821  1.4214
 8200TIP3   OH246090   3.722   5.822   4.214  0.0992  0.1704  0.0349
 8200TIP3    H146091   3.771   5.887   4.164  0.4374  0.1110  0.2867
 8200TIP3    H246092   3.732   5.849   4.305 -0.0171 -0.0627  0.1187
 8201TIP3   OH246093   6.436   5.330  13.567  0.1466 -0.3698  0.5066
 8201TIP3    H146094   6.352   5.377  13.566 -0.3456 -1.2514 -0.1034
 8201TIP3    H246095   6.456   5.313  13.475  0.1305 -1.6700  0.7272
 8202TIP3   OH246096   1.498   3.583   2.753 -0.5171  0.0639  0.1122
 8202TIP3    H146097   1.542   3.630   2.824  1.0253 -1.8671  0.5097
 8202TIP3    H246098   1.475   3.651   2.690  0.2090  1.5215  1.3571
 8203TIP3   OH246099   6.758   4.245   4.252 -0.6024 -0.5843 -0.5083
 8203TIP3    H146100   6.788   4.297   4.327  1.2643  0.0103 -1.5876
 8203TIP3    H246101   6.698   4.302   4.205 -0.6072 -0.3839 -0.2598
 8204TIP3   OH246102   6.789   6.492   2.648  0.4988 -0.1026  0.3854
 8204TIP3    H146103   6.818   6.583   2.648  3.0515 -0.7535 -2.2394
 8204TIP3    H246104   6.742   6.481   2.730  0.6719  3.3804  1.0823
 8205TIP3   OH246105   0.840   6.229  12.597  0.3516 -0.4253  0.1742
 8205TIP3    H146106   0.786   6.293  12.550  0.1564 -0.2742  0.5999
 8205TIP3    H246107   0.799   6.145  12.578  0.6419 -0.4332 -0.4354
 8206TIP3   OH246108   1.170   3.238  16.414  0.4579 -0.3147  0.5025
 8206TIP3    H146109   1.200   3.290  16.340 -2.5421 -1.9973 -2.1787
 8206TIP3    H246110   1.129   3.301  16.473 -0.8523  0.7468 -1.4235
 8207TIP3   OH246111   3.147   0.628   1.376 -0.3565  0.4554  0.0623
 8207TIP3    H146112   3.161   0.545   1.422  1.6150  0.5150 -0.3780
 8207TIP3    H246113   3.123   0.602   1.287 -0.7755  0.3710  0.1954
 8208TIP3   OH246114   2.289   0.598  16.336  0.1347  0.3280  0.5440
 8208TIP3    H146115   2.311   0.688  16.313  0.3399  1.0028  3.0602
 8208TIP3    H246116   2.212   0.607  16.394  0.5197 -1.0407  1.3052
 8209TIP3   OH246117   1.004   2.881  11.694  0.1467  0.3454  0.4733
 8209TIP3    H146118   1.099   2.876  11.686 -0.0055 -0.8275 -1.0286
 8209TIP3    H246119   0.979   2.800  11.739 -0.1568  0.6254  0.8196
 8210TIP3   OH246120   2.572   1.926   4.105 -0.3306 -0.9429  0.1323
 8210TIP3    H146121   2.568   1.832   4.089  0.1443 -1.0210  0.4604
 8210TIP3    H246122   2.571   1.965   4.017 -3.6357 -1.0812  0.0031
 8211TIP3   OH246123   5.130   4.617  12.086  0.4645 -0.2597  0.7624
 8211TIP3    H146124   5.038   4.623  12.063  0.4037  1.6220  1.3607
 8211TIP3    H246125   5.175   4.674  12.024  1.6140 -2.9629 -1.0975
 8212TIP3   OH246126   3.040   2.660   4.066  0.0204  0.3636  0.1419
 8212TIP3    H146127   3.099   2.590   4.094  0.6625  1.0301  0.4830
 8212TIP3    H246128   3.062   2.734   4.123 -0.4679  0.9246 -0.3875
 8213TIP3   OH246129   5.324   1.589  17.113  0.0027 -0.8484 -0.5840
 8213TIP3    H146130   5.346   1.581  17.206 -1.7079  0.1965 -0.0389
 8213TIP3    H246131   5.403   1.623  17.072  1.0373 -2.0421  0.3325
 8214TIP3   OH246132   3.341   1.982   2.799  0.2333 -0.1853  0.4731
 8214TIP3    H146133   3.356   1.917   2.867 -0.3217 -0.0223  0.7616
 8214TIP3    H246134   3.330   1.931   2.718  1.6002 -0.3436  0.3575
 8215TIP3   OH246135   0.539   2.642   0.569 -0.3698 -0.8165  0.7513
 8215TIP3    H146136   0.554   2.698   0.493 -1.1206 -2.3972 -0.6438
 8215TIP3    H246137   0.619   2.648   0.620 -0.2129  1.0221  0.3531
 8216TIP3   OH246138   3.558   3.387   5.523  0.3773 -0.4528 -0.7202
 8216TIP3    H146139   3.616   3.433   5.462 -1.5919  2.0762 -0.8402
 8216TIP3    H246140   3.470   3.406   5.490 -0.6284 -2.0698  0.8816
 8217TIP3   OH246141   0.074   4.779   3.804 -0.7537 -0.1476  0.3277
 8217TIP3    H146142   0.029   4.793   3.887 -0.8535  1.1981  0.0772
 8217TIP3    H246143   0.144   4.845   3.804 -0.7933 -0.0955 -0.6702
 8218TIP3   OH246144   5.257   4.029  11.858  0.4370  0.4842 -0.0925
 8218TIP3    H146145   5.175   4.001  11.818 -0.0597  0.6298  0.8045
 8218TIP3    H246146   5.236   4.111  11.901  0.8139  0.0602  0.9347
 8219TIP3   OH246147   6.495   1.817   5.594  0.1960 -0.2899  0.2312
 8219TIP3    H146148   6.541   1.854   5.670  1.8583 -0.8327 -0.4586
 8219TIP3    H246149   6.532   1.729   5.584 -1.1332 -0.8052 -0.2841
 8220TIP3   OH246150   0.240   5.027   3.267 -0.2272  0.5160  0.4093
 8220TIP3    H146151   0.259   5.013   3.360 -0.3435 -1.3987  0.1909
 8220TIP3    H246152   0.224   4.939   3.232  0.8318  1.0667 -1.6450
 8221TIP3   OH246153   3.234   3.768  15.800 -0.1512 -0.1971  0.2542
 8221TIP3    H146154   3.257   3.815  15.880 -0.9251  1.4006 -0.4235
 8221TIP3    H246155   3.176   3.828  15.752  0.8687 -0.8015 -1.8539
 8222TIP3   OH246156   3.044   1.457   3.510  0.7974 -0.0855 -0.3265
 8222TIP3    H146157   2.991   1.395   3.460  1.7943 -1.0444 -0.2181
 8222TIP3    H246158   3.003   1.542   3.492 -0.9804 -0.8182  0.0365
 8223TIP3   OH246159   4.751   1.753   0.362 -0.0192 -0.1052 -0.4110
 8223TIP3    H146160   4.735   1.837   0.320 -0.5939 -0.0630 -0.1075
 8223TIP3    H246161   4.778   1.695   0.290 -0.4910  0.1021 -0.7591
 8224TIP3   OH246162   3.157   4.545  14.224  0.2073  0.2583  0.5243
 8224TIP3    H146163   3.079   4.526  14.277  0.8319 -0.5637  1.1862
 8224TIP3    H246164   3.134   4.516  14.136 -0.2391  0.0354  0.7104
 8225TIP3   OH246165   0.288   6.742   5.768  0.2953  0.0807 -0.6742
 8225TIP3    H146166   0.359   6.731   5.831 -0.8596  1.7770  1.0662
 8225TIP3    H246167   0.270   6.654   5.736  2.0281 -0.6079  0.1336
 8226TIP3   OH246168   0.088   6.056   5.470 -0.6100  0.4667 -0.0039
 8226TIP3    H146169   0.155   6.016   5.414 -1.0188  0.6889 -0.6599
 8226TIP3    H246170   0.082   6.147   5.440 -1.9496  0.1887 -0.6915
 8227TIP3   OH246171   5.165   2.927  10.831 -0.1483  0.3428 -0.1834
 8227TIP3    H146172   5.102   2.986  10.788 -1.0609  0.0057  0.6566
 8227TIP3    H246173   5.142   2.840  10.800 -1.3942 -0.0213  1.5768
 8228TIP3   OH246174   2.239   4.266  15.412 -0.6469 -0.2621 -0.4266
 8228TIP3    H146175   2.251   4.243  15.320  0.2037 -2.2355  0.1293
 8228TIP3    H246176   2.327   4.262  15.450 -1.2125 -1.2470  0.8342
 8229TIP3   OH246177   2.528   1.573  16.409  0.1856 -0.5192  0.0395
 8229TIP3    H146178   2.609   1.574  16.461 -0.2202 -1.9621  0.7713
 8229TIP3    H246179   2.499   1.482  16.413 -1.3974 -0.0629 -0.3470
 8230TIP3   OH246180   1.362   0.818  13.983 -0.1188  0.7330  0.0625
 8230TIP3    H146181   1.426   0.818  13.911 -1.0343  0.2198 -0.7717
 8230TIP3    H246182   1.336   0.909  13.993 -0.7975  0.6746 -1.0166
 8231TIP3   OH246183   5.198   4.105  16.722  0.3104  0.2540 -0.3511
 8231TIP3    H146184   5.130   4.155  16.768  0.1948 -1.9709  2.1728
 8231TIP3    H246185   5.155   4.074  16.642 -0.9428  0.6419  0.1486
 8232TIP3   OH246186   3.324   5.754   4.287  0.2832 -0.3116 -0.1496
 8232TIP3    H146187   3.383   5.736   4.360 -0.3834 -0.9340  0.2617
 8232TIP3    H246188   3.237   5.760   4.328  0.0139  0.1806 -0.7864
 8233TIP3   OH246189   0.585   2.684  12.387 -0.1088  0.3503 -0.1815
 8233TIP3    H146190   0.631   2.605  12.359  1.9188  0.2572  2.9562
 8233TIP3    H246191   0.526   2.654  12.456  0.8661  1.5331  1.2273
 8234TIP3   OH246192   2.150   6.517   4.392 -0.1312 -0.3744  0.0030
 8234TIP3    H146193   2.180   6.434   4.429  1.2634 -0.5035 -1.3242
 8234TIP3    H246194   2.113   6.564   4.467  1.2038 -1.2319  1.2612
 8235TIP3   OH246195   5.517   0.346   2.934 -0.2880  0.0933  0.1506
 8235TIP3    H146196   5.521   0.408   3.007  0.8044  4.2488 -3.1071
 8235TIP3    H246197   5.426   0.351   2.904 -0.3704 -0.5012  0.2780
 8236TIP3   OH246198   0.259   4.241   4.537  0.2073 -0.0263  0.6893
 8236TIP3    H146199   0.166   4.262   4.540  0.5924  1.9222  0.6262
 8236TIP3    H246200   0.288   4.250   4.628  0.3801 -0.3447  0.6656
 8237TIP3   OH246201   0.450   5.828  13.683 -0.4102 -0.2347 -0.0881
 8237TIP3    H146202   0.535   5.871  13.677 -0.8236  0.5414 -0.6344
 8237TIP3    H246203   0.401   5.860  13.607 -1.2537 -0.5196  0.3166
 8238TIP3   OH246204   5.005   6.774   5.191  0.2937 -0.3126 -0.8054
 8238TIP3    H146205   5.072   6.708   5.211  1.8294  0.9634 -1.4807
 8238TIP3    H246206   4.983   6.759   5.100 -0.0444 -0.4729 -0.6984
 8239TIP3   OH246207   5.578   4.592   2.736  0.0879  0.3499 -0.4841
 8239TIP3    H146208   5.606   4.683   2.741  0.6127  0.1506  0.3166
 8239TIP3    H246209   5.595   4.556   2.823 -3.0426  0.3064  0.2441
 8240TIP3   OH246210   4.256   5.990  15.446  0.1859  0.2930 -0.1119
 8240TIP3    H146211   4.193   6.046  15.492 -0.2865 -0.1785 -0.1682
 8240TIP3    H246212   4.255   6.021  15.356  0.0300  0.2867 -0.1127
 8241TIP3   OH246213   2.277   3.799   3.920 -0.1492  0.5227  0.0744
 8241TIP3    H146214   2.333   3.726   3.946 -0.8596 -0.6428 -1.5090
 8241TIP3    H246215   2.188   3.763   3.925 -0.4748  1.0839 -1.2694
 8242TIP3   OH246216   2.410   2.404   3.898  0.7437 -0.3659 -0.1900
 8242TIP3    H146217   2.449   2.426   3.814  0.5767  0.8536  0.0432
 8242TIP3    H246218   2.453   2.461   3.961 -1.9681  1.7286 -0.0297
 8243TIP3   OH246219   2.330   5.855   5.127  0.4312 -0.4145 -0.1887
 8243TIP3    H146220   2.293   5.780   5.173  0.6401  0.4392  1.4446
 8243TIP3    H246221   2.413   5.872   5.171 -1.1009  2.8094  1.8570
 8244TIP3   OH246222   3.631   1.090   2.935 -0.1267 -0.1692 -0.6919
 8244TIP3    H146223   3.571   1.097   2.861  1.3423 -1.5627 -2.0875
 8244TIP3    H246224   3.686   1.014   2.915  1.5206  0.5025  0.9455
 8245TIP3   OH246225   5.901   5.039   0.460  0.6270  0.1257  0.0541
 8245TIP3    H146226   5.882   5.079   0.375  0.6146  1.9734  0.8864
 8245TIP3    H246227   5.986   4.995   0.447  1.2326  1.4254 -0.6072
 8246TIP3   OH246228   6.183   0.001   4.339  0.3294  0.1295  0.3715
 8246TIP3    H146229   6.106   0.042   4.299 -0.5210 -0.9895  0.8060
 8246TIP3    H246230   6.206  -0.071   4.279 -2.0064 -2.6872  2.5387
 8247TIP3   OH246231   5.409   6.453   3.436  0.3003  0.0290 -0.4974
 8247TIP3    H146232   5.384   6.417   3.521  1.5113 -0.4949 -0.3401
 8247TIP3    H246233   5.349   6.526   3.422  1.1337  1.1688  1.5762
 8248TIP3   OH246234   5.275   1.834   5.488 -0.0045  0.1054 -0.3302
 8248TIP3    H146235   5.334   1.898   5.528 -1.2166  0.5180  0.8685
 8248TIP3    H246236   5.297   1.837   5.395  1.5807  0.5258  0.0254
 8249TIP3   OH246237   4.928   5.076   4.273  0.0075 -0.1680  0.0365
 8249TIP3    H146238   4.951   5.004   4.331 -0.0128 -0.1128  0.1133
 8249TIP3    H246239   5.010   5.123   4.259  0.2470 -0.8267 -0.8852
 8250TIP3   OH246240   3.943   1.054   1.672  0.4110  0.0434 -0.3860
 8250TIP3    H146241   3.998   1.041   1.749 -1.0166  1.3561  0.9178
 8250TIP3    H246242   3.971   1.138   1.636  1.5866 -0.9026 -1.8125
 8251TIP3   OH246243   0.780   6.792   3.399  0.6043 -0.1833  0.2255
 8251TIP3    H146244   0.777   6.847   3.320 -1.4641 -0.9315 -0.2768
 8251TIP3    H246245   0.743   6.847   3.468  1.6572  0.1819  0.5248
 8252TIP3   OH246246   0.752   3.811   0.033 -0.1261  0.1833 -0.0994
 8252TIP3    H146247   0.730   3.718   0.026 -0.5192  0.1980  0.8197
 8252TIP3    H246248   0.779   3.822   0.124  0.4596  0.8602 -0.3487
 8253TIP3   OH246249   3.106   3.713  13.187 -0.1015 -0.1418 -0.5554
 8253TIP3    H146250   3.127   3.677  13.101  0.1774 -2.8484  0.5403
 8253TIP3    H246251   3.067   3.640  13.235 -0.2401  1.2670  1.6371
 8254TIP3   OH246252   5.984   6.526   4.794 -0.7025 -0.1164  0.1658
 8254TIP3    H146253   5.906   6.565   4.754 -2.5682 -3.7355 -0.1037
 8254TIP3    H246254   5.970   6.432   4.788  4.6989 -1.1511 -1.7580
 8255TIP3   OH246255   4.387   5.391  12.398  0.6432  0.1216  0.5375
 8255TIP3    H146256   4.463   5.444  12.371  0.0561  0.6450 -0.1138
 8255TIP3    H246257   4.322   5.405  12.329  0.1147 -0.6894  0.8570
 8256TIP3   OH246258   6.052   5.960   5.093  0.9454  0.0508  0.7041
 8256TIP3    H146259   6.143   5.948   5.064  0.2732 -1.9955 -0.8367
 8256TIP3    H246260   6.040   5.892   5.160  0.5995  0.4291  1.0264
 8257TIP3   OH246261   5.167   1.972  14.897 -0.5323 -0.6402  0.5668
 8257TIP3    H146262   5.180   1.882  14.868  0.9159 -0.4035  0.3585
 8257TIP3    H246263   5.224   2.024  14.839 -1.7690  0.4817  0.3031
 8258TIP3   OH246264   6.669   1.277   0.769  0.4713 -0.6133  0.1953
 8258TIP3    H146265   6.707   1.353   0.725  0.1519  1.0793  2.6125
 8258TIP3    H246266   6.579   1.274   0.739  0.7762 -0.6995 -0.7226
 8259TIP3   OH246267   5.431   2.891  15.235 -0.2424  0.1515  0.7607
 8259TIP3    H146268   5.411   2.982  15.256  1.0895  0.4419  0.9185
 8259TIP3    H246269   5.392   2.840  15.306 -1.9546  0.4817  0.0860
 8260TIP3   OH246270   4.049   2.228   0.943  0.2759 -0.0435 -0.0822
 8260TIP3    H146271   4.113   2.297   0.927  0.1455 -0.1668 -1.2352
 8260TIP3    H246272   4.056   2.170   0.867  1.4072 -2.1479  1.5461
 8261TIP3   OH246273   3.760   1.174  16.961 -0.4344 -0.1809  0.5486
 8261TIP3    H146274   3.736   1.218  16.880  1.6966  0.3950  0.1546
 8261TIP3    H246275   3.789   1.087  16.934 -1.7633 -0.7767  0.9724
 8262TIP3   OH246276   1.781   1.769  16.431 -0.5852 -0.4395 -0.1714
 8262TIP3    H146277   1.866   1.725  16.432  0.2116  0.9195 -1.8468
 8262TIP3    H246278   1.720   1.703  16.396 -0.3109 -1.4926  1.2452
 8263TIP3   OH246279   0.139   6.673   2.217  1.0484  0.7180 -0.4800
 8263TIP3    H146280   0.165   6.758   2.254 -0.0034  0.8635 -0.0591
 8263TIP3    H246281   0.087   6.695   2.140 -1.2554  0.5390  0.9525
 8264TIP3   OH246282   1.553   0.240  16.287  0.3962  0.1650 -0.0482
 8264TIP3    H146283   1.459   0.252  16.274  0.4610 -0.4132 -1.2120
 8264TIP3    H246284   1.577   0.172  16.224  1.3159 -0.8378  1.3259
 8265TIP3   OH246285   4.240   2.576   2.878  0.1881 -0.0628 -0.3965
 8265TIP3    H146286   4.272   2.588   2.967  0.2222  0.4935 -0.4838
 8265TIP3    H246287   4.317   2.544   2.829  0.5643  1.0662 -0.5571
 8266TIP3   OH246288   5.872   4.544  10.756  0.5867 -0.1181 -0.9110
 8266TIP3    H146289   5.891   4.490  10.680  2.1121 -0.1754 -0.5100
 8266TIP3    H246290   5.929   4.620  10.747  1.6314 -0.6503  0.6992
 8267TIP3   OH246291   5.691   0.436  15.345 -0.3976 -0.1082 -0.1458
 8267TIP3    H146292   5.633   0.360  15.334  0.5475 -0.7471 -0.9083
 8267TIP3    H246293   5.691   0.478  15.259  1.3496 -0.9319 -0.5935
 8268TIP3   OH246294   6.680   6.168  10.749  0.3409 -0.3878  0.3973
 8268TIP3    H146295   6.723   6.253  10.757  1.0254 -0.6855  0.0053
 8268TIP3    H246296   6.587   6.186  10.758  0.4614  0.4377  0.0309
 8269TIP3   OH246297   4.528   2.119   2.249 -0.2434  0.5325 -0.8902
 8269TIP3    H146298   4.438   2.120   2.281 -0.8451 -2.1837 -2.2178
 8269TIP3    H246299   4.521   2.126   2.154  0.9065 -0.0728 -1.0497
 8270TIP3   OH246300   1.356   1.564   3.325  0.1302 -0.0550 -0.1662
 8270TIP3    H146301   1.375   1.651   3.289  1.0912 -1.0755 -2.2693
 8270TIP3    H246302   1.395   1.565   3.412  1.9501  0.9520 -0.9492
 8271TIP3   OH246303   0.383   4.446  13.996 -0.1051 -0.2689 -0.2561
 8271TIP3    H146304   0.389   4.431  14.090 -0.1334  0.1483 -0.1845
 8271TIP3    H246305   0.456   4.396  13.959 -1.6595 -2.6379 -0.2968
 8272TIP3   OH246306   0.495   1.930  13.719 -0.1353 -0.2483  0.1961
 8272TIP3    H146307   0.406   1.925  13.684 -0.1002 -0.2548  0.1078
 8272TIP3    H246308   0.502   2.020  13.753 -1.1723 -1.0882  2.8782
 8273TIP3   OH246309   6.212   4.025   0.583  0.7310 -0.3010  0.3426
 8273TIP3    H146310   6.262   4.106   0.594  0.8642 -0.4933  1.2788
 8273TIP3    H246311   6.234   3.973   0.660  0.1639 -0.9733  0.0632
 8274TIP3   OH246312   1.825   6.259  16.604 -0.1935  0.1162  0.2776
 8274TIP3    H146313   1.908   6.211  16.605 -0.9708 -1.2559  0.5951
 8274TIP3    H246314   1.758   6.192  16.606 -1.4251  1.0239 -2.9527
 8275TIP3   OH246315   0.143   0.889   2.210 -0.8694  0.5827 -0.0573
 8275TIP3    H146316   0.159   0.952   2.140 -0.3678 -0.5320 -0.9643
 8275TIP3    H246317   0.087   0.937   2.272  0.5613  2.3695 -0.0332
 8276TIP3   OH246318   1.256   5.758  16.296 -0.3617 -0.2396 -0.0929
 8276TIP3    H146319   1.324   5.713  16.245 -0.3867 -0.5717  0.1695
 8276TIP3    H246320   1.229   5.831  16.240  0.3314 -0.0053 -0.1284
 8277TIP3   OH246321   5.440   0.257  13.856 -0.4051 -0.4172  0.2270
 8277TIP3    H146322   5.346   0.245  13.838 -0.4130  0.9186 -0.7800
 8277TIP3    H246323   5.448   0.348  13.884  0.9288  0.4460 -2.5786
 8278TIP3   OH246324   1.686   5.146  12.942 -0.7649  0.1522 -0.2659
 8278TIP3    H146325   1.658   5.234  12.967 -1.0960 -0.7553  2.9834
 8278TIP3    H246326   1.770   5.134  12.987 -1.4158 -1.6654  0.5259
 8279TIP3   OH246327   0.717   3.425  14.260  0.3113 -0.7282 -0.5119
 8279TIP3    H146328   0.765   3.364  14.316  0.4357  1.6732  2.2266
 8279TIP3    H246329   0.625   3.404  14.275  0.3577 -0.4098  0.2686
 8280TIP3   OH246330   6.325   5.636   4.927  0.4633 -0.1334 -0.0101
 8280TIP3    H146331   6.391   5.585   4.880  3.9437  0.3615  3.8289
 8280TIP3    H246332   6.284   5.573   4.986 -1.2880 -0.0229 -1.0249
 8281TIP3   OH246333   0.552   4.477   0.345  0.2373 -0.2366  0.5920
 8281TIP3    H146334   0.497   4.554   0.351 -0.1606 -0.5498  1.0040
 8281TIP3    H246335   0.631   4.507   0.300  1.2568  1.0623  3.0586
 8282TIP3   OH246336   3.367   0.286   2.931  0.1728 -0.3652  0.0100
 8282TIP3    H146337   3.455   0.250   2.920  0.3765  0.1888 -0.2246
 8282TIP3    H246338   3.379   0.362   2.987 -0.1220 -0.1417 -0.2269
 8283TIP3   OH246339   3.728   4.155   6.038 -0.1238 -0.8652 -0.2737
 8283TIP3    H146340   3.671   4.226   6.010 -0.0216 -1.1678 -1.3192
 8283TIP3    H246341   3.669   4.085   6.064 -0.2228 -0.5199  0.4595
 8284TIP3   OH246342   0.083   3.878  17.090  0.6033  0.3700  0.0043
 8284TIP3    H146343   0.056   3.943  17.025 -1.8241  0.1672  0.7149
 8284TIP3    H246344   0.077   3.924  17.174  2.6327  0.3036  0.2454
 8285TIP3   OH246345   6.150   2.523  14.849 -0.2171 -0.3093  0.4823
 8285TIP3    H146346   6.176   2.444  14.802 -1.1682  0.1111 -0.8179
 8285TIP3    H246347   6.062   2.504  14.881 -1.0724  0.6945 -1.1207
 8286TIP3   OH246348   2.201   2.642  13.125  0.5701 -0.2826  0.3199
 8286TIP3    H146349   2.115   2.682  13.125  1.5457  2.0621  1.9448
 8286TIP3    H246350   2.186   2.550  13.147 -1.6251 -0.4500 -1.5818
 8287TIP3   OH246351   4.447   4.421   5.418 -0.0967 -1.0163  0.3097
 8287TIP3    H146352   4.431   4.333   5.453 -1.4313 -0.9105  0.0217
 8287TIP3    H246353   4.362   4.449   5.384 -0.0499  0.9395  1.6165
 8288TIP3   OH246354   4.887   6.250  11.274  0.2362 -0.3180  0.5195
 8288TIP3    H146355   4.832   6.181  11.312  2.2850 -1.8864  0.7915
 8288TIP3    H246356   4.864   6.249  11.181 -0.5018 -0.6447  0.6914
 8289TIP3   OH246357   1.948   2.857   0.809  0.3689 -0.0675 -0.4769
 8289TIP3    H146358   1.910   2.944   0.822  0.7585  0.2536 -1.4039
 8289TIP3    H246359   1.931   2.811   0.891 -0.1147  0.7798 -0.0878
 8290TIP3   OH246360   0.663   4.888   5.023  0.5244 -0.5422  0.1979
 8290TIP3    H146361   0.573   4.920   5.024  0.3742 -0.5943 -2.8247
 8290TIP3    H246362   0.692   4.902   4.933  2.5483 -3.2370  0.3265
 8291TIP3   OH246363   0.563   1.494  15.810 -0.0988 -0.1556  0.2434
 8291TIP3    H146364   0.572   1.588  15.793  0.6421 -0.1566  0.5970
 8291TIP3    H246365   0.630   1.475  15.876  0.4766 -1.1331 -0.5886
 8292TIP3   OH246366   1.078   1.617   2.993  0.3650 -0.1873 -0.3571
 8292TIP3    H146367   1.088   1.711   3.009 -1.0265  0.0124 -0.5533
 8292TIP3    H246368   1.086   1.608   2.898  0.5850 -0.2904 -0.3306
 8293TIP3   OH246369   5.538   0.673  14.422  0.4255  0.4760 -0.1604
 8293TIP3    H146370   5.492   0.680  14.339 -1.9896  0.0110  1.0374
 8293TIP3    H246371   5.534   0.580  14.445  0.7858  0.6393  0.6091
 8294TIP3   OH246372   1.239   4.705  12.187 -0.0461  0.1698  0.3750
 8294TIP3    H146373   1.316   4.728  12.239  0.4164  1.6678 -0.8843
 8294TIP3    H246374   1.170   4.764  12.217 -0.2215 -0.0246  0.3574
 8295TIP3   OH246375   4.738   2.342  12.933  0.4163  0.0974  0.3446
 8295TIP3    H146376   4.758   2.423  12.885  1.8485  0.2808  1.1938
 8295TIP3    H246377   4.649   2.356  12.966  0.0950  0.7149 -0.7255
 8296TIP3   OH246378   0.419   4.352   1.246 -0.2457 -0.6938 -0.1749
 8296TIP3    H146379   0.333   4.393   1.236 -0.0419 -0.2574 -0.1430
 8296TIP3    H246380   0.405   4.283   1.310 -0.5944 -0.6890 -0.2430
 8297TIP3   OH246381   6.329   5.532  14.066 -1.1264 -0.0135 -0.7814
 8297TIP3    H146382   6.403   5.579  14.105 -1.6735  0.3009 -0.0926
 8297TIP3    H246383   6.368   5.478  13.997 -0.3601  0.7071 -0.9265
 8298TIP3   OH246384   5.409   0.750   0.040 -0.1607  0.1853  0.2542
 8298TIP3    H146385   5.409   0.830   0.093  1.5842 -0.6789  1.6482
 8298TIP3    H246386   5.444   0.777  -0.044  0.5443  0.8657  0.7564
 8299TIP3   OH246387   0.880   3.439   0.129 -0.3565  0.0617  0.3259
 8299TIP3    H146388   0.966   3.462   0.094  0.2823 -0.7662  1.2750
 8299TIP3    H246389   0.894   3.355   0.173 -1.7908 -0.3690  0.0179
 8300TIP3   OH246390   5.466   4.538  16.828  0.2280 -0.5022  0.1371
 8300TIP3    H146391   5.395   4.477  16.809 -1.1493  1.0603  0.1644
 8300TIP3    H246392   5.424   4.622  16.843  1.9830  0.2429  1.2990
 8301TIP3   OH246393   1.581   0.746   0.478 -0.1818  0.3782  0.0683
 8301TIP3    H146394   1.548   0.831   0.450  0.8342  1.3354  1.6159
 8301TIP3    H246395   1.675   0.758   0.487 -0.1206 -0.6563  1.1024
 8302TIP3   OH246396   1.213   0.507  12.097 -0.1604 -0.3316 -0.0419
 8302TIP3    H146397   1.139   0.527  12.155 -0.7749 -1.6338 -0.3441
 8302TIP3    H246398   1.204   0.414  12.079  0.7062 -0.1861 -1.2924
 8303TIP3   OH246399   2.157   3.042  12.542 -0.3156 -0.2324  0.0671
 8303TIP3    H146400   2.071   3.053  12.583 -0.9654  2.7329 -1.8148
 8303TIP3    H246401   2.138   3.013  12.453  0.9482 -3.4980  0.6969
 8304TIP3   OH246402   5.275   4.158  14.577  0.6504 -0.0355 -0.2454
 8304TIP3    H146403   5.366   4.130  14.583  0.5309 -0.2326  0.8279
 8304TIP3    H246404   5.260   4.208  14.657 -0.1074  0.2240 -0.5419
 8305TIP3   OH246405   2.703   0.206   3.271 -0.1389  0.0004  0.0904
 8305TIP3    H146406   2.682   0.237   3.183 -1.5259 -0.6429  0.1615
 8305TIP3    H246407   2.666   0.271   3.330  0.4544  0.2350  0.2131
 8306TIP3   OH246408   1.496   0.837  13.754  0.3177 -0.6008  0.3327
 8306TIP3    H146409   1.585   0.872  13.744  0.4082  0.1298  2.9164
 8306TIP3    H246410   1.442   0.891  13.696  1.3976 -0.4184 -0.5385
 8307TIP3   OH246411   2.810   5.533  17.058 -0.0067 -0.0994 -0.2104
 8307TIP3    H146412   2.792   5.447  17.020 -0.9347  0.1265 -0.3229
 8307TIP3    H246413   2.724   5.576  17.061  0.8381  2.2713 -3.6826
 8308TIP3   OH246414   6.772   4.614  16.990 -0.0517 -0.0150 -0.3339
 8308TIP3    H146415   6.779   4.662  16.908 -0.2809  2.0295  0.7687
 8308TIP3    H246416   6.770   4.682  17.058  0.8388 -1.6404  1.4343
 8309TIP3   OH246417   2.860   4.912   1.042 -0.2060 -0.1054  0.4631
 8309TIP3    H146418   2.765   4.910   1.038 -0.2368  0.2481  1.0027
 8309TIP3    H246419   2.881   4.993   1.087  0.3725  0.1588 -0.2555
 8310TIP3   OH246420   5.458   3.406   4.417 -0.2781  0.0824 -0.0697
 8310TIP3    H146421   5.429   3.492   4.449 -0.8547 -0.4783  0.9565
 8310TIP3    H246422   5.544   3.394   4.457 -0.5570 -0.1693  0.4698
 8311TIP3   OH246423   5.406   1.702  16.795 -0.1839  0.1828 -0.2166
 8311TIP3    H146424   5.362   1.787  16.790 -0.2672  0.1461 -0.1040
 8311TIP3    H246425   5.344   1.640  16.757 -0.1212  0.1716 -0.3058
 8312TIP3   OH246426   4.686   6.410  17.106 -0.2426 -0.1455 -0.1215
 8312TIP3    H146427   4.640   6.341  17.153 -0.5559 -0.6349 -1.1324
 8312TIP3    H246428   4.623   6.443  17.042  0.7027 -0.6744 -1.3885
 8313TIP3   OH246429   5.213   5.384  12.988 -0.7881  0.6949 -0.0272
 8313TIP3    H146430   5.274   5.310  12.979 -0.5210  0.8105  0.7227
 8313TIP3    H246431   5.136   5.358  12.937 -0.2499  0.3991 -0.7049
 8314TIP3   OH246432   6.694   4.499   2.746  0.0728  0.0363 -0.0678
 8314TIP3    H146433   6.716   4.412   2.781 -0.6778  0.2297  0.9223
 8314TIP3    H246434   6.603   4.513   2.773  0.4100  1.4263  0.3856
 8315TIP3   OH246435   5.350   0.861  12.617 -0.1030 -0.5077  0.0658
 8315TIP3    H146436   5.306   0.789  12.662  0.8120 -1.4360 -0.5030
 8315TIP3    H246437   5.439   0.861  12.652  0.8464 -1.6987 -2.1892
 8316TIP3   OH246438   5.750   0.946   5.747  0.2141  0.2534  0.1945
 8316TIP3    H146439   5.784   0.964   5.659  2.0745  0.5885  0.9468
 8316TIP3    H246440   5.827   0.938   5.802 -0.9160  0.0576  1.8330
 8317TIP3   OH246441   4.230   6.284  14.050 -0.2624 -0.0408  0.0720
 8317TIP3    H146442   4.260   6.372  14.075 -0.3729 -0.0795  0.3435
 8317TIP3    H246443   4.135   6.292  14.044 -0.2107  0.0756 -0.7661
 8318TIP3   OH246444   3.128   3.788   2.520 -0.0243  0.1583  0.0155
 8318TIP3    H146445   3.192   3.806   2.589 -0.5781 -1.0468  0.8707
 8318TIP3    H246446   3.180   3.752   2.448  0.4264  0.4461  0.1942
 8319TIP3   OH246447   0.252   2.198   3.903 -0.2058  0.5350  0.1053
 8319TIP3    H146448   0.222   2.280   3.863 -1.4275  1.0697  1.9661
 8319TIP3    H246449   0.328   2.223   3.955  4.3277 -0.8853 -4.9357
 8320TIP3   OH246450   2.799   2.317  12.579  0.3975  0.0936 -0.3477
 8320TIP3    H146451   2.837   2.328  12.666  1.6392  3.1754 -1.1749
 8320TIP3    H246452   2.869   2.280  12.526  0.7037  1.2240 -0.7512
 8321TIP3   OH246453   4.633   2.897   3.319 -0.5007  0.1726 -0.0418
 8321TIP3    H146454   4.599   2.986   3.306 -0.0326  0.2359 -0.8897
 8321TIP3    H246455   4.674   2.875   3.235  1.6724  0.1392  0.9902
 8322TIP3   OH246456   5.713   4.508  11.189  0.6162  0.1882 -0.3310
 8322TIP3    H146457   5.676   4.472  11.108  0.4866 -1.6294  0.4916
 8322TIP3    H246458   5.748   4.593  11.163 -2.6391  1.3157 -1.5037
 8323TIP3   OH246459   0.641   1.088   3.594  0.3903 -0.5656  0.4159
 8323TIP3    H146460   0.621   1.036   3.672  2.9542  0.8212  2.1637
 8323TIP3    H246461   0.731   1.064   3.571 -0.3756 -1.1498 -2.3826
 8324TIP3   OH246462   4.681   3.678   1.824  0.0573  0.6291 -0.0414
 8324TIP3    H146463   4.756   3.619   1.831  0.6804  1.3148 -0.8287
 8324TIP3    H246464   4.676   3.699   1.730 -2.4994 -1.1950 -0.4293
 8325TIP3   OH246465   4.003   6.250   0.159 -0.1834 -0.0808 -0.2460
 8325TIP3    H146466   4.056   6.294   0.226  1.0988  1.2927 -2.0534
 8325TIP3    H246467   3.918   6.293   0.165 -0.3697 -0.6029  1.0822
 8326TIP3   OH246468   2.076   5.366   6.511  0.0418  0.2460 -0.0244
 8326TIP3    H146469   1.993   5.344   6.553  0.1811  0.2026  0.2353
 8326TIP3    H246470   2.084   5.461   6.524  0.6170  0.0632  1.0450
 8327TIP3   OH246471   2.796   1.460  16.966 -0.3637 -0.3367 -0.4666
 8327TIP3    H146472   2.804   1.376  16.920 -0.3644  0.5938 -2.2485
 8327TIP3    H246473   2.702   1.473  16.976 -0.3587 -1.3486  1.4632
 8328TIP3   OH246474   5.176   4.464  11.395  0.6263  0.0568  0.0750
 8328TIP3    H146475   5.262   4.479  11.356  0.1629  0.1269 -0.9429
 8328TIP3    H246476   5.115   4.511  11.339 -0.2462 -1.1956 -0.0877
 8329TIP3   OH246477   0.878   6.764   0.280 -0.4773 -0.3019 -0.1742
 8329TIP3    H146478   0.930   6.818   0.220 -0.1899 -0.9489 -0.5054
 8329TIP3    H246479   0.826   6.708   0.224  0.6066 -1.7078  0.1527
 8330TIP3   OH246480   3.846   1.598  14.214 -0.3987 -0.1987  0.5178
 8330TIP3    H146481   3.916   1.550  14.171 -1.6973 -0.5026 -1.3722
 8330TIP3    H246482   3.891   1.654  14.277  1.4615 -0.9689 -0.0510
 8331TIP3   OH246483   2.286   1.350  12.468  0.1832 -0.3962 -0.1797
 8331TIP3    H146484   2.339   1.330  12.545 -2.4140 -0.2563  1.7879
 8331TIP3    H246485   2.276   1.266  12.423  1.4966 -0.5286 -0.2783
 8332TIP3   OH246486   3.398   2.179  14.893  0.1194  0.1343 -0.3002
 8332TIP3    H146487   3.372   2.096  14.933 -0.5620 -0.0507 -1.0869
 8332TIP3    H246488   3.355   2.178  14.807 -2.0148  2.4147  0.6322
 8333TIP3   OH246489   6.319   3.401  15.467 -0.4196  0.1035  0.3834
 8333TIP3    H146490   6.370   3.381  15.545  0.2640  0.0955 -0.0581
 8333TIP3    H246491   6.228   3.391  15.495 -0.1867  0.2039  1.2027
 8334TIP3   OH246492   6.318   4.908   3.591  0.1174 -0.2414  1.3402
 8334TIP3    H146493   6.348   4.987   3.635 -0.0983 -0.1015  1.2393
 8334TIP3    H246494   6.281   4.853   3.660  0.1307 -0.1896  1.3877
 8335TIP3   OH246495   0.436   0.166   0.124 -0.2128 -0.2117  0.5476
 8335TIP3    H146496   0.455   0.116   0.044  1.0244  1.1073 -0.0139
 8335TIP3    H246497   0.518   0.164   0.174 -0.8763 -0.7400  1.6462
 8336TIP3   OH246498   1.810   5.686  13.744 -0.2622  0.3983 -0.5841
 8336TIP3    H146499   1.807   5.629  13.821  1.4463 -1.9891 -2.1483
 8336TIP3    H246500   1.723   5.727  13.741 -0.7401 -0.2677  1.9500
 8337TIP3   OH246501   2.354   0.866  12.644  0.0128 -0.4613  0.8027
 8337TIP3    H146502   2.365   0.855  12.739 -0.0094 -1.9500  0.6477
 8337TIP3    H246503   2.263   0.840  12.628 -0.3052  0.7828  0.4997
 8338TIP3   OH246504   1.454   0.066  17.117  0.6464 -0.0381  0.2451
 8338TIP3    H146505   1.464   0.131  17.187 -2.2383 -1.5931  2.3460
 8338TIP3    H246506   1.366   0.080  17.083 -0.8939 -3.7708  2.0696
 8339TIP3   OH246507   3.183   1.311  11.063  0.1689 -0.0685 -0.5347
 8339TIP3    H146508   3.122   1.283  10.994  0.2220 -2.2127  0.2045
 8339TIP3    H246509   3.241   1.374  11.021  0.5980 -1.7798 -2.6570
 8340TIP3   OH246510   6.565   2.941  16.947 -0.5857 -0.6078  0.0699
 8340TIP3    H146511   6.483   2.931  16.995 -0.3250 -2.7756  0.1767
 8340TIP3    H246512   6.556   3.025  16.902 -1.8198  0.3758  1.9886
 8341TIP3   OH246513   3.013   4.418  11.630 -0.2832 -0.2878  0.1773
 8341TIP3    H146514   3.021   4.344  11.691 -0.3908  0.3425  0.9810
 8341TIP3    H246515   3.057   4.490  11.675  0.1129  0.0579 -0.7393
 8342TIP3   OH246516   6.342   2.872  16.701 -0.0245  0.1292  0.2773
 8342TIP3    H146517   6.292   2.810  16.648 -1.5796  1.2564  0.3495
 8342TIP3    H246518   6.391   2.817  16.763 -0.9502 -1.0369  0.0075
 8343TIP3   OH246519   4.308   5.755   0.771 -0.0142 -0.2565 -0.4203
 8343TIP3    H146520   4.241   5.737   0.705 -0.0518  2.1024 -1.1458
 8343TIP3    H246521   4.275   5.831   0.819  1.4011 -0.0449  0.2848
 8344TIP3   OH246522   2.480   4.840   4.305  0.3539 -0.5423  0.2910
 8344TIP3    H146523   2.526   4.757   4.314  0.9525 -0.1106  1.5299
 8344TIP3    H246524   2.402   4.830   4.359  0.2516 -0.4209  0.1660
 8345TIP3   OH246525   3.383   2.127   5.916 -0.3102  0.0971 -0.2705
 8345TIP3    H146526   3.294   2.099   5.940  0.2639 -1.3993  0.2392
 8345TIP3    H246527   3.386   2.219   5.941 -1.8181  0.2660 -0.6057
 8346TIP3   OH246528   4.634   3.029  15.331 -0.0267 -0.3413 -0.1046
 8346TIP3    H146529   4.695   2.992  15.394 -1.1879  0.7881  1.7812
 8346TIP3    H246530   4.556   2.974  15.337 -1.4638  1.7536  2.1412
 8347TIP3   OH246531   5.333   4.892  11.555 -0.1850 -0.2435  0.0393
 8347TIP3    H146532   5.303   4.831  11.621 -0.9588  1.3394  1.2159
 8347TIP3    H246533   5.429   4.890  11.562 -0.1601 -1.6878 -0.3459
 8348TIP3   OH246534   0.947   2.199   6.287  0.0008  0.0253  0.4919
 8348TIP3    H146535   0.950   2.143   6.364 -0.4525  1.0894  1.2996
 8348TIP3    H246536   1.018   2.262   6.300  0.6381 -0.4539 -0.5021
 8349TIP3   OH246537   4.541   0.354  15.659  0.1220  0.4203  0.5730
 8349TIP3    H146538   4.489   0.281  15.625  0.2599 -0.5985  2.4609
 8349TIP3    H246539   4.494   0.432  15.629 -0.9213 -0.4446 -0.1255
 8350TIP3   OH246540   5.193   5.514  13.639 -0.1501 -0.5258 -1.0883
 8350TIP3    H146541   5.268   5.459  13.620  1.4912  1.5610 -1.0562
 8350TIP3    H246542   5.211   5.551  13.725 -1.2521 -0.0310 -1.0464
 8351TIP3   OH246543   5.911   0.695  12.177 -0.2297 -0.2388 -0.2162
 8351TIP3    H146544   5.845   0.627  12.164 -0.0770 -0.9009  2.0378
 8351TIP3    H246545   5.990   0.648  12.202  0.3719  0.6788 -0.3560
 8352TIP3   OH246546   0.849   0.386  15.735 -0.2394  0.2460  0.2013
 8352TIP3    H146547   0.818   0.299  15.760  1.2998 -0.0486  1.2259
 8352TIP3    H246548   0.916   0.369  15.668 -2.3334  0.8846 -2.2258
 8353TIP3   OH246549   6.589   0.490  12.176  0.0742  0.2300  0.3516
 8353TIP3    H146550   6.522   0.489  12.244 -1.4377  0.0142 -1.0875
 8353TIP3    H246551   6.551   0.542  12.105  1.2418 -0.2706 -0.6827
 8354TIP3   OH246552   2.129   0.651  12.725 -0.2365  0.2273  0.3729
 8354TIP3    H146553   2.097   0.604  12.802 -0.0117  1.8615  1.5218
 8354TIP3    H246554   2.054   0.703  12.696 -0.1847 -0.0347 -0.2360
 8355TIP3   OH246555   4.058   4.950  12.084  0.2343 -0.3881  0.0900
 8355TIP3    H146556   4.045   4.980  12.173  1.1849 -0.7684  0.3784
 8355TIP3    H246557   4.008   4.869  12.078 -0.6624  0.1716 -0.0472
 8356TIP3   OH246558   0.405   6.536   0.096  0.3522  0.2175  0.1422
 8356TIP3    H146559   0.332   6.548   0.036  1.7498  2.3376 -1.2794
 8356TIP3    H246560   0.446   6.454   0.067  0.0367  0.3555 -0.7196
 8357TIP3   OH246561   6.338   5.236  11.804 -0.6029 -0.6868  0.6269
 8357TIP3    H146562   6.254   5.228  11.758 -0.5736  0.9522  0.2317
 8357TIP3    H246563   6.321   5.298  11.874  0.0768 -0.9994  1.0792
 8358TIP3   OH246564   6.291   0.431  11.794 -0.2540  0.4965  0.0353
 8358TIP3    H146565   6.255   0.516  11.819  0.3691  0.7782 -0.0036
 8358TIP3    H246566   6.383   0.435  11.820 -0.2748 -0.2555  0.2435
 8359TIP3   OH246567   6.150   0.008   4.752  0.3438  1.0518  0.2053
 8359TIP3    H146568   6.117  -0.005   4.841 -0.7925  1.2436 -0.1633
 8359TIP3    H246569   6.204  -0.070   4.735  0.2271  0.8075  0.9074
 8360TIP3   OH246570   5.951   3.726   4.315  0.0376 -0.2549 -0.0781
 8360TIP3    H146571   6.003   3.648   4.329  1.1004  0.7243  1.8575
 8360TIP3    H246572   5.997   3.774   4.246 -1.4440 -1.9267 -2.3942
 8361TIP3   OH246573   2.847   0.890  15.274 -0.5103 -0.1556 -0.5326
 8361TIP3    H146574   2.872   0.968  15.225  0.7654 -0.0212  0.2778
 8361TIP3    H246575   2.883   0.817  15.223 -1.1353 -0.1798 -0.9494
 8362TIP3   OH246576   1.714   6.423  16.422 -0.2653  0.5669  0.0505
 8362TIP3    H146577   1.739   6.506  16.462  0.7275  0.4592 -0.3189
 8362TIP3    H246578   1.776   6.360  16.459 -0.4503  0.1491 -0.3459
 8363TIP3   OH246579   0.823   1.042   5.683 -0.0371  0.0213  0.5887
 8363TIP3    H146580   0.894   1.049   5.619 -0.1417 -1.5289  0.2751
 8363TIP3    H246581   0.750   1.002   5.636 -0.9999  1.2112  1.0231
 8364TIP3   OH246582   4.410   3.292   0.766 -0.2708  0.5522  0.3028
 8364TIP3    H146583   4.332   3.254   0.724  0.8912 -0.5346 -0.9750
 8364TIP3    H246584   4.428   3.371   0.716 -0.2506  0.5181  0.2556
 8365TIP3   OH246585   6.419   6.412   5.351  0.2460  0.0113 -0.7097
 8365TIP3    H146586   6.337   6.362   5.356 -1.3829  2.5172 -0.4873
 8365TIP3    H246587   6.422   6.444   5.260  0.9738 -0.0490 -0.7107
 8366TIP3   OH246588   1.955   0.316   4.792 -0.3799  0.0598  0.2205
 8366TIP3    H146589   1.884   0.324   4.856 -1.3853 -3.0019 -0.3235
 8366TIP3    H246590   1.911   0.318   4.707  0.4657  0.2765 -0.2233
 8367TIP3   OH246591   2.193   3.633  11.756 -0.3544 -0.3921  0.1044
 8367TIP3    H146592   2.175   3.717  11.714  1.0667 -0.1480 -0.0471
 8367TIP3    H246593   2.267   3.650  11.815  0.9100 -1.8322 -0.9889
 8368TIP3   OH246594   4.136   0.641  11.996 -1.0884 -0.1555 -0.0054
 8368TIP3    H146595   4.216   0.589  11.999 -2.7554 -3.0913 -1.5982
 8368TIP3    H246596   4.088   0.616  12.074 -1.9139 -1.1619 -0.7966
 8369TIP3   OH246597   6.380   4.005   1.584 -0.0539 -0.1837 -0.3905
 8369TIP3    H146598   6.299   3.955   1.591 -0.8513  1.1455  0.3323
 8369TIP3    H246599   6.354   4.084   1.536  1.0435 -0.1898 -1.0139
 8370TIP3   OH246600   6.830   1.063   0.431 -0.1938  0.2692  0.6635
 8370TIP3    H146601   6.791   1.144   0.399  1.6628  0.9719  0.0813
 8370TIP3    H246602   6.774   1.037   0.504 -1.5807  1.3415  0.0369
 8371TIP3   OH246603   1.692   6.700  16.211  0.2278  0.4857 -0.0447
 8371TIP3    H146604   1.719   6.781  16.168 -0.0497  0.4903 -0.2120
 8371TIP3    H246605   1.772   6.647  16.214  0.5587  0.9988  0.6049
 8372TIP3   OH246606   1.800   1.143   0.770  0.5609 -0.5758 -0.5910
 8372TIP3    H146607   1.734   1.078   0.795 -0.4344  0.5713 -0.1128
 8372TIP3    H246608   1.757   1.196   0.704  0.4821  1.0274  0.6815
 8373TIP3   OH246609   1.000   1.130  12.919  0.1127  0.2258  0.2777
 8373TIP3    H146610   1.072   1.079  12.956 -1.5213 -1.8039  0.8197
 8373TIP3    H246611   1.025   1.143  12.827  0.9754 -0.8361  0.3449
 8374TIP3   OH246612   1.872   1.003  11.653  0.6432  0.0534 -0.2154
 8374TIP3    H146613   1.847   1.033  11.740  1.4223  1.0255 -0.3101
 8374TIP3    H246614   1.967   1.014  11.649  0.6228  0.0284 -1.1845
 8375TIP3   OH246615   2.695   3.471  16.412  0.2878  0.1253 -0.4038
 8375TIP3    H146616   2.728   3.525  16.484  0.7366 -1.5066  0.6688
 8375TIP3    H246617   2.673   3.387  16.453 -1.8763 -0.0272 -1.7268
 8376TIP3   OH246618   5.296   1.257   1.045 -0.2602  0.3382  0.0435
 8376TIP3    H146619   5.360   1.307   1.096  2.0879 -1.5345 -0.8860
 8376TIP3    H246620   5.269   1.186   1.103 -0.2408  0.1866 -0.1318
 8377TIP3   OH246621   6.044   1.332   2.368 -0.0323  0.3697  1.0005
 8377TIP3    H146622   6.030   1.418   2.409 -2.9162  0.8772 -0.7313
 8377TIP3    H246623   6.019   1.345   2.276  0.8493 -1.9963  0.3597
 8378TIP3   OH246624   3.844   0.675   6.299  0.5780 -0.3764 -0.0017
 8378TIP3    H146625   3.792   0.754   6.287  0.6331 -0.1337  1.2573
 8378TIP3    H246626   3.913   0.700   6.360  1.3921 -1.0559 -0.6057
 8379TIP3   OH246627   3.661   3.818  17.114 -0.3150  0.5745  0.1798
 8379TIP3    H146628   3.601   3.805  17.188  0.4766 -0.1292  0.7298
 8379TIP3    H246629   3.669   3.731  17.075  0.2348  0.6919  0.0321
 8380TIP3   OH246630   3.237   5.687  17.098  0.3882 -0.5995  0.5451
 8380TIP3    H146631   3.297   5.762  17.109  1.1726 -1.1998  0.4793
 8380TIP3    H246632   3.286   5.613  17.132 -0.9023 -0.8788  1.8543
 8381TIP3   OH246633   0.958   5.089  11.815  0.0891 -0.3590  0.7375
 8381TIP3    H146634   0.982   5.150  11.884  2.3768 -2.7576  2.2646
 8381TIP3    H246635   0.867   5.066  11.835  0.1831  0.2531  1.9927
 8382TIP3   OH246636   6.614   3.449  10.645  0.0343 -0.6212  0.0919
 8382TIP3    H146637   6.642   3.488  10.728 -0.3376 -0.6853  0.2526
 8382TIP3    H246638   6.570   3.521  10.599  1.3123 -0.2547 -0.5866
 8383TIP3   OH246639   6.403   5.834   4.627  0.1558 -0.0181 -0.6457
 8383TIP3    H146640   6.321   5.785   4.625  0.8269 -1.1863 -0.1412
 8383TIP3    H246641   6.435   5.832   4.537  0.2909 -0.7017 -0.5844
 8384TIP3   OH246642   0.552   4.361   6.375  0.6622 -0.4112 -0.8970
 8384TIP3    H146643   0.591   4.290   6.323 -0.6332 -1.1215 -0.9628
 8384TIP3    H246644   0.584   4.347   6.464 -0.4377 -1.8029 -0.6716
 8385TIP3   OH246645   2.420   5.787   3.163 -0.0416 -0.2024  0.5902
 8385TIP3    H146646   2.397   5.864   3.111  0.9363  0.1032  0.5964
 8385TIP3    H246647   2.388   5.713   3.112  0.6350  0.1108 -0.3206
 8386TIP3   OH246648   6.361   2.370  15.483  0.0425 -0.0599  0.6248
 8386TIP3    H146649   6.454   2.377  15.461 -0.6857  1.5664 -2.5864
 8386TIP3    H246650   6.344   2.276  15.485  1.4006 -0.3776 -0.6326
 8387TIP3   OH246651   3.833   0.888  12.581 -0.4569 -0.0519  0.1344
 8387TIP3    H146652   3.769   0.876  12.512 -0.6808  0.6052  0.2265
 8387TIP3    H246653   3.782   0.893  12.662 -0.3124  0.6656  0.1885
 8388TIP3   OH246654   5.141   3.308   0.045 -0.0806 -1.0152 -0.1920
 8388TIP3    H146655   5.195   3.339   0.117 -0.7978 -0.5204  0.1478
 8388TIP3    H246656   5.151   3.213   0.046  0.5826 -0.9458  0.0188
 8389TIP3   OH246657   5.157   5.199  13.509  0.2024  0.1918  0.5511
 8389TIP3    H146658   5.163   5.214  13.414 -0.0286 -0.9948  0.3374
 8389TIP3    H246659   5.081   5.250  13.536 -0.6686 -0.6793 -0.1806
 8390TIP3   OH246660   1.446   2.743  14.208  0.1412 -0.2622  0.2105
 8390TIP3    H146661   1.358   2.774  14.231  0.3582  0.8302 -0.3769
 8390TIP3    H246662   1.502   2.771  14.280  0.4145  1.1384 -0.5232
 8391TIP3   OH246663   3.962   2.433   0.549  0.4146  0.0109  0.0966
 8391TIP3    H146664   3.966   2.354   0.603 -1.0052 -1.2818 -1.5590
 8391TIP3    H246665   3.885   2.480   0.583 -0.9202 -1.1627 -1.1705
 8392TIP3   OH246666   6.027   2.768  16.292 -0.7400  0.0516 -0.1975
 8392TIP3    H146667   5.937   2.792  16.272  0.0780  1.2989 -2.8870
 8392TIP3    H246668   6.038   2.681  16.254 -0.3117  0.7636 -1.8252
 8393TIP3   OH246669   6.314   0.576  16.261 -0.1360  0.2163 -0.2278
 8393TIP3    H146670   6.247   0.521  16.221 -0.1343  0.7302 -0.9587
 8393TIP3    H246671   6.322   0.543  16.351  0.2977 -1.3609 -0.8161
 8394TIP3   OH246672   4.016   2.260  12.142  0.0189 -0.1508 -0.6717
 8394TIP3    H146673   4.005   2.297  12.230 -0.8889  1.3224 -1.3722
 8394TIP3    H246674   3.950   2.191  12.137 -0.2626  0.0946 -0.3773
 8395TIP3   OH246675   4.756   4.567   1.345  0.4012 -0.2282  0.2325
 8395TIP3    H146676   4.770   4.510   1.421  4.8406 -0.7961 -0.7232
 8395TIP3    H246677   4.708   4.512   1.282 -1.2440 -0.5399  1.6884
 8396TIP3   OH246678   4.076   3.661  12.970 -0.4690 -0.1474  0.1567
 8396TIP3    H146679   4.010   3.606  12.930 -1.9154  2.0825 -0.7088
 8396TIP3    H246680   4.030   3.742  12.992  1.7784  1.1798  0.3161
 8397TIP3   OH246681   4.858   3.880  15.848 -0.0012 -0.4568 -0.0839
 8397TIP3    H146682   4.904   3.798  15.869  1.5500  0.6802  1.1823
 8397TIP3    H246683   4.771   3.869  15.885  0.4541 -1.2306  0.7968
 8398TIP3   OH246684   4.745   0.699  15.528 -0.1129 -0.3883 -0.2568
 8398TIP3    H146685   4.752   0.604  15.541  2.6352 -0.2586 -0.0746
 8398TIP3    H246686   4.805   0.717  15.455 -1.3421  1.1094 -0.9380
 8399TIP3   OH246687   0.081   5.896   5.703 -0.8248 -0.1335  0.4207
 8399TIP3    H146688   0.094   5.913   5.610  0.7235 -0.7081  0.5018
 8399TIP3    H246689   0.045   5.977   5.738  0.6319  0.8518 -0.2860
 8400TIP3   OH246690   3.633   1.026  12.310  0.3437 -0.7438 -0.1200
 8400TIP3    H146691   3.560   1.057  12.256  0.8704  0.6818 -0.0517
 8400TIP3    H246692   3.666   0.949  12.263 -1.1067 -1.3439 -0.2068
 8401TIP3   OH246693   5.632   1.498   5.183 -0.4204 -0.7632 -0.4288
 8401TIP3    H146694   5.583   1.554   5.244  1.1938 -0.2187  0.4496
 8401TIP3    H246695   5.645   1.416   5.231  1.2681 -0.1667  0.2443
 8402TIP3   OH246696   2.203   6.508   2.452 -0.5012  0.4142 -0.0856
 8402TIP3    H146697   2.128   6.567   2.441 -0.2321  0.6895 -0.4758
 8402TIP3    H246698   2.228   6.484   2.363  1.4002  2.2870 -0.1442
 8403TIP3   OH246699   0.604   1.111   5.142  0.3465 -0.2351  0.0814
 8403TIP3    H146700   0.618   1.157   5.225  0.0451 -1.1265  0.6450
 8403TIP3    H246701   0.680   1.134   5.088 -0.0992  1.3927  0.1140
 8404TIP3   OH246702   4.906   3.641  12.206  0.1158  0.0119  0.1049
 8404TIP3    H146703   4.894   3.612  12.116  2.5738 -0.2479 -0.2010
 8404TIP3    H246704   4.839   3.594  12.255 -0.7827 -0.4210 -1.4617
 8405TIP3   OH246705   0.626   0.609   1.727 -0.0927 -0.7578  0.4334
 8405TIP3    H146706   0.617   0.698   1.693 -2.7204 -1.0490  0.0815
 8405TIP3    H246707   0.645   0.620   1.820  0.7187  0.1443  0.1750
 8406TIP3   OH246708   4.179   4.936   5.431  0.1551  0.0683 -0.3302
 8406TIP3    H146709   4.150   5.025   5.452  0.3782 -0.6001  3.7058
 8406TIP3    H246710   4.100   4.883   5.440  0.8079 -0.6259  1.7624
 8407TIP3   OH246711   2.420   3.838   3.652 -0.0771 -0.0784 -0.5435
 8407TIP3    H146712   2.511   3.856   3.674 -0.3632  1.4411 -0.5406
 8407TIP3    H246713   2.372   3.853   3.734 -0.2845 -1.4748 -0.3773
 8408TIP3   OH246714   3.226   1.887   5.737  0.2144  0.8951  0.3459
 8408TIP3    H146715   3.206   1.940   5.814  0.0915  0.2746  0.7444
 8408TIP3    H246716   3.237   1.951   5.666 -1.1502  1.3761  0.5529
 8409TIP3   OH246717   4.534   1.801   0.518  0.0438  0.2704  0.1474
 8409TIP3    H146718   4.612   1.792   0.462 -0.1211  2.3461 -0.5022
 8409TIP3    H246719   4.465   1.828   0.458 -0.7035  0.3210  1.0177
 8410TIP3   OH246720   0.786   1.827  15.355 -0.1368  0.2408  0.4249
 8410TIP3    H146721   0.702   1.801  15.392 -0.5124  1.1285  0.2378
 8410TIP3    H246722   0.808   1.909  15.400 -0.9500  1.7397 -1.7076
 8411TIP3   OH246723   0.038   3.416   3.715  0.5443  0.3299  0.1593
 8411TIP3    H146724   0.069   3.456   3.797 -1.2988  0.5047  0.8202
 8411TIP3    H246725   0.018   3.325   3.738 -1.7291  0.8359  0.4457
 8412TIP3   OH246726   5.030   1.612  13.278  0.0443 -0.4605  0.6532
 8412TIP3    H146727   5.121   1.605  13.305 -0.0621 -0.1375  1.1152
 8412TIP3    H246728   4.980   1.595  13.357 -0.3468 -2.1130  0.0914
 8413TIP3   OH246729   5.061   4.349   5.667  0.5671  0.6338 -0.4219
 8413TIP3    H146730   5.141   4.380   5.710  1.1157 -2.5873  1.2302
 8413TIP3    H246731   5.092   4.285   5.603 -0.6257  0.6268 -1.0215
 8414TIP3   OH246732   1.817   4.743   4.937 -0.1177 -0.5050  0.1252
 8414TIP3    H146733   1.832   4.652   4.912 -0.3943 -0.8435  1.1341
 8414TIP3    H246734   1.724   4.757   4.920 -0.1727 -0.5529  0.3778
 8415TIP3   OH246735   0.518   5.691   2.163 -0.5504  0.0979 -0.3373
 8415TIP3    H146736   0.569   5.695   2.082 -0.8475  1.1395 -0.4955
 8415TIP3    H246737   0.583   5.685   2.233 -0.1911  1.4004 -0.5383
 8416TIP3   OH246738   0.046   5.099   2.716 -0.1593  0.4570 -0.4852
 8416TIP3    H146739   0.019   5.190   2.703 -0.5786  0.1255 -2.2025
 8416TIP3    H246740   0.123   5.090   2.660  1.0830  0.2601  1.1913
 8417TIP3   OH246741   2.442   1.537   2.156 -0.3270  0.3527  0.8216
 8417TIP3    H146742   2.446   1.548   2.251 -2.0507 -0.4221  1.0148
 8417TIP3    H246743   2.349   1.542   2.135 -0.2636 -2.2253 -0.4668
 8418TIP3   OH246744   5.251   0.436   2.884  0.3131 -0.0240  0.3305
 8418TIP3    H146745   5.247   0.395   2.798 -0.4864 -0.1802  0.4368
 8418TIP3    H246746   5.186   0.389   2.937  1.0458 -0.1638  1.1236
 8419TIP3   OH246747   3.276   2.884  16.155  0.1039  0.4444  0.3465
 8419TIP3    H146748   3.228   2.966  16.162 -0.9857 -0.1235 -0.1654
 8419TIP3    H246749   3.255   2.851  16.068 -0.7819 -1.1392  1.0987
 8420TIP3   OH246750   3.942   3.670   3.852 -0.0609  0.2044  0.2827
 8420TIP3    H146751   3.981   3.594   3.808  0.8731  0.6235  0.3600
 8420TIP3    H246752   3.949   3.740   3.787  0.0400  0.4817  0.5943
 8421TIP3   OH246753   6.013   1.905  15.015  0.5117 -0.4949 -0.3245
 8421TIP3    H146754   6.071   1.902  14.939  0.3932 -1.6203 -0.3869
 8421TIP3    H246755   5.925   1.912  14.979  0.5275  0.0135 -0.2641
 8422TIP3   OH246756   5.085   4.371   4.591  0.5860  0.4530 -0.0770
 8422TIP3    H146757   5.172   4.385   4.627  0.5542  1.4325 -0.3742
 8422TIP3    H246758   5.058   4.456   4.557  0.7897 -0.5011 -2.8470
 8423TIP3   OH246759   2.091   2.019   0.452  0.1228  0.7110 -0.2465
 8423TIP3    H146760   2.128   2.066   0.377  3.6404 -1.2051  0.0997
 8423TIP3    H246761   2.167   1.993   0.504 -1.9992 -0.7173  2.3679
 8424TIP3   OH246762   1.951   4.462  14.462  0.0022 -0.2215 -0.4223
 8424TIP3    H146763   1.981   4.411  14.387  2.3305  0.3965  0.0283
 8424TIP3    H246764   1.886   4.406  14.504  0.0382 -1.3675 -1.8148
 8425TIP3   OH246765   1.559   0.204  11.941  0.5000 -0.3878 -0.2817
 8425TIP3    H146766   1.512   0.280  11.975 -1.0482 -1.8084  0.8936
 8425TIP3    H246767   1.604   0.237  11.863 -1.1459  1.4175 -0.5407
 8426TIP3   OH246768   6.380   3.039   5.660 -0.5726  0.4304 -0.5838
 8426TIP3    H146769   6.319   3.079   5.722  0.4953  0.0659  0.7465
 8426TIP3    H246770   6.462   3.086   5.673 -0.1359 -0.1341 -1.2355
 8427TIP3   OH246771   5.331   5.587   1.792  0.5171 -0.0847 -0.1560
 8427TIP3    H146772   5.390   5.623   1.858  2.4499 -0.4140 -1.6239
 8427TIP3    H246773   5.383   5.522   1.745 -2.0267 -2.8404  0.5728
 8428TIP3   OH246774   3.266   3.451  15.999  0.8590  0.0701  0.1156
 8428TIP3    H146775   3.320   3.508  16.054  0.3269  0.5783  0.1249
 8428TIP3    H246776   3.297   3.467  15.910  2.8932 -2.0170  0.3605
 8429TIP3   OH246777   4.613   5.406   2.376 -0.7493  0.5798 -0.0583
 8429TIP3    H146778   4.685   5.439   2.322 -1.8405  1.6551 -0.9171
 8429TIP3    H246779   4.652   5.395   2.463  0.5923  0.5491 -0.6344
 8430TIP3   OH246780   4.108   0.817   1.236 -0.3170  0.3825  0.5166
 8430TIP3    H146781   4.129   0.769   1.316  1.2438 -0.3055 -0.2753
 8430TIP3    H246782   4.048   0.886   1.265 -1.3074 -1.0014  1.9541
 8431TIP3   OH246783   4.147   1.825  17.052  0.0132 -0.5243  0.5751
 8431TIP3    H146784   4.137   1.805  17.145 -1.2512  2.3796  1.1520
 8431TIP3    H246785   4.224   1.882  17.048 -0.2121 -0.2654 -0.1221
 8432TIP3   OH246786   3.155   6.804  13.761 -0.1780  0.1726 -0.3974
 8432TIP3    H146787   3.068   6.769  13.778 -0.6387  1.4716  0.0165
 8432TIP3    H246788   3.208   6.772  13.834 -0.5979  0.3594 -0.0085
 8433TIP3   OH246789   3.379   5.725  11.034 -0.2602 -0.4322  0.3312
 8433TIP3    H146790   3.309   5.691  11.090  0.4747 -2.3000  0.2062
 8433TIP3    H246791   3.371   5.674  10.953  0.2319  0.4946 -0.3198
 8434TIP3   OH246792   6.327   6.340  15.877  0.2583 -0.9019 -0.5306
 8434TIP3    H146793   6.234   6.353  15.897  0.1142  1.7622 -2.3914
 8434TIP3    H246794   6.372   6.411  15.921  0.9144 -0.0224 -2.4993
 8435TIP3   OH246795   6.312   3.224   4.457  0.4613  0.2925 -0.0620
 8435TIP3    H146796   6.396   3.233   4.412 -0.4083 -0.0327 -1.8336
 8435TIP3    H246797   6.292   3.312   4.487 -0.5473  1.3753 -3.4559
 8436TIP3   OH246798   2.557   5.773   3.937 -0.0805  0.2576 -0.2608
 8436TIP3    H146799   2.540   5.866   3.920 -0.2366  0.3360  0.3131
 8436TIP3    H246800   2.641   5.757   3.894  0.2105  0.8031  0.0840
 8437TIP3   OH246801   4.234   3.985  11.781  0.0115  0.3167 -0.1098
 8437TIP3    H146802   4.253   3.892  11.766 -0.7265  0.1736 -0.1645
 8437TIP3    H246803   4.299   4.012  11.846  1.0576  0.0929 -1.0246
 8438TIP3   OH246804   4.071   5.058  10.965 -0.1116 -0.0574  0.1635
 8438TIP3    H146805   4.134   5.028  11.030 -1.1083 -0.0622  1.1595
 8438TIP3    H246806   3.995   4.999  10.976 -0.9174  0.9444  0.1111
 8439TIP3   OH246807   0.873   0.882   6.225  0.6439  0.0523  0.7952
 8439TIP3    H146808   0.919   0.915   6.148 -0.6784  0.9806  0.3799
 8439TIP3    H246809   0.884   0.950   6.291  0.7772 -0.2145  1.0511
 8440TIP3   OH246810   6.675   0.452  17.174  0.2544  0.2448  0.0853
 8440TIP3    H146811   6.726   0.371  17.169  0.2690  0.2196  0.6052
 8440TIP3    H246812   6.585   0.423  17.190  0.3808  0.3510  1.0422
 8441TIP3   OH246813   0.398   1.503  12.966  0.0435 -0.2003 -0.0073
 8441TIP3    H146814   0.350   1.429  12.931  0.5439 -1.4597  1.8130
 8441TIP3    H246815   0.490   1.477  12.962  0.2431  0.3947  0.4714
 8442TIP3   OH246816   5.845   5.847  11.830 -0.0092  0.6319 -0.2038
 8442TIP3    H146817   5.772   5.873  11.886 -0.7341 -0.4002 -0.6268
 8442TIP3    H246818   5.921   5.845  11.888 -0.4444  1.0573  0.3938
 8443TIP3   OH246819   2.939   0.254  13.561 -0.3522  0.1223 -0.1920
 8443TIP3    H146820   2.874   0.291  13.621  0.7241  1.0870  0.4123
 8443TIP3    H246821   2.939   0.313  13.486 -1.5185 -0.9479 -1.0826
 8444TIP3   OH246822   5.258   6.092  16.052  0.1386 -0.1601  0.3666
 8444TIP3    H146823   5.185   6.076  15.993 -0.1378 -0.5076  0.7971
 8444TIP3    H246824   5.335   6.059  16.005  0.2845  1.6407 -0.7649
 8445TIP3   OH246825   6.507   0.777   2.161 -0.4442 -0.6466 -0.3286
 8445TIP3    H146826   6.543   0.866   2.165 -0.7481 -0.4817 -1.1117
 8445TIP3    H246827   6.421   0.788   2.120 -0.7990 -1.2141  0.2409
 8446TIP3   OH246828   1.309   2.546  11.100 -0.6104 -0.2443 -0.1438
 8446TIP3    H146829   1.385   2.573  11.153 -0.9973 -1.9431  1.4029
 8446TIP3    H246830   1.330   2.574  11.011 -0.5658  4.1360  1.0092
 8447TIP3   OH246831   5.249   2.575   3.604  0.0078 -0.1443  0.0919
 8447TIP3    H146832   5.322   2.607   3.659 -0.6801  0.7397  0.5278
 8447TIP3    H246833   5.231   2.648   3.544 -0.9844 -0.0524  0.4781
 8448TIP3   OH246834   6.184   5.707   4.056  0.2248 -0.1428 -0.0961
 8448TIP3    H146835   6.165   5.767   3.984  2.1814 -0.2610 -0.7692
 8448TIP3    H246836   6.159   5.621   4.023  0.8787 -0.1625 -0.5573
 8449TIP3   OH246837   5.539   5.050   5.908  0.4954 -0.2818  0.0090
 8449TIP3    H146838   5.627   5.058   5.871  0.7903 -0.4496  0.6570
 8449TIP3    H246839   5.546   4.978   5.971 -0.4000 -1.0661 -0.7650
 8450TIP3   OH246840   0.049   5.449  12.241  0.5246  0.0849  0.0256
 8450TIP3    H146841   0.088   5.400  12.314 -0.6216 -0.5053  0.2767
 8450TIP3    H246842  -0.033   5.483  12.277  0.9437  1.5822 -0.3830
 8451TIP3   OH246843   4.282   1.267  14.286 -0.3907  0.0843  0.0866
 8451TIP3    H146844   4.319   1.339  14.337 -1.5218 -0.3945  1.6508
 8451TIP3    H246845   4.338   1.261  14.208  0.6056  1.6722  0.6447
 8452TIP3   OH246846   2.141   2.312  12.216  0.0328  0.0769  0.2571
 8452TIP3    H146847   2.154   2.370  12.291 -1.2166 -0.8223  1.2121
 8452TIP3    H246848   2.217   2.254  12.218 -0.3736 -0.4567  1.3495
 8453TIP3   OH246849   2.678   4.223  13.967 -0.1484  0.3945  0.3925
 8453TIP3    H146850   2.691   4.225  13.872 -1.4700 -2.2658  0.0640
 8453TIP3    H246851   2.686   4.130  13.990 -2.6518  0.5835  2.4151
 8454TIP3   OH246852   1.099   4.491   3.059  0.1372  0.6508  0.1577
 8454TIP3    H146853   1.115   4.474   2.966 -1.5207  1.4071 -0.2967
 8454TIP3    H246854   1.169   4.550   3.085  1.2420 -0.3971 -0.3079
 8455TIP3   OH246855   1.345   5.502   4.491 -0.2984 -0.2962 -0.2448
 8455TIP3    H146856   1.386   5.554   4.421  1.3793 -0.1218  0.8246
 8455TIP3    H246857   1.405   5.509   4.565 -1.4438 -1.4692  0.8480
 8456TIP3   OH246858   2.283   4.661   3.229  0.1648  0.3084  0.1482
 8456TIP3    H146859   2.319   4.593   3.171  0.7859 -0.5582  1.4916
 8456TIP3    H246860   2.341   4.736   3.217 -0.0646  0.3438 -0.7805
 8457TIP3   OH246861   6.375   0.528   2.457  0.5871 -0.0684  0.2436
 8457TIP3    H146862   6.455   0.579   2.469 -0.2567  1.0126  1.6066
 8457TIP3    H246863   6.304   0.590   2.475 -0.4934 -1.4783  1.0745
 8458TIP3   OH246864   6.400   4.667  14.815 -0.2754  0.2529 -0.2579
 8458TIP3    H146865   6.313   4.627  14.824 -1.2402  2.5246  1.3345
 8458TIP3    H246866   6.454   4.623  14.881 -0.8629  0.4332  0.3508
 8459TIP3   OH246867   5.962   1.759   1.821  0.0295 -0.1993 -0.0504
 8459TIP3    H146868   6.028   1.807   1.871 -1.4543  1.5914  0.3089
 8459TIP3    H246869   5.971   1.792   1.732 -0.6983  0.4305  0.1043
 8460TIP3   OH246870   0.428   5.045  11.517  0.0742  0.3219  0.7790
 8460TIP3    H146871   0.343   5.076  11.547  0.1111  2.3843 -0.9756
 8460TIP3    H246872   0.492   5.096  11.566  0.3370 -0.8856  1.7523
 8461TIP3   OH246873   5.363   4.839  14.005  0.2217  0.0383  0.4535
 8461TIP3    H146874   5.299   4.798  13.948 -0.8171  0.8653  0.9867
 8461TIP3    H246875   5.426   4.770  14.025  0.7075 -0.2338 -1.7815
 8462TIP3   OH246876   5.140   5.131  11.264 -0.5574  0.1329  0.0440
 8462TIP3    H146877   5.200   5.200  11.239  1.6083 -1.1515  1.4034
 8462TIP3    H246878   5.086   5.117  11.186  1.4345  0.7990 -1.5320
 8463TIP3   OH246879   3.758   4.345  13.337 -0.2044  0.1602 -0.2489
 8463TIP3    H146880   3.806   4.333  13.419 -0.8110 -1.1186 -0.0575
 8463TIP3    H246881   3.734   4.438  13.337  0.4443  0.3404  0.6589
 8464TIP3   OH246882   1.531   3.580  15.186  0.0474 -0.1826  0.0282
 8464TIP3    H146883   1.481   3.504  15.214  0.2337  0.6187  2.8117
 8464TIP3    H246884   1.474   3.624  15.123 -0.8888 -1.5507 -0.1175
 8465TIP3   OH246885   1.369   4.678  15.282 -0.5279  0.1536 -0.0088
 8465TIP3    H146886   1.343   4.755  15.333 -0.9838 -0.4064  0.6249
 8465TIP3    H246887   1.289   4.625  15.275  0.0297 -0.7950  0.5364
 8466TIP3   OH246888   2.218   1.104   2.610 -0.1563  0.1477 -0.3121
 8466TIP3    H146889   2.261   1.180   2.648  0.2131 -0.5549  0.7216
 8466TIP3    H246890   2.126   1.128   2.605 -0.0267  0.6969 -0.0887
 8467TIP3   OH246891   2.628   5.672  16.502 -0.2723 -0.2049  0.0285
 8467TIP3    H146892   2.595   5.702  16.587 -2.2972  0.1441 -0.8114
 8467TIP3    H246893   2.704   5.728  16.484 -0.2438  0.1871  1.2871
 8468TIP3   OH246894   2.737   2.294  15.710 -0.2241  0.1627 -0.0671
 8468TIP3    H146895   2.727   2.237  15.786 -1.0596  1.7661  1.0800
 8468TIP3    H246896   2.827   2.325  15.714  0.0940 -0.6789 -0.4389
 8469TIP3   OH246897   0.824   6.239   5.600 -0.4662 -0.0171 -0.3203
 8469TIP3    H146898   0.833   6.149   5.631 -0.9422  0.0601  0.0529
 8469TIP3    H246899   0.845   6.293   5.676  2.5736  0.2669 -1.2394
 8470TIP3   OH246900   2.895   1.075   2.134 -0.1261  0.0883 -0.2398
 8470TIP3    H146901   2.847   1.080   2.052  0.9953 -1.3944 -1.0317
 8470TIP3    H246902   2.906   1.166   2.162 -1.1265  0.5683 -1.3534
 8471TIP3   OH246903   3.368   4.735  10.558 -0.4629 -0.1430 -0.4477
 8471TIP3    H146904   3.439   4.798  10.571  1.5730 -1.9934 -1.6941
 8471TIP3    H246905   3.288   4.787  10.557  1.1416  2.4735 -2.0728
 8472TIP3   OH246906   4.392   3.516   6.303 -0.1468  0.6521 -0.4832
 8472TIP3    H146907   4.455   3.456   6.262 -0.3698  1.7884 -2.6505
 8472TIP3    H246908   4.447   3.584   6.343  0.0619 -0.2726  0.8755
 8473TIP3   OH246909   1.825   3.964  16.503 -0.2688 -0.6297  0.1864
 8473TIP3    H146910   1.835   4.059  16.511  0.2701 -0.6667 -0.0153
 8473TIP3    H246911   1.824   3.932  16.594 -1.0256 -0.3794  0.2692
 8474TIP3   OH246912   1.961   3.426   6.024  0.5711 -0.7370 -0.2871
 8474TIP3    H146913   2.034   3.365   6.024  0.7863 -0.5142  1.5500
 8474TIP3    H246914   1.972   3.479   6.103 -1.1347 -0.1580 -0.3739
 8475TIP3   OH246915   4.933   4.439  16.961  0.0164  0.5652  0.5591
 8475TIP3    H146916   4.959   4.456  16.870 -2.6336  1.3223 -0.1149
 8475TIP3    H246917   4.916   4.525  16.998 -2.7633  0.0989  0.5165
 8476TIP3   OH246918   0.206   1.298   5.934 -0.5793  0.5337  0.1396
 8476TIP3    H146919   0.209   1.226   5.871 -2.0635  0.6450 -0.0930
 8476TIP3    H246920   0.280   1.281   5.993  0.3765  0.0042 -1.1504
 8477TIP3   OH246921   5.600   5.077  12.675 -0.0020  0.3441  0.9479
 8477TIP3    H146922   5.580   5.057  12.766 -1.9940 -2.5213  0.0500
 8477TIP3    H246923   5.535   5.143  12.650 -0.2108  0.2821  1.3286
 8478TIP3   OH246924   5.623   1.622   3.090 -0.4000 -0.1862 -0.1784
 8478TIP3    H146925   5.600   1.692   3.150  2.9684  0.6580  0.3110
 8478TIP3    H246926   5.569   1.548   3.118 -1.1714  1.0640  1.8548
 8479TIP3   OH246927   5.084   2.455  13.813 -0.0887 -0.0121 -0.6127
 8479TIP3    H146928   5.049   2.487  13.896  2.3774  2.1989 -0.3032
 8479TIP3    H246929   5.032   2.501  13.747 -0.1320  0.4834 -0.2407
 8480TIP3   OH246930   5.599   3.692   3.122  0.5170 -0.0838 -0.2015
 8480TIP3    H146931   5.678   3.658   3.080 -0.1648 -1.4064 -0.4443
 8480TIP3    H246932   5.548   3.730   3.050  1.4693  1.9650  0.1211
 8481TIP3   OH246933   5.570   4.821  13.392  0.5450  0.3305 -0.6182
 8481TIP3    H146934   5.641   4.849  13.450  0.3460  0.9947 -0.6919
 8481TIP3    H246935   5.527   4.750  13.440 -0.9948  2.2793  1.0708
 8482TIP3   OH246936   4.333   2.327  16.397 -0.0317 -0.0154 -0.9944
 8482TIP3    H146937   4.272   2.348  16.327 -0.3272  0.6050 -0.5568
 8482TIP3    H246938   4.286   2.348  16.478  0.1779 -1.0380 -0.5896
 8483TIP3   OH246939   3.572   0.108   2.075  0.1809 -0.2213  0.4648
 8483TIP3    H146940   3.540   0.098   2.164  1.2380  0.9433  1.0037
 8483TIP3    H246941   3.654   0.157   2.084  0.0193  0.4262 -1.1872
 8484TIP3   OH246942   6.212   6.235   3.899 -0.1975 -0.1711  0.1328
 8484TIP3    H146943   6.250   6.323   3.895 -0.0803 -0.2668 -1.4098
 8484TIP3    H246944   6.166   6.232   3.982  1.3085  0.7252  1.0376
 8485TIP3   OH246945   0.559   0.061  13.020  0.0595 -0.5228 -0.4346
 8485TIP3    H146946   0.530   0.150  12.999  2.3952  0.7777  1.3438
 8485TIP3    H246947   0.552   0.055  13.115  1.9725 -1.4191 -0.3060
 8486TIP3   OH246948   5.070   6.270   3.692  0.0332  0.5163 -0.3432
 8486TIP3    H146949   5.070   6.184   3.650  1.7835  1.0855 -1.6481
 8486TIP3    H246950   5.029   6.328   3.628 -1.0622  0.6911  0.4945
 8487TIP3   OH246951   4.948   0.007  12.166 -0.1216 -0.1867  0.4786
 8487TIP3    H146952   4.990  -0.048  12.232 -1.1866  0.8366  2.1109
 8487TIP3    H246953   4.994   0.091  12.173  1.0008 -0.5784 -1.4646
 8488TIP3   OH246954   1.257   0.246   0.083 -0.1892 -0.5427 -0.3993
 8488TIP3    H146955   1.192   0.313   0.101 -0.2657 -0.1931 -1.8926
 8488TIP3    H246956   1.218   0.165   0.118 -2.0798 -0.6034 -2.4390
 8489TIP3   OH246957   5.941   5.116   2.512 -0.2592 -0.2019  0.2420
 8489TIP3    H146958   5.931   5.021   2.518  0.6279 -0.2452  1.7247
 8489TIP3    H246959   5.881   5.151   2.577  0.5443  0.1450  0.8262
 8490TIP3   OH246960   2.264   3.870   5.110  0.4495 -0.1264 -0.0369
 8490TIP3    H146961   2.220   3.809   5.051 -1.8263 -0.6957  2.0453
 8490TIP3    H246962   2.258   3.955   5.066 -3.9560  0.0818  0.4660
 8491TIP3   OH246963   6.159   1.043  15.022 -0.6365 -0.1271 -0.1255
 8491TIP3    H146964   6.098   1.106  14.984 -2.5356 -1.6518  0.2541
 8491TIP3    H246965   6.109   0.962  15.030  1.8815 -1.9058 -1.1280
 8492TIP3   OH246966   4.070   3.572   3.089 -0.3223  0.2391  0.1485
 8492TIP3    H146967   4.003   3.532   3.033  0.0075 -0.2286  0.0734
 8492TIP3    H246968   4.129   3.499   3.110 -0.4561  0.4032  1.1339
 8493TIP3   OH246969   5.331   2.015  12.587  0.5009  0.3795  0.5583
 8493TIP3    H146970   5.385   2.087  12.618  0.9361 -0.5044  1.9213
 8493TIP3    H246971   5.246   2.030  12.629  0.6274  0.0352  0.9367
 8494TIP3   OH246972   0.637   1.536  16.539 -0.6223 -0.3055 -0.0769
 8494TIP3    H146973   0.565   1.499  16.590  0.7035 -2.9284  0.0284
 8494TIP3    H246974   0.607   1.532  16.448 -0.4747 -1.8333 -0.0790
 8495TIP3   OH246975   4.345   2.910  10.775 -0.0144  0.1726 -0.3440
 8495TIP3    H146976   4.381   2.980  10.829  0.6177  0.3687 -0.9977
 8495TIP3    H246977   4.346   2.833  10.831 -2.5786  1.0491  1.0866
 8496TIP3   OH246978   0.721   1.652   5.207 -0.2543 -0.1024 -0.1782
 8496TIP3    H146979   0.656   1.596   5.166  0.5773 -0.8235 -0.5517
 8496TIP3    H246980   0.796   1.595   5.223  0.0348  0.5416  0.8940
 8497TIP3   OH246981   0.818   1.392   3.760 -0.4069  0.4190 -0.1116
 8497TIP3    H146982   0.740   1.372   3.709 -1.1176  0.2819  0.9786
 8497TIP3    H246983   0.831   1.315   3.815  1.2892 -0.1116 -1.2027
 8498TIP3   OH246984   6.274   2.323   5.264  0.2058 -0.3512  0.6746
 8498TIP3    H146985   6.184   2.290   5.269  0.1965 -0.1125  3.4267
 8498TIP3    H246986   6.265   2.412   5.230 -0.1231 -1.6049 -2.9703
 8499TIP3   OH246987   6.764   2.839   0.770  0.1036  0.1311  0.0641
 8499TIP3    H146988   6.843   2.871   0.814 -0.8827 -0.4905  2.4276
 8499TIP3    H246989   6.794   2.765   0.718  1.3380  0.9561 -0.4414
 8500TIP3   OH246990   1.219   2.764   5.886  0.2050  0.0282  0.4753
 8500TIP3    H146991   1.252   2.791   5.972 -1.1610  0.4011  0.9162
 8500TIP3    H246992   1.286   2.705   5.852  0.4747 -0.6539  2.0932
 8501TIP3   OH246993   4.353   0.575   4.871 -0.3343 -0.7580 -0.1858
 8501TIP3    H146994   4.399   0.505   4.917  0.0334 -0.2540  0.2106
 8501TIP3    H246995   4.417   0.608   4.808 -0.1791 -0.1092  0.3129
 8502TIP3   OH246996   1.166   4.567   4.793  0.9112  0.5766 -0.2585
 8502TIP3    H146997   1.122   4.641   4.835 -1.3392 -1.0220  0.3783
 8502TIP3    H246998   1.120   4.555   4.711  1.6970  0.2603 -0.6636
 8503TIP3   OH246999   0.960   1.458  14.809  0.8906  0.5947 -0.1058
 8503TIP3    H147000   0.924   1.414  14.732 -2.9100  0.4339  1.5141
 8503TIP3    H247001   1.007   1.389  14.857 -0.0064 -0.2762 -0.4428
 8504TIP3   OH247002   3.738   4.580   1.294 -0.0952 -0.3147 -0.3150
 8504TIP3    H147003   3.825   4.570   1.333 -0.8706 -1.3572  1.2819
 8504TIP3    H247004   3.752   4.634   1.216  1.4232  2.9570  1.9921
 8505TIP3   OH247005   3.386   1.349   2.290 -0.0743 -0.6158  0.4124
 8505TIP3    H147006   3.329   1.274   2.304 -0.2813 -0.3681  0.9379
 8505TIP3    H247007   3.333   1.424   2.316 -0.1490 -0.2021 -0.8562
 8506TIP3   OH247008   3.149   5.954  12.210  0.5859  0.4295 -0.4187
 8506TIP3    H147009   3.244   5.965  12.210  0.8252 -1.2571 -0.9693
 8506TIP3    H247010   3.128   5.929  12.120  0.0060 -1.7236  0.2450
 8507TIP3   OH247011   2.254   0.796   2.679 -0.1703  0.3684 -0.3334
 8507TIP3    H147012   2.185   0.827   2.738  1.0237  1.3355  0.6074
 8507TIP3    H247013   2.284   0.875   2.634 -1.3602 -0.4018 -2.6455
 8508TIP3   OH247014   1.339   6.387  13.482  0.4006  0.2210 -0.6886
 8508TIP3    H147015   1.393   6.320  13.523 -0.5902 -0.1519  0.0252
 8508TIP3    H247016   1.252   6.348  13.474 -0.5987  1.8893  1.1167
 8509TIP3   OH247017   4.730   3.814  11.964  0.3491  0.0433  0.2581
 8509TIP3    H147018   4.790   3.740  11.965  0.1559 -0.1856 -1.3595
 8509TIP3    H247019   4.692   3.813  11.876 -3.0459 -0.6315  1.5606
 8510TIP3   OH247020   6.105   6.098   0.146  0.5231  0.3200  0.3815
 8510TIP3    H147021   6.053   6.019   0.160  0.7799  0.2646  1.0766
 8510TIP3    H247022   6.181   6.068   0.097  0.8404  0.0427  1.0272
 8511TIP3   OH247023   0.511   0.318  10.915  0.0926  0.0674 -0.0841
 8511TIP3    H147024   0.486   0.256  10.983 -0.8500  1.5182  0.9365
 8511TIP3    H247025   0.581   0.370  10.955 -1.1832  1.6179  0.1853
 8512TIP3   OH247026   2.621   4.627   4.387 -0.0213  0.7454 -0.3016
 8512TIP3    H147027   2.707   4.596   4.359  0.2035 -0.3799  1.5020
 8512TIP3    H247028   2.607   4.587   4.473 -2.3325  0.9546 -0.5155
 8513TIP3   OH247029   2.158   5.958   0.600 -0.4110 -0.0734 -0.3223
 8513TIP3    H147030   2.116   5.877   0.571 -1.5564  0.2416  0.3795
 8513TIP3    H247031   2.173   6.008   0.519 -0.3275 -0.6921 -0.6927
 8514TIP3   OH247032   3.470   3.017   4.842  0.0662 -0.1492  0.1316
 8514TIP3    H147033   3.484   3.092   4.900 -1.0082 -0.8898  1.4027
 8514TIP3    H247034   3.393   3.042   4.790  0.7048  0.2926 -0.6173
 8515TIP3   OH247035   4.160   6.502  12.198  0.2154 -0.0719 -0.0084
 8515TIP3    H147036   4.084   6.555  12.172  1.1773  0.7217 -1.3016
 8515TIP3    H247037   4.122   6.424  12.237 -1.2752  1.4288  1.7644
 8516TIP3   OH247038   6.608   4.296   3.891 -0.3043  0.0995 -0.2771
 8516TIP3    H147039   6.521   4.271   3.860 -1.2707  2.0504  0.6908
 8516TIP3    H247040   6.667   4.233   3.849 -2.2755 -2.2164  0.2104
 8517TIP3   OH247041   1.319   5.787   6.237  0.1619 -0.1541  0.1210
 8517TIP3    H147042   1.310   5.744   6.322  2.5798  1.1252  1.1018
 8517TIP3    H247043   1.355   5.719   6.180  1.6991 -0.1420  1.0276
 8518TIP3   OH247044   0.472   4.218   0.273 -0.3265  0.1469  0.7302
 8518TIP3    H147045   0.408   4.242   0.205 -1.0787 -0.6066  1.1486
 8518TIP3    H247046   0.517   4.300   0.294 -2.8425  1.2809  2.1660
 8519TIP3   OH247047   1.887   1.319   2.355 -0.0744  0.3277  0.2109
 8519TIP3    H147048   1.826   1.289   2.422 -0.7332  1.4720  0.1561
 8519TIP3    H247049   1.941   1.385   2.398  0.4788  0.0267 -0.0057
 8520TIP3   OH247050   2.138   3.224   6.037 -0.7033  0.3014  0.3965
 8520TIP3    H147051   2.214   3.249   5.983 -1.0979  0.1624 -0.2301
 8520TIP3    H247052   2.176   3.204   6.123 -0.1247  0.9912  0.3130
 8521TIP3   OH247053   2.634   1.118   3.072 -0.3240 -0.3984 -0.0806
 8521TIP3    H147054   2.610   1.116   2.979  1.1543  0.9177 -0.5387
 8521TIP3    H247055   2.724   1.087   3.074  0.8459  2.7438  0.4167
 8522TIP3   OH247056   5.960   4.920  12.593 -0.0885  0.3375 -0.6039
 8522TIP3    H147057   5.940   4.871  12.673 -0.1766  2.0130  0.4632
 8522TIP3    H247058   5.896   4.889  12.529 -1.8544  0.8996  0.8003
 8523TIP3   OH247059   2.086   4.734  12.596  0.5058 -0.0459  0.3934
 8523TIP3    H147060   2.141   4.810  12.581  0.1348  0.2988  0.7645
 8523TIP3    H247061   2.109   4.673  12.526  0.4104  0.6250 -0.2371
 8524TIP3   OH247062   1.313   6.590  10.993 -0.5507  0.0903 -0.5871
 8524TIP3    H147063   1.324   6.675  10.951  0.0043  0.4149  0.2013
 8524TIP3    H247064   1.220   6.589  11.018 -0.7475  0.1333 -1.2796
 8525TIP3   OH247065   4.916   2.752   6.067 -0.0702  0.1140 -0.3416
 8525TIP3    H147066   4.918   2.742   5.972 -0.3722 -0.6646 -0.2758
 8525TIP3    H247067   5.007   2.765   6.093  0.0277  0.1911 -0.7252
 8526TIP3   OH247068   3.120   0.395   2.470 -0.1760 -0.2107 -0.1832
 8526TIP3    H147069   3.132   0.490   2.471 -0.7487 -0.1301 -0.8193
 8526TIP3    H247070   3.093   0.374   2.559  0.1611  0.1906  0.0208
 8527TIP3   OH247071   0.898   4.739  17.168 -0.2858 -0.5430  0.0218
 8527TIP3    H147072   0.891   4.650  17.205 -0.0114 -0.1092  1.1590
 8527TIP3    H247073   0.986   4.767  17.192 -0.3597  0.0238 -0.3695
 8528TIP3   OH247074   0.564   0.593  16.137 -0.1255  0.9771 -0.2889
 8528TIP3    H147075   0.547   0.683  16.110 -0.1199  1.2072  0.4581
 8528TIP3    H247076   0.659   0.584  16.135 -0.1807  0.5029 -1.8717
 8529TIP3   OH247077   1.791   4.094   0.678  0.3371  0.0919 -0.0525
 8529TIP3    H147078   1.736   4.143   0.616 -1.2450 -0.4134  0.9035
 8529TIP3    H247079   1.873   4.143   0.681  0.2834  0.4002 -2.1732
 8530TIP3   OH247080   0.134   4.150   2.742 -0.2533 -0.3865  0.0015
 8530TIP3    H147081   0.101   4.166   2.653 -0.2664 -1.1003 -0.1246
 8530TIP3    H247082   0.229   4.140   2.731 -0.4415 -2.2609 -0.2030
 8531TIP3   OH247083   6.423   6.727  11.684  0.0492  0.0861 -0.3854
 8531TIP3    H147084   6.419   6.811  11.637  2.3141 -0.3847 -1.5458
 8531TIP3    H247085   6.371   6.667  11.630  3.5620 -0.7506 -3.1906
 8532TIP3   OH247086   4.787   2.888   2.931  0.6161  0.2757  0.0584
 8532TIP3    H147087   4.821   2.914   3.016  0.4489  0.9671 -0.0783
 8532TIP3    H247088   4.725   2.818   2.950  0.3786  0.6091  0.5316
 8533TIP3   OH247089   3.595   6.591   2.623  0.5334  0.1252  0.0436
 8533TIP3    H147090   3.534   6.615   2.554 -1.4337  0.2973  1.7352
 8533TIP3    H247091   3.633   6.508   2.595  0.5819  0.7102 -1.6908
 8534TIP3   OH247092   2.053   2.383   5.537 -0.1722  0.0618  0.1350
 8534TIP3    H147093   2.096   2.450   5.589 -0.0107  0.2378 -0.2177
 8534TIP3    H247094   2.119   2.316   5.524  0.0892  0.4572 -0.6343
 8535TIP3   OH247095   2.589   5.411  14.161  0.0004  0.4271 -0.4360
 8535TIP3    H147096   2.564   5.355  14.088  1.0847 -0.7445  0.0511
 8535TIP3    H247097   2.661   5.465  14.126 -1.3096  1.8595 -1.0278
 8536TIP3   OH247098   5.020   2.597   2.625  0.7411  0.4865 -0.5003
 8536TIP3    H147099   4.973   2.619   2.706  1.3959  1.0094 -0.2500
 8536TIP3    H247100   5.109   2.575   2.654  1.0180  0.8052 -1.0900
 8537TIP3   OH247101   4.141   1.439   6.348  0.4910  0.3152  0.2946
 8537TIP3    H147102   4.050   1.411   6.355  0.7268 -0.1043  2.3548
 8537TIP3    H247103   4.137   1.535   6.352  0.1150  0.3024  0.1919
 8538TIP3   OH247104   0.001   5.451   0.404 -0.1472 -0.6106 -0.0659
 8538TIP3    H147105   0.086   5.414   0.429  0.1611  0.3387  0.3338
 8538TIP3    H247106   0.021   5.516   0.337 -0.4613  0.1568  0.5628
 8539TIP3   OH247107   0.752   0.455  14.923  0.1230 -0.6594 -0.5084
 8539TIP3    H147108   0.681   0.475  14.862  1.3875 -2.1764 -2.6226
 8539TIP3    H247109   0.713   0.394  14.985 -0.8145 -0.2441 -0.6659
 8540TIP3   OH247110   0.891   6.435   4.345 -0.1349  0.1631 -0.3569
 8540TIP3    H147111   0.881   6.503   4.279 -0.0356  2.1426  1.5469
 8540TIP3    H247112   0.984   6.439   4.370 -0.7698  1.7802  2.1372
 8541TIP3   OH247113   3.881   0.495   1.029 -0.0492  0.5574  0.2470
 8541TIP3    H147114   3.849   0.574   1.072 -1.1439  0.6058 -0.6193
 8541TIP3    H247115   3.893   0.432   1.100 -1.6424  0.6930  0.6669
 8542TIP3   OH247116   1.703   4.973  14.502  0.8294 -0.2162 -0.0353
 8542TIP3    H147117   1.713   5.067  14.517  0.4772 -0.1026 -0.5063
 8542TIP3    H247118   1.630   4.948  14.558  0.3915 -0.0518 -0.5325
 8543TIP3   OH247119   3.217   6.194  14.973  1.3212 -0.0397 -0.0993
 8543TIP3    H147120   3.252   6.110  15.004  0.7207 -0.9748 -1.8491
 8543TIP3    H247121   3.272   6.217  14.899  0.7543  0.5264 -0.3546
 8544TIP3   OH247122   5.884   0.419   1.240 -0.2362  0.2583  0.0783
 8544TIP3    H147123   5.967   0.438   1.284 -0.2119 -0.8643  0.5553
 8544TIP3    H247124   5.817   0.444   1.303 -0.2436  0.2766  0.0632
 8545TIP3   OH247125   4.187   4.234  11.672 -0.0878  0.6057 -0.4209
 8545TIP3    H147126   4.112   4.281  11.709  0.4141  0.9282  0.1958
 8545TIP3    H247127   4.193   4.154  11.725  1.1856  1.4922  0.8051
 8546TIP3   OH247128   6.024   5.659   4.340  0.5387 -0.4218 -0.4393
 8546TIP3    H147129   6.063   5.709   4.269  0.7455 -0.5995 -0.4541
 8546TIP3    H247130   5.931   5.654   4.319  0.1459  1.6248  0.5478
 8547TIP3   OH247131   4.155   1.148   3.153 -0.0461 -0.8566 -0.1479
 8547TIP3    H147132   4.230   1.122   3.207 -0.7530  0.1904  1.4140
 8547TIP3    H247133   4.177   1.236   3.122  0.0963 -1.2220 -1.1271
 8548TIP3   OH247134   3.036   6.800   2.035 -0.4996  0.5673 -0.2413
 8548TIP3    H147135   2.999   6.798   2.123  0.5885 -0.6263  0.2243
 8548TIP3    H247136   3.129   6.819   2.049  0.0780 -1.4839 -0.9466
 8549TIP3   OH247137   5.820   2.448   0.196 -0.1304  0.7810 -0.3098
 8549TIP3    H147138   5.894   2.489   0.241  0.6029 -0.5963 -0.1935
 8549TIP3    H247139   5.745   2.465   0.252  0.3266  1.1716  0.1934
 8550TIP3   OH247140   5.485   1.633  11.734 -0.1429  0.2273  0.0013
 8550TIP3    H147141   5.410   1.574  11.731 -0.3896  0.5465 -0.1459
 8550TIP3    H247142   5.504   1.643  11.828  1.7371 -2.3734  0.0176
 8551TIP3   OH247143   6.388   5.334   1.149 -0.5718 -0.1774  0.3509
 8551TIP3    H147144   6.470   5.363   1.189  0.3685 -0.3755 -1.3643
 8551TIP3    H247145   6.321   5.362   1.211  0.5711  2.3622  0.5825
 8552TIP3   OH247146   2.290   3.266  16.556 -0.0996  0.1309  0.6555
 8552TIP3    H147147   2.287   3.359  16.535  0.4704  0.3744  1.5787
 8552TIP3    H247148   2.256   3.222  16.478 -1.1274  1.1496  0.5014
 8553TIP3   OH247149   0.355   1.872   0.291 -0.5134 -0.5211  0.0416
 8553TIP3    H147150   0.281   1.879   0.351 -0.1562 -0.4548  0.4811
 8553TIP3    H247151   0.418   1.936   0.322 -1.5163  1.7218 -2.1886
 8554TIP3   OH247152   0.945   6.628   1.774  0.4161 -0.0378  0.0699
 8554TIP3    H147153   0.893   6.591   1.846  1.3348 -0.7228  0.3939
 8554TIP3    H247154   0.880   6.647   1.706 -0.3449 -0.2719  0.7091
 8555TIP3   OH247155   2.348   3.769  16.257  0.2237 -0.5794 -0.0361
 8555TIP3    H147156   2.418   3.790  16.195 -1.2579  3.7372 -0.6295
 8555TIP3    H247157   2.269   3.765  16.203 -0.8223  1.2658  1.2509
 8556TIP3   OH247158   0.564   1.105  13.407  0.4760 -0.0184 -0.7113
 8556TIP3    H147159   0.651   1.145  13.399  1.1092 -1.2308 -0.1716
 8556TIP3    H247160   0.521   1.124  13.324  2.2896 -1.7271 -2.1349
 8557TIP3   OH247161   2.042   6.254  12.631  0.1041 -0.8908  0.2212
 8557TIP3    H147162   2.086   6.234  12.548  1.2018 -0.7668  0.7482
 8557TIP3    H247163   1.970   6.191  12.635 -0.1841 -0.6667 -0.9810
 8558TIP3   OH247164   1.337   3.153  15.469 -0.5845  0.1059  0.0605
 8558TIP3    H147165   1.263   3.126  15.415  0.6420 -1.2221 -1.0267
 8558TIP3    H247166   1.371   3.072  15.506 -0.1124  0.7766  1.1709
 8559TIP3   OH247167   1.851   1.970   5.972 -0.3248  0.6406  0.3287
 8559TIP3    H147168   1.906   1.905   6.016  0.1166  0.1892 -0.8441
 8559TIP3    H247169   1.824   1.927   5.891 -0.5511  1.6866 -0.1703
 8560TIP3   OH247170   3.559   5.274  15.692  0.1948 -0.0140  0.3403
 8560TIP3    H147171   3.559   5.297  15.599  1.3460  0.1711  0.3724
 8560TIP3    H247172   3.466   5.276  15.717 -0.6046 -3.6352 -1.6385
 8561TIP3   OH247173   2.452   5.723   2.385 -0.5945 -0.2884 -0.2876
 8561TIP3    H147174   2.506   5.669   2.443  0.2657 -0.4952 -1.2479
 8561TIP3    H247175   2.505   5.801   2.369 -1.2306  0.1939 -0.0391
 8562TIP3   OH247176   2.353   0.658  13.092 -0.2578  0.2026  0.1623
 8562TIP3    H147177   2.303   0.703  13.024 -0.3481 -0.5504 -0.2848
 8562TIP3    H247178   2.443   0.657  13.058 -0.4327 -0.8398 -0.3219
 8563TIP3   OH247179   6.568   4.342  13.247 -0.1634 -0.4891 -0.1318
 8563TIP3    H147180   6.489   4.394  13.235 -0.1578 -0.0233  1.5652
 8563TIP3    H247181   6.592   4.314  13.159 -1.5146  0.3878 -0.8138
 8564TIP3   OH247182   2.486   3.033   4.803  0.2943  0.1413  0.2446
 8564TIP3    H147183   2.578   3.053   4.820 -0.1639  1.0036  1.9154
 8564TIP3    H247184   2.437   3.099   4.852 -1.2288 -1.8676  1.6376
 8565TIP3   OH247185   2.027   4.318   3.363  0.6178  0.4551  0.3035
 8565TIP3    H147186   2.063   4.397   3.403  1.3615  0.1626  0.2258
 8565TIP3    H247187   1.985   4.349   3.283 -0.3642  0.9619  0.9857
 8566TIP3   OH247188   4.042   0.117  14.113 -0.5914 -0.6697  0.6157
 8566TIP3    H147189   4.066   0.209  14.124  0.3198 -0.6888 -0.8880
 8566TIP3    H247190   4.099   0.070  14.174  1.6978 -0.4945 -1.2165
 8567TIP3   OH247191   0.304   3.776  11.511 -0.2136 -0.3927 -0.6944
 8567TIP3    H147192   0.353   3.804  11.588 -0.8340 -1.2674  0.0448
 8567TIP3    H247193   0.345   3.693  11.485  0.5986  0.3478 -1.9035
 8568TIP3   OH247194   4.398   0.180   4.816 -0.1481 -0.1120  0.3672
 8568TIP3    H147195   4.395   0.249   4.882 -0.5116  0.0535  0.1856
 8568TIP3    H247196   4.328   0.119   4.841  0.8472 -0.9754  1.1165
 8569TIP3   OH247197   2.378   6.310  17.128 -1.1121 -0.5283  0.3084
 8569TIP3    H147198   2.333   6.336  17.208 -2.7654 -1.0747 -0.4046
 8569TIP3    H247199   2.344   6.223  17.109  0.2430 -0.9438 -0.2921
 8570TIP3   OH247200   6.797   4.398   5.262 -0.0611 -0.1104 -0.2497
 8570TIP3    H147201   6.876   4.426   5.307 -0.2030  0.3714 -0.3013
 8570TIP3    H247202   6.797   4.446   5.180 -0.1400 -0.5041 -0.4850
 8571TIP3   OH247203   1.434   2.641   4.514 -0.2061 -0.5406  0.8245
 8571TIP3    H147204   1.345   2.610   4.532 -0.3734 -0.5513  0.0115
 8571TIP3    H247205   1.446   2.717   4.571 -0.2509 -1.3142  1.9117
 8572TIP3   OH247206   4.223   5.337  13.622 -0.6687 -0.1091 -0.5742
 8572TIP3    H147207   4.221   5.261  13.563 -2.0917  0.9446 -1.9846
 8572TIP3    H247208   4.187   5.304  13.704  0.2334 -1.3405 -0.6421
 8573TIP3   OH247209   6.040   2.336   6.588  0.0748  0.0176 -0.0234
 8573TIP3    H147210   5.955   2.293   6.584 -0.6026  1.3324 -0.3568
 8573TIP3    H247211   6.080   2.304   6.668 -0.9881 -0.1865  0.4442
 8574TIP3   OH247212   3.316   4.161   5.935  0.2854  0.1547 -0.2908
 8574TIP3    H147213   3.280   4.095   5.875  0.0057  0.6161 -0.6449
 8574TIP3    H247214   3.408   4.138   5.944  0.3040  0.0085 -0.8156
 8575TIP3   OH247215   0.499   0.282   3.173  0.0008 -0.4628  0.2917
 8575TIP3    H147216   0.450   0.202   3.155  1.1181 -1.3047  0.8885
 8575TIP3    H247217   0.483   0.338   3.097 -2.1125 -0.5728  0.6021
 8576TIP3   OH247218   5.559   0.902  14.023 -0.0875  0.4260 -0.6362
 8576TIP3    H147219   5.473   0.867  14.001  0.1045 -0.3009 -0.2462
 8576TIP3    H247220   5.587   0.949  13.944 -0.7334  0.4626 -0.8453
 8577TIP3   OH247221   6.828   3.891  10.958 -0.2345 -0.3548  0.2690
 8577TIP3    H147222   6.850   3.902  10.866 -0.1010 -0.0935  0.3315
 8577TIP3    H247223   6.881   3.817  10.986  1.2237  0.7704  0.6250
 8578TIP3   OH247224   1.946   0.204   3.753 -0.3510 -0.9500 -0.2736
 8578TIP3    H147225   2.001   0.161   3.687 -1.6038 -0.3293 -1.7804
 8578TIP3    H247226   1.858   0.172   3.736 -0.5010 -2.1162  2.2675
 8579TIP3   OH247227   2.201   3.518   5.657  0.5087  0.0434 -0.1408
 8579TIP3    H147228   2.158   3.485   5.578 -0.6884 -4.3118  2.0309
 8579TIP3    H247229   2.252   3.593   5.626 -0.4683 -0.8803 -4.8513
 8580TIP3   OH247230   3.953   6.003  16.374  0.1038 -0.8454 -0.1632
 8580TIP3    H147231   4.020   6.060  16.413 -0.8812  1.3286 -1.4706
 8580TIP3    H247232   3.906   5.967  16.449  0.1057  0.9045  0.7396
 8581TIP3   OH247233   2.694   4.470  15.609  0.2220  0.2032 -0.2807
 8581TIP3    H147234   2.788   4.482  15.626  0.2110  0.2516 -0.2545
 8581TIP3    H247235   2.662   4.557  15.586 -0.6396  1.1329  3.6696
 8582TIP3   OH247236   1.011   6.722  15.813 -0.8261 -0.4468 -0.6659
 8582TIP3    H147237   1.091   6.688  15.853 -1.5840 -1.1635  0.3014
 8582TIP3    H247238   1.019   6.701  15.720  0.2032 -0.2875 -0.6237
 8583TIP3   OH247239   3.154   3.260   5.205  0.0951  0.5336 -0.3492
 8583TIP3    H147240   3.093   3.188   5.218 -0.1741  0.2720 -2.5817
 8583TIP3    H247241   3.162   3.301   5.291 -3.1061  0.4784  0.1089
 8584TIP3   OH247242   2.769   0.410  13.330 -0.3815 -0.2561 -0.4815
 8584TIP3    H147243   2.690   0.428  13.381 -1.5500 -0.5687 -2.0964
 8584TIP3    H247244   2.831   0.478  13.357 -0.8227 -0.5691  1.5236
 8585TIP3   OH247245   2.955   6.290   1.398  0.1408  0.1338 -0.0063
 8585TIP3    H147246   2.968   6.373   1.445  0.2661 -0.8070  1.7190
 8585TIP3    H247247   3.043   6.261   1.375  0.2766 -0.4536  1.1589
 8586TIP3   OH247248   2.019   6.220  16.214 -0.3924 -0.0161 -0.0073
 8586TIP3    H147249   2.000   6.302  16.260  3.0240  0.9611 -0.0348
 8586TIP3    H247250   2.045   6.159  16.283  0.6500  0.1307 -0.2525
 8587TIP3   OH247251   4.794   1.382   2.448  0.8582  0.3996  0.7366
 8587TIP3    H147252   4.711   1.424   2.424  1.3353  0.3049 -1.2663
 8587TIP3    H247253   4.856   1.455   2.456  1.1897  0.2654 -0.5279
 8588TIP3   OH247254   4.512   4.173  16.292 -0.7412  0.3450 -0.5474
 8588TIP3    H147255   4.457   4.159  16.369  1.9233 -1.0401  1.2860
 8588TIP3    H247256   4.474   4.249  16.249 -2.8448  0.7009  1.6925
 8589TIP3   OH247257   3.764   4.556   1.619 -0.1685 -0.3575 -0.0331
 8589TIP3    H147258   3.809   4.612   1.683 -1.1750 -0.1574  0.5234
 8589TIP3    H247259   3.773   4.603   1.536 -0.1356  0.1365  0.2434
 8590TIP3   OH247260   5.898   2.482  15.628 -0.3892 -0.2505  0.6587
 8590TIP3    H147261   5.818   2.429  15.631  0.1921 -1.1940  0.0568
 8590TIP3    H247262   5.920   2.487  15.535 -0.4073  1.0360  0.7161
 8591TIP3   OH247263   2.061   4.853   3.361 -0.5097  0.1074  0.5602
 8591TIP3    H147264   2.037   4.777   3.308 -0.9109  2.1552 -2.4393
 8591TIP3    H247265   2.156   4.852   3.363 -0.5119 -0.4100  0.4104
 8592TIP3   OH247266   1.791   6.762  16.904  0.2889 -0.0743  0.2734
 8592TIP3    H147267   1.702   6.793  16.885  0.6947  1.1942  0.3698
 8592TIP3    H247268   1.817   6.810  16.983  1.2383 -0.0839 -0.0221
 8593TIP3   OH247269   2.077   5.884   5.354 -0.6108  0.1937  0.5151
 8593TIP3    H147270   1.983   5.899   5.359 -0.8491 -1.2133  0.7396
 8593TIP3    H247271   2.095   5.869   5.261 -0.9812 -1.5462  0.6901
 8594TIP3   OH247272   3.516   2.810  11.335  0.0479  0.2647  0.1124
 8594TIP3    H147273   3.463   2.879  11.294 -0.4961  0.7140  1.5061
 8594TIP3    H247274   3.595   2.856  11.366  2.1096 -0.6532 -3.2765
 8595TIP3   OH247275   0.358   5.176  16.361  0.5784 -0.2717 -0.1490
 8595TIP3    H147276   0.445   5.215  16.350 -0.0537  1.2782  0.0388
 8595TIP3    H247277   0.360   5.138  16.449  1.3966 -1.1998 -0.5463
 8596TIP3   OH247278   0.090   4.009   6.245 -0.3467  0.0752 -0.3401
 8596TIP3    H147279   0.141   4.009   6.326  1.2176 -1.2294 -1.2609
 8596TIP3    H247280   0.139   3.953   6.186 -0.9757  1.6519 -2.4937
 8597TIP3   OH247281   2.928   1.061  17.057  0.4955  0.2041  0.2280
 8597TIP3    H147282   2.903   1.112  16.980  0.6554  2.0842  1.3589
 8597TIP3    H247283   3.000   1.110  17.097  2.0976 -2.0474  0.2454
 8598TIP3   OH247284   0.675   4.960  16.557 -0.1658  0.0982 -0.6795
 8598TIP3    H147285   0.630   5.043  16.541 -0.9704 -0.3402 -0.7305
 8598TIP3    H247286   0.768   4.984  16.564 -0.6276  1.4200  2.1952
 8599TIP3   OH247287   1.235   2.940  14.921 -0.3645 -0.0130 -0.5246
 8599TIP3    H147288   1.149   2.936  14.878 -0.8032  0.4996  0.2731
 8599TIP3    H247289   1.237   2.863  14.977 -0.8942  0.6957  0.4980
 8600TIP3   OH247290   6.571   4.043   4.761  0.3283 -0.6118  0.4655
 8600TIP3    H147291   6.656   4.074   4.794  0.5791  2.3093 -2.3690
 8600TIP3    H247292   6.512   4.050   4.835  1.6835  1.5944  1.4456
 8601TIP3   OH247293   5.131   2.847  16.805  0.6051  0.1611  0.1383
 8601TIP3    H147294   5.107   2.815  16.892 -0.1238  1.1015  0.2977
 8601TIP3    H247295   5.159   2.938  16.819 -1.1146  0.8827 -0.8080
 8602TIP3   OH247296   3.679   6.304  15.757 -0.7263  0.5238  0.3706
 8602TIP3    H147297   3.607   6.323  15.697 -1.2848  0.9896  1.1687
 8602TIP3    H247298   3.708   6.390  15.788  0.8726  0.4190 -0.7270
 8603TIP3   OH247299   0.766   6.711   4.334  0.0340  0.1558  0.1468
 8603TIP3    H147300   0.754   6.750   4.421 -1.5945  1.4131 -0.6028
 8603TIP3    H247301   0.820   6.774   4.286  0.1511 -0.0946 -0.0559
 8604TIP3   OH247302   4.432   5.791  12.723  0.2438  0.0666 -0.5064
 8604TIP3    H147303   4.413   5.704  12.688  1.0239 -0.1028 -0.5223
 8604TIP3    H247304   4.391   5.793  12.809  0.1826 -0.3018 -0.5274
 8605TIP3   OH247305   0.894   6.790  13.073 -0.7847  1.1785 -0.0004
 8605TIP3    H147306   0.966   6.746  13.117 -0.3435  0.8173 -1.0542
 8605TIP3    H247307   0.824   6.726  13.070 -0.2348  0.5818 -1.2925
 8606TIP3   OH247308   2.121   6.131  11.251 -0.4980 -0.4487  0.5251
 8606TIP3    H147309   2.085   6.140  11.163 -0.8353 -0.0017  0.7027
 8606TIP3    H247310   2.106   6.217  11.292  1.6467  0.1057  0.2760
 8607TIP3   OH247311   6.346   3.041  17.117  0.3905  0.4814 -0.1186
 8607TIP3    H147312   6.271   2.996  17.155 -0.1373  1.6763  0.3042
 8607TIP3    H247313   6.323   3.053  17.025  1.4119 -1.8725 -0.7741
 8608TIP3   OH247314   0.084   2.853   0.108  0.5131 -0.0087 -0.3376
 8608TIP3    H147315   0.149   2.795   0.147  0.1863 -0.3335 -0.2733
 8608TIP3    H247316   0.056   2.809   0.028  0.3578  0.1178 -0.3544
 8609TIP3   OH247317   3.353   6.480   2.998 -0.2202  0.2988  0.2941
 8609TIP3    H147318   3.438   6.452   2.964  0.4525  0.8084  1.4711
 8609TIP3    H247319   3.294   6.473   2.923  0.6214 -1.0408 -0.2962
 8610TIP3   OH247320   4.648   5.568   1.721 -0.0504 -0.1303  0.3791
 8610TIP3    H147321   4.613   5.629   1.657  0.9857  0.1290  0.0404
 8610TIP3    H247322   4.741   5.560   1.699  0.0105 -1.1960  0.9213
 8611TIP3   OH247323   2.992   0.572   3.518  0.0816 -0.0440 -0.2652
 8611TIP3    H147324   3.030   0.597   3.434  3.0427  1.4012  1.3340
 8611TIP3    H247325   3.067   0.548   3.572 -1.7927 -1.7938  1.7375
 8612TIP3   OH247326   3.507   4.753   0.460  0.1997  0.1441 -0.1294
 8612TIP3    H147327   3.562   4.675   0.447 -0.3723 -0.0388 -1.7220
 8612TIP3    H247328   3.539   4.816   0.397 -0.0077  0.8474  0.4551
 8613TIP3   OH247329   2.548   2.773  11.900 -0.0816  0.3763 -0.0017
 8613TIP3    H147330   2.519   2.811  11.818 -0.0198  0.5447  0.0538
 8613TIP3    H247331   2.644   2.783  11.899 -0.0556  0.1322 -0.0319
 8614TIP3   OH247332   3.134   4.450  16.424  1.0696  0.0445 -0.4336
 8614TIP3    H147333   3.105   4.459  16.334 -0.6568  0.0556  0.0900
 8614TIP3    H247334   3.115   4.359  16.447 -4.0066  1.3008  1.6053
 8615TIP3   OH247335   6.684   1.220   5.838  0.1661 -0.0942 -0.1536
 8615TIP3    H147336   6.744   1.274   5.787  1.2337  0.9744  2.1286
 8615TIP3    H247337   6.598   1.241   5.803  0.3866  3.9479  1.1852
 8616TIP3   OH247338   0.602   4.576  10.731  0.2731 -0.0021 -0.3278
 8616TIP3    H147339   0.600   4.487  10.697  0.0282 -0.6666  1.3147
 8616TIP3    H247340   0.683   4.580  10.782 -0.9075 -0.1245  1.6533
 8617TIP3   OH247341   0.072   1.290  16.362  0.4668 -0.0283 -0.0669
 8617TIP3    H147342   0.041   1.378  16.381  0.6274  0.3944 -1.5752
 8617TIP3    H247343   0.005   1.232  16.398 -0.4441  0.7733 -0.4235
 8618TIP3   OH247344   2.693   4.495  14.006  0.1745  0.7142 -0.1719
 8618TIP3    H147345   2.636   4.513  14.081 -2.1497  0.2537 -1.7175
 8618TIP3    H247346   2.690   4.400  13.995  0.7374  0.7469 -0.6907
 8619TIP3   OH247347   6.016   0.673  16.165  0.5370  0.0051 -0.2884
 8619TIP3    H147348   5.950   0.616  16.204  0.2386  1.1076  0.8713
 8619TIP3    H247349   5.968   0.728  16.104  0.8421 -1.0252 -1.4920
 8620TIP3   OH247350   2.108   3.205   3.659  0.2828 -0.8897  0.1130
 8620TIP3    H147351   2.140   3.295   3.648 -0.7144 -0.6998 -1.5821
 8620TIP3    H247352   2.034   3.214   3.719 -1.0527 -0.2281 -1.5448
 8621TIP3   OH247353   0.648   2.089  12.973 -0.6331 -0.0436  0.3939
 8621TIP3    H147354   0.632   2.132  13.057  0.7885  1.1959  0.0756
 8621TIP3    H247355   0.734   2.048  12.983 -0.0109  0.9342 -0.7528
 8622TIP3   OH247356   1.011   1.027   5.468 -0.6207 -0.0559 -0.1445
 8622TIP3    H147357   1.104   1.033   5.490 -0.7618 -0.8341  0.7336
 8622TIP3    H247358   1.010   0.986   5.381 -0.1504 -1.3062  0.4060
 8623TIP3   OH247359   2.565   6.564  12.487  0.4909 -0.6748  0.4326
 8623TIP3    H147360   2.589   6.648  12.449  1.0493 -0.6730  0.7854
 8623TIP3    H247361   2.474   6.550  12.459 -0.0008  0.5809  1.3242
 8624TIP3   OH247362   4.546   4.963   0.372 -0.0470 -0.1206 -0.3111
 8624TIP3    H147363   4.489   4.975   0.448 -0.2435 -0.9580 -0.3198
 8624TIP3    H247364   4.625   4.921   0.409  0.9185  1.7112 -0.1614
 8625TIP3   OH247365   0.903   2.438  14.500  0.4319 -0.2089 -0.0466
 8625TIP3    H147366   0.844   2.509  14.473 -0.2019 -0.2077  1.2203
 8625TIP3    H247367   0.953   2.476  14.572 -0.7683 -1.3664  1.4777
 8626TIP3   OH247368   1.801   4.314   3.948  0.3596  0.1881  0.6874
 8626TIP3    H147369   1.786   4.254   3.874  1.2303 -0.2716  0.8772
 8626TIP3    H247370   1.857   4.383   3.912  0.7777 -0.0318  0.9174
 8627TIP3   OH247371   1.378   1.686  16.411  0.1862  0.2032  0.2225
 8627TIP3    H147372   1.407   1.739  16.486  0.6330  1.3515 -0.7375
 8627TIP3    H247373   1.296   1.647  16.440 -0.0138  1.1999  1.0685
 8628TIP3   OH247374   2.190   1.455  16.091  0.1685 -0.0570 -0.3636
 8628TIP3    H147375   2.186   1.393  16.018 -1.7403  1.1967 -1.4107
 8628TIP3    H247376   2.122   1.426  16.151  1.8345 -1.1753  1.0840
 8629TIP3   OH247377   0.546   1.483   2.465 -0.1774 -0.2168 -0.2560
 8629TIP3    H147378   0.552   1.389   2.483  0.9288 -0.4026 -1.4520
 8629TIP3    H247379   0.632   1.518   2.489 -0.9310  0.7261  1.2657
 8630TIP3   OH247380   6.684   6.493   2.366 -0.4779 -0.3673 -0.1557
 8630TIP3    H147381   6.732   6.447   2.435  0.5893 -0.7455 -1.1074
 8630TIP3    H247382   6.693   6.586   2.388 -1.0144 -0.5200  0.7522
 8631TIP3   OH247383   3.588   1.053   0.824  0.1475  0.2959 -0.1635
 8631TIP3    H147384   3.566   1.142   0.798 -1.4517 -0.2131 -0.6479
 8631TIP3    H247385   3.656   1.063   0.891 -0.7513  1.9204  0.5459
 8632TIP3   OH247386   4.659   6.726   3.721  0.0895  0.1567 -0.4326
 8632TIP3    H147387   4.679   6.634   3.706 -2.3122 -0.6292  0.5543
 8632TIP3    H247388   4.673   6.769   3.637  0.5694 -1.2511 -1.0918
 8633TIP3   OH247389   6.691   5.573  13.742  0.1967  0.1988  0.2344
 8633TIP3    H147390   6.765   5.634  13.735  1.3737 -1.0093  1.4201
 8633TIP3    H247391   6.616   5.629  13.764  0.2713  1.6818 -2.7312
 8634TIP3   OH247392   5.929   3.394   4.632  0.5246  0.2576 -0.2750
 8634TIP3    H147393   5.977   3.334   4.690 -1.2460 -1.0361 -0.0842
 8634TIP3    H247394   5.917   3.473   4.685  0.2729 -0.3328  0.5647
 8635TIP3   OH247395   4.035   6.563  11.722 -0.8431  0.0396 -0.9030
 8635TIP3    H147396   4.090   6.641  11.718 -2.2981  1.1562 -0.1869
 8635TIP3    H247397   4.096   6.491  11.732  0.4844  1.2289 -0.0366
 8636TIP3   OH247398   2.986   3.790  15.436  0.0755  0.2037  0.0151
 8636TIP3    H147399   3.011   3.856  15.372  1.1669 -0.7776 -0.6195
 8636TIP3    H247400   2.899   3.760  15.407 -0.2972  1.1395  0.1473
 8637TIP3   OH247401   0.194   3.128  13.113 -0.0374  0.0758 -0.2246
 8637TIP3    H147402   0.105   3.136  13.079 -0.1880 -0.3238  0.0704
 8637TIP3    H247403   0.184   3.087  13.199  0.5789 -2.4313 -1.2364
 8638TIP3   OH247404   3.573   0.275  15.275  0.5355  0.7585 -0.0844
 8638TIP3    H147405   3.567   0.208  15.343 -2.3353  1.3028  0.3090
 8638TIP3    H247406   3.517   0.242  15.204  2.4299  0.8202 -1.7080
 8639TIP3   OH247407   5.567   0.260  16.693  0.0347  0.3436  0.1532
 8639TIP3    H147408   5.581   0.165  16.700  1.5808  0.5116 -0.3445
 8639TIP3    H247409   5.518   0.282  16.773 -0.4373 -0.8772  0.2294
 8640TIP3   OH247410   3.096   6.245  17.082  0.1764  0.1848 -0.6135
 8640TIP3    H147411   3.106   6.311  17.152  0.3665  1.0247 -1.4092
 8640TIP3    H247412   3.172   6.187  17.093  0.3080  0.4251 -0.2318
 8641TIP3   OH247413   4.312   5.705   5.312 -0.4275  0.3712  0.5874
 8641TIP3    H147414   4.236   5.700   5.254  1.2943  0.5924 -1.8406
 8641TIP3    H247415   4.318   5.618   5.351 -1.0329 -0.1512 -0.4337
 8642TIP3   OH247416   4.812   0.470   6.076  0.0560  0.6629 -0.2652
 8642TIP3    H147417   4.892   0.469   6.128 -1.0659  2.0956  1.6420
 8642TIP3    H247418   4.757   0.403   6.116 -0.1018  0.4426 -0.8477
 8643TIP3   OH247419   4.169   5.446   0.983 -0.7866  0.1904 -0.1384
 8643TIP3    H147420   4.209   5.527   0.950  0.7505 -0.8512 -0.9765
 8643TIP3    H247421   4.078   5.450   0.952 -0.8501  1.7569  0.1726
 8644TIP3   OH247422   1.157   2.308   1.515 -0.0142 -0.1831 -0.4401
 8644TIP3    H147423   1.083   2.353   1.556 -1.7123 -1.9060 -1.4723
 8644TIP3    H247424   1.219   2.295   1.587 -0.5068  1.6055  0.3811
 8645TIP3   OH247425   3.673   3.828  14.545  0.5453  0.3107 -0.1370
 8645TIP3    H147426   3.648   3.916  14.574 -0.7625  0.4176 -1.4885
 8645TIP3    H247427   3.590   3.785  14.528  1.2213 -0.6802 -0.9767
 8646TIP3   OH247428   1.262   0.758  15.785 -0.4290 -0.0835 -0.1188
 8646TIP3    H147429   1.219   0.836  15.820  0.8100  0.5863 -0.0303
 8646TIP3    H247430   1.225   0.746  15.698 -1.9793 -0.5040  0.5743
 8647TIP3   OH247431   0.410   6.091  12.072  0.3524  0.4244 -0.6087
 8647TIP3    H147432   0.319   6.084  12.102  0.8691  0.5046  1.1171
 8647TIP3    H247433   0.413   6.172  12.021 -0.6903  0.0315 -1.3160
 8648TIP3   OH247434   5.469   6.085  12.885 -0.0203 -0.1005 -0.2735
 8648TIP3    H147435   5.406   6.017  12.910 -0.4186 -0.2896 -1.6972
 8648TIP3    H247436   5.554   6.043  12.894 -0.0094  0.3017  2.1289
 8649TIP3   OH247437   3.540   1.428   2.097  0.5219  0.2353  0.4451
 8649TIP3    H147438   3.492   1.400   2.175  0.5582  1.2675  0.8448
 8649TIP3    H247439   3.560   1.346   2.051 -1.4270 -0.2429  0.3640
 8650TIP3   OH247440   2.023   0.530  14.275 -0.1650 -0.5842  0.2467
 8650TIP3    H147441   2.085   0.600  14.296  1.6536 -2.4339  1.4182
 8650TIP3    H247442   1.953   0.541  14.338 -0.8999  1.2832 -0.8162
 8651TIP3   OH247443   3.098   0.800   2.246  0.5270  0.5123  0.2109
 8651TIP3    H147444   3.013   0.756   2.254 -1.2242  3.1271 -2.0046
 8651TIP3    H247445   3.160   0.730   2.227 -1.5546 -1.2785 -0.4378
 8652TIP3   OH247446   4.764   4.771  15.771 -0.3817  0.4108 -0.5583
 8652TIP3    H147447   4.789   4.846  15.825 -0.5785  0.1796 -0.1464
 8652TIP3    H247448   4.673   4.753  15.795 -0.0809 -0.4877 -0.0375
 8653TIP3   OH247449   5.345   3.191  16.347  0.4412 -0.5165  0.2786
 8653TIP3    H147450   5.394   3.273  16.338 -0.7767  0.3023  0.9000
 8653TIP3    H247451   5.347   3.152  16.260  0.1134  0.7134 -0.2931
 8654TIP3   OH247452   4.205   3.825  14.658 -0.2258 -0.0382 -0.5540
 8654TIP3    H147453   4.121   3.844  14.618 -1.1119 -0.6326  0.9404
 8654TIP3    H247454   4.253   3.776  14.591 -0.7600  0.9223 -1.6775
 8655TIP3   OH247455   2.619   4.087   6.180 -0.0667  0.1051  0.2939
 8655TIP3    H147456   2.686   4.135   6.229 -0.0358  2.2093 -1.6276
 8655TIP3    H247457   2.555   4.060   6.246  1.2186  0.5524  1.7877
 8656TIP3   OH247458   6.768   2.451  12.161 -0.5995 -0.1012  0.0449
 8656TIP3    H147459   6.742   2.362  12.183  0.4926  0.1807  2.9375
 8656TIP3    H247460   6.864   2.450  12.165 -0.5112  0.9178 -1.1963
 8657TIP3   OH247461   4.618   0.234   0.362 -0.0433 -0.2994 -0.4493
 8657TIP3    H147462   4.700   0.262   0.402  1.1667  0.1301 -3.0013
 8657TIP3    H247463   4.551   0.289   0.403  0.9753 -0.3833  1.4130
 8658TIP3   OH247464   3.958   5.524   3.796 -0.2587 -0.5994  0.3118
 8658TIP3    H147465   4.022   5.458   3.823  2.2365  0.8555 -1.6196
 8658TIP3    H247466   3.885   5.473   3.760  0.8512 -2.3086  0.3914
 8659TIP3   OH247467   5.738   6.598   4.311  0.6527  0.3910 -0.0583
 8659TIP3    H147468   5.794   6.633   4.241  2.4391 -2.6019 -0.3001
 8659TIP3    H247469   5.663   6.561   4.264  1.6110 -1.1726 -0.4542
 8660TIP3   OH247470   4.535   5.484   3.690 -0.1220 -0.3295  0.2630
 8660TIP3    H147471   4.491   5.489   3.605  1.3690 -1.5481 -0.6287
 8660TIP3    H247472   4.466   5.505   3.753 -1.6420 -0.8218 -1.1442
 8661TIP3   OH247473   5.712   2.416  11.102  0.2018  0.5502  0.3429
 8661TIP3    H147474   5.618   2.401  11.110  0.4844 -0.8627  1.3857
 8661TIP3    H247475   5.752   2.348  11.156  1.8641  0.5789 -0.7837
 8662TIP3   OH247476   5.975   3.580   2.535 -0.0542 -0.3383  0.2505
 8662TIP3    H147477   6.049   3.637   2.556  0.2619 -0.5604 -0.2368
 8662TIP3    H247478   6.005   3.530   2.459 -1.1631  0.4573 -0.7465
 8663TIP3   OH247479   6.550   3.736  12.373 -0.4883 -0.1847  0.0958
 8663TIP3    H147480   6.637   3.765  12.401  0.1943 -1.3730 -0.7096
 8663TIP3    H247481   6.536   3.778  12.289  0.8967 -2.6693 -1.5293
 8664TIP3   OH247482   3.263   1.318  10.699 -0.2876  0.0901 -0.2278
 8664TIP3    H147483   3.273   1.386  10.633  0.3630  0.5882  0.3676
 8664TIP3    H247484   3.296   1.357  10.780 -0.9620 -0.5474  0.3758
 8665TIP3   OH247485   1.023   4.710   2.472 -0.1805 -0.1504  0.3031
 8665TIP3    H147486   1.012   4.626   2.516  0.4415  0.0821  0.9262
 8665TIP3    H247487   0.985   4.696   2.385 -0.8696 -0.8037  0.6901
 8666TIP3   OH247488   1.932   6.825   5.994 -0.4018 -0.1161  0.2724
 8666TIP3    H147489   1.901   6.810   6.083  0.0577  1.7471  0.7953
 8666TIP3    H247490   2.027   6.826   6.002 -0.3002 -1.6275 -0.5645
 8667TIP3   OH247491   5.252   4.032  13.883 -0.6116 -0.4013 -0.4981
 8667TIP3    H147492   5.304   4.112  13.883  2.4492 -2.2263 -0.7896
 8667TIP3    H247493   5.249   4.005  13.791 -2.1914 -0.3535 -0.5002
 8668TIP3   OH247494   4.925   3.926  16.554  0.0952 -0.0091  0.4278
 8668TIP3    H147495   4.832   3.910  16.535  0.4893 -1.1594 -0.6860
 8668TIP3    H247496   4.936   3.900  16.645 -1.0697  2.0351  1.2098
 8669TIP3   OH247497   0.466   0.873   1.710  0.0877  0.5455  0.2406
 8669TIP3    H147498   0.513   0.864   1.793 -0.4239  0.9359  0.5759
 8669TIP3    H247499   0.528   0.917   1.652  0.1583  1.0136  0.6658
 8670TIP3   OH247500   2.977   2.268   2.231  0.3436 -0.6531  0.4953
 8670TIP3    H147501   3.045   2.323   2.269  2.1010 -2.5406  0.2813
 8670TIP3    H247502   2.920   2.247   2.304 -0.3500  1.3452  0.5840
 8671TIP3   OH247503   5.140   2.578  11.151 -0.1435 -0.0125 -0.7498
 8671TIP3    H147504   5.128   2.671  11.132 -2.4013  0.1349  1.0304
 8671TIP3    H247505   5.067   2.535  11.107 -0.6729 -0.5862  0.6271
 8672TIP3   OH247506   3.251   6.050  16.073 -0.2852 -0.1281  0.2851
 8672TIP3    H147507   3.305   6.126  16.053  1.6979 -1.9514 -1.7978
 8672TIP3    H247508   3.190   6.044  16.000  0.4798 -1.2774 -0.2777
 8673TIP3   OH247509   1.776   0.914   4.889 -0.4955  0.7678  0.2768
 8673TIP3    H147510   1.818   0.974   4.949 -0.3363  0.4424  0.4925
 8673TIP3    H247511   1.683   0.919   4.911 -0.4230  0.5510  0.6387
 8674TIP3   OH247512   0.516   5.361  14.253 -0.5279 -0.4477 -0.4788
 8674TIP3    H147513   0.577   5.300  14.211  0.9894  0.4079  0.3756
 8674TIP3    H247514   0.483   5.415  14.181 -0.6687 -1.2332 -1.0217
 8675TIP3   OH247515   0.915   5.661  12.544 -0.6903  0.1683 -0.4457
 8675TIP3    H147516   0.977   5.653  12.617  0.0061  0.8683 -0.9390
 8675TIP3    H247517   0.887   5.571  12.527  1.4369 -0.4064 -1.2536
 8676TIP3   OH247518   6.121   0.469  12.259 -0.8237 -0.4456  0.3642
 8676TIP3    H147519   6.097   0.405  12.192 -1.4434  0.6155 -0.4564
 8676TIP3    H247520   6.213   0.449  12.280 -0.2754 -0.1460 -1.5753
 8677TIP3   OH247521   2.011   6.282   1.484 -0.1891  0.0676 -0.2827
 8677TIP3    H147522   1.954   6.358   1.482  0.2570  0.4580  0.9932
 8677TIP3    H247523   2.097   6.315   1.458  0.2474  0.2534  1.2991
 8678TIP3   OH247524   2.991   0.189   4.590  0.6303  0.0003 -0.3047
 8678TIP3    H147525   3.000   0.269   4.540  0.2242 -0.6764 -1.5021
 8678TIP3    H247526   3.074   0.143   4.578  0.4778 -0.2310 -0.4739
 8679TIP3   OH247527   5.043   1.660   5.898  0.7018 -0.8201 -0.4568
 8679TIP3    H147528   5.100   1.671   5.822 -0.8381 -0.5816 -1.6111
 8679TIP3    H247529   4.979   1.594   5.872 -0.7811  0.3543  0.0439
 8680TIP3   OH247530   4.084   1.329   0.043 -0.3113 -0.0848  0.5036
 8680TIP3    H147531   3.989   1.327   0.058 -1.0043 -1.7613 -2.9964
 8680TIP3    H247532   4.099   1.259  -0.020  2.7910  2.0396 -1.3484
 8681TIP3   OH247533   4.254   6.394   6.160 -0.0449 -0.5596 -0.2836
 8681TIP3    H147534   4.241   6.305   6.126 -0.2251 -0.2023 -1.1628
 8681TIP3    H247535   4.176   6.441   6.133 -0.5029 -0.4307  1.2115
 8682TIP3   OH247536   6.109   0.432   1.391  0.0654  0.1774  0.1991
 8682TIP3    H147537   6.071   0.367   1.450 -0.6635 -0.0285 -0.4793
 8682TIP3    H247538   6.133   0.506   1.448 -2.3910  0.7853  0.5345
 8683TIP3   OH247539   1.287   4.988   2.267  0.0790 -0.2594 -0.7019
 8683TIP3    H147540   1.374   4.949   2.260 -0.4478 -1.5798 -0.2452
 8683TIP3    H247541   1.301   5.069   2.317  0.6150 -2.1538  2.4390
 8684TIP3   OH247542   4.834   0.601   5.088  0.0878 -0.7848 -0.3260
 8684TIP3    H147543   4.856   0.633   5.176 -0.4616 -1.2769  0.0024
 8684TIP3    H247544   4.855   0.508   5.091 -1.9919 -1.3032  0.0240
 8685TIP3   OH247545   0.787   6.213  15.365  0.0699 -0.3106 -0.8794
 8685TIP3    H147546   0.726   6.174  15.428  1.5422  2.2234  2.3955
 8685TIP3    H247547   0.871   6.172  15.385  0.2565 -0.8839 -2.6542
 8686TIP3   OH247548   2.925   3.246  14.928  0.1159  0.6768  0.0215
 8686TIP3    H147549   2.857   3.263  14.993 -1.2608 -0.5867 -1.0312
 8686TIP3    H247550   3.002   3.221  14.979 -1.0694 -0.7459  1.1712
 8687TIP3   OH247551   4.279   2.795   3.053 -0.0065 -0.0137  0.0025
 8687TIP3    H147552   4.341   2.776   3.123  1.1968 -0.2006 -1.0778
 8687TIP3    H247553   4.197   2.814   3.099  0.3615 -1.5188  1.3999
 8688TIP3   OH247554   1.971   3.396  15.156  0.3216 -0.2173  0.1091
 8688TIP3    H147555   1.936   3.478  15.192  1.0018  0.2298 -0.2243
 8688TIP3    H247556   1.894   3.342  15.140 -0.3567  1.2266 -1.8382
 8689TIP3   OH247557   2.109   1.848   4.028  0.2876  0.4506 -0.4030
 8689TIP3    H147558   2.181   1.870   4.087  0.7407 -1.1943 -0.3015
 8689TIP3    H247559   2.057   1.784   4.078 -0.4056  0.5031 -1.0493
 8690TIP3   OH247560   3.261   0.172   2.697 -0.3399  0.4344  0.3670
 8690TIP3    H147561   3.184   0.222   2.672 -0.0095  0.2172 -1.2146
 8690TIP3    H247562   3.293   0.215   2.777 -0.1448  2.7035 -0.8484
 8691TIP3   OH247563   0.329   4.372   0.055  0.3934 -0.5918 -0.1336
 8691TIP3    H147564   0.375   4.449   0.022  0.7729  0.1193  1.8974
 8691TIP3    H247565   0.324   4.312  -0.020  0.4267  1.2351 -1.6623
 8692TIP3   OH247566   0.903   3.474   5.975  0.5096 -0.0161  0.3772
 8692TIP3    H147567   0.912   3.559   6.020  0.1617  0.1106  0.2086
 8692TIP3    H247568   0.990   3.434   5.983  0.4036 -0.0718  1.3163
 8693TIP3   OH247569   1.811   2.894  12.680 -0.7233  0.4632 -0.3321
 8693TIP3    H147570   1.862   2.974  12.680  2.6985 -1.5010  0.1482
 8693TIP3    H247571   1.826   2.856  12.593 -2.8700  0.6152 -0.8121
 8694TIP3   OH247572   2.865   6.517   0.355 -0.4266 -0.5392  0.0455
 8694TIP3    H147573   2.867   6.611   0.372 -0.4950 -0.7318  1.2430
 8694TIP3    H247574   2.894   6.508   0.265 -0.4753  0.6341 -0.1046
 8695TIP3   OH247575   1.454   6.106   4.473  0.0090  0.5034  0.3508
 8695TIP3    H147576   1.382   6.056   4.435  0.3637 -0.2512  0.6626
 8695TIP3    H247577   1.529   6.086   4.418  0.5421 -0.6489  1.4685
 8696TIP3   OH247578   0.842   4.081   0.458  0.0827  0.2724 -0.1807
 8696TIP3    H147579   0.835   4.024   0.535  1.1401 -0.2048 -0.4165
 8696TIP3    H247580   0.859   4.168   0.494  0.9480 -0.0116  0.1279
 8697TIP3   OH247581   5.060   0.758  15.962  0.2337 -0.0480 -0.8203
 8697TIP3    H147582   4.985   0.736  15.907 -1.8822  1.0272  1.4160
 8697TIP3    H247583   5.054   0.853  15.974  1.1047 -0.1342  0.5220
 8698TIP3   OH247584   2.989   0.514  12.781  0.0423 -0.3515  0.1309
 8698TIP3    H147585   2.967   0.425  12.810  0.1272 -1.0453 -1.7686
 8698TIP3    H247586   3.084   0.512  12.769  0.1887  0.3311  1.0419
 8699TIP3   OH247587   4.825   4.415  12.918  0.3652 -0.1364  0.1308
 8699TIP3    H147588   4.859   4.382  12.834 -1.7818  2.0284 -1.7566
 8699TIP3    H247589   4.838   4.510  12.913  0.5034  0.0168  2.4612
 8700TIP3   OH247590   3.802   2.601   2.538  0.1123  0.5138  0.3208
 8700TIP3    H147591   3.819   2.567   2.626  1.9824  0.3506 -0.0584
 8700TIP3    H247592   3.829   2.531   2.479  0.4172  1.2279 -0.4088
 8701TIP3   OH247593   2.162   6.661   2.937 -0.1401 -0.4887 -0.0210
 8701TIP3    H147594   2.247   6.705   2.934  0.1150 -1.0253 -0.9046
 8701TIP3    H247595   2.179   6.579   2.984 -0.3182 -0.2937  0.3904
 8702TIP3   OH247596   2.503   1.388  15.884  0.4203 -0.0947 -0.0601
 8702TIP3    H147597   2.568   1.359  15.820 -0.4304  2.2580 -2.1877
 8702TIP3    H247598   2.528   1.479  15.902 -0.4010 -0.1786  1.6639
 8703TIP3   OH247599   0.607   5.852  10.365 -0.0681  0.6485  0.0304
 8703TIP3    H147600   0.587   5.932  10.413  0.5240 -0.1338  1.6602
 8703TIP3    H247601   0.561   5.783  10.414 -0.9795  0.0347 -1.6229
 8704TIP3   OH247602   2.854   5.545  16.653 -0.1849  0.7813  0.0902
 8704TIP3    H147603   2.824   5.542  16.563 -0.0930 -0.9249  0.0883
 8704TIP3    H247604   2.796   5.485  16.700  0.2932  1.0112  0.9942
 8705TIP3   OH247605   0.803   2.654  12.622  0.3344 -0.1163 -0.5158
 8705TIP3    H147606   0.756   2.643  12.705  0.4599 -0.1958 -0.4556
 8705TIP3    H247607   0.749   2.717  12.573  0.5608  0.3749 -0.1478
 8706TIP3   OH247608   1.799   2.972  13.788 -0.0136  0.2387 -0.5331
 8706TIP3    H147609   1.841   3.002  13.868 -0.5879 -0.7179  0.1432
 8706TIP3    H247610   1.705   2.978  13.806 -0.1536 -1.0852 -0.6799
 8707TIP3   OH247611   3.448   6.105   1.794  0.4328 -0.4674 -0.1455
 8707TIP3    H147612   3.522   6.164   1.779  0.4403 -0.5566 -0.4674
 8707TIP3    H247613   3.451   6.043   1.721  1.1010 -1.5650  0.7882
 8708TIP3   OH247614   5.573   5.733  13.563 -0.6782  0.3499 -0.2322
 8708TIP3    H147615   5.626   5.681  13.623  0.6172  0.6065 -1.1075
 8708TIP3    H247616   5.528   5.797  13.618 -2.0614 -1.4539  0.8275
 8709TIP3   OH247617   0.463   4.726   2.731  0.4607 -0.1592 -0.5593
 8709TIP3    H147618   0.383   4.697   2.687 -0.3539 -0.0285  0.8031
 8709TIP3    H247619   0.526   4.656   2.716 -0.8721 -1.7624  1.0262
 8710TIP3   OH247620   5.502   3.157  15.494 -0.0268  0.1641  0.6410
 8710TIP3    H147621   5.437   3.180  15.560  0.0971 -0.0373  0.8344
 8710TIP3    H247622   5.453   3.153  15.412 -0.5558 -1.3936  0.9973
 8711TIP3   OH247623   0.537   5.553   2.480  0.0100  0.4471 -0.4954
 8711TIP3    H147624   0.626   5.550   2.444  0.2685  2.0792 -0.0699
 8711TIP3    H247625   0.538   5.490   2.552  0.3606 -0.6315 -1.4091
 8712TIP3   OH247626   3.577   5.034   1.038 -0.4937  0.3416  0.4696
 8712TIP3    H147627   3.658   5.085   1.041  0.9577 -1.3806 -3.1093
 8712TIP3    H247628   3.513   5.092   0.998 -0.4814  1.0419  1.4309
 8713TIP3   OH247629   0.210   2.777   5.773 -0.0495  0.0025 -0.4923
 8713TIP3    H147630   0.220   2.834   5.849 -1.9429 -0.0177 -0.1594
 8713TIP3    H247631   0.132   2.724   5.793  1.8888 -3.1447 -0.5382
 8714TIP3   OH247632   2.066   6.518   5.294 -0.2388  0.5954 -0.5453
 8714TIP3    H147633   2.137   6.568   5.334 -0.4432  1.7707 -1.5803
 8714TIP3    H247634   2.111   6.449   5.244  0.1491  0.9271 -0.6637
 8715TIP3   OH247635   3.942   0.423   2.325 -0.0226 -0.5743  0.1982
 8715TIP3    H147636   3.935   0.491   2.258  0.0217  1.2793  1.9682
 8715TIP3    H247637   3.871   0.443   2.386 -0.4135 -2.5458  0.4523
 8716TIP3   OH247638   1.523   1.977   3.185 -0.8095  0.3695 -0.3147
 8716TIP3    H147639   1.525   2.006   3.094 -0.9258 -0.5502 -0.6192
 8716TIP3    H247640   1.432   1.951   3.200 -0.3531 -1.4710 -0.5877
 8717TIP3   OH247641   1.839   6.711  12.229 -0.0701 -0.2482 -0.3032
 8717TIP3    H147642   1.803   6.792  12.191 -2.9673 -0.9099  0.7953
 8717TIP3    H247643   1.787   6.641  12.189  1.8829 -1.5493 -0.6636
 8718TIP3   OH247644   1.650   2.637   1.870 -0.3320  0.2077 -0.0031
 8718TIP3    H147645   1.664   2.695   1.944 -0.6852 -1.7847  1.7226
 8718TIP3    H247646   1.668   2.549   1.905 -0.4996 -0.8072 -2.2850
 8719TIP3   OH247647   6.298   0.530   3.005  0.8791 -0.2890 -0.1635
 8719TIP3    H147648   6.236   0.543   3.076 -0.1968 -0.8894 -0.9722
 8719TIP3    H247649   6.370   0.589   3.026  0.3833 -0.1233  1.1796
 8720TIP3   OH247650   1.813   4.736   4.370 -0.3937 -0.2642 -0.0406
 8720TIP3    H147651   1.724   4.769   4.387 -0.6064 -0.3264 -0.9748
 8720TIP3    H247652   1.856   4.739   4.456 -1.3520 -0.4059  0.4663
 8721TIP3   OH247653   4.623   2.071  15.397 -0.5968  0.1613  0.0834
 8721TIP3    H147654   4.662   1.985  15.412  0.8393  0.6320 -0.7940
 8721TIP3    H247655   4.624   2.082  15.302 -1.2440  0.9348  0.1566
 8722TIP3   OH247656   1.233   4.113   1.824  0.1998  0.2428  0.1531
 8722TIP3    H147657   1.259   4.109   1.732 -0.6073 -2.3567 -0.0371
 8722TIP3    H247658   1.140   4.138   1.821  0.3043  0.6450  0.2859
 8723TIP3   OH247659   4.441   0.269  15.330  0.2725  0.1608 -0.0823
 8723TIP3    H147660   4.472   0.221  15.253 -0.8325  0.3967 -0.6847
 8723TIP3    H247661   4.454   0.361  15.308  0.1361  0.2238  0.0998
 8724TIP3   OH247662   5.903   4.742  15.774 -0.1799  0.6515 -0.4990
 8724TIP3    H147663   5.998   4.746  15.764  0.3578 -0.5308  2.7691
 8724TIP3    H247664   5.879   4.655  15.743  0.2034  0.0993  0.6844
 8725TIP3   OH247665   0.765   2.058  15.887 -0.1962  0.0521 -0.1187
 8725TIP3    H147666   0.716   2.121  15.834 -1.6043 -0.2720  0.7443
 8725TIP3    H247667   0.835   2.027  15.830 -1.2406  0.2391 -1.5383
 8726TIP3   OH247668   4.025   6.232  16.199 -0.4744  0.2606 -0.2164
 8726TIP3    H147669   4.068   6.153  16.166  0.0555  0.9649 -1.2295
 8726TIP3    H247670   3.935   6.204  16.217  0.2255 -1.1274  1.5355
 8727TIP3   OH247671   6.658   0.178  11.729 -0.3048  0.1000 -0.4567
 8727TIP3    H147672   6.750   0.183  11.757 -0.3469 -0.0054 -0.2992
 8727TIP3    H247673   6.663   0.152  11.637 -0.2048 -1.1746 -0.1139
 8728TIP3   OH247674   4.967   2.008   6.047 -0.2937 -0.3603  0.1565
 8728TIP3    H147675   4.961   1.973   6.136  0.4149 -0.2630  0.2538
 8728TIP3    H247676   5.001   2.097   6.059 -2.0186  0.3717 -0.0879
 8729TIP3   OH247677   5.882   0.965  14.870  0.2877  0.3679 -0.0189
 8729TIP3    H147678   5.890   0.910  14.792 -0.2102  2.4191 -1.5923
 8729TIP3    H247679   5.887   1.055  14.837 -0.8474  1.3221  2.2068
 8730TIP3   OH247680   4.511   0.879   0.993  0.9647 -0.1179 -0.1329
 8730TIP3    H147681   4.464   0.837   1.064 -1.3968  0.8326 -1.0522
 8730TIP3    H247682   4.488   0.827   0.915  0.7437  0.8618 -0.7335
 8731TIP3   OH247683   0.925   2.419  12.120  0.2802 -0.6940 -0.0647
 8731TIP3    H147684   0.858   2.484  12.098 -0.2392 -0.3659  2.2245
 8731TIP3    H247685   1.008   2.461  12.100 -0.0811  0.4229  0.6880
 8732TIP3   OH247686   5.090   6.232   5.984 -0.3946  0.8858  0.0424
 8732TIP3    H147687   5.114   6.238   6.077  1.0214  4.3222 -0.4107
 8732TIP3    H247688   5.128   6.310   5.944 -1.0827 -0.3853 -3.4593
 8733TIP3   OH247689   3.883   3.256  16.352 -0.0718 -0.0368 -0.0690
 8733TIP3    H147690   3.845   3.275  16.266 -2.2425  0.8587  1.0059
 8733TIP3    H247691   3.825   3.189  16.389  1.5772 -1.3652  0.2444
 8734TIP3   OH247692   0.496   2.533  15.016  0.0165 -0.2273 -0.4633
 8734TIP3    H147693   0.516   2.621  14.985 -1.6462  0.3878  0.0798
 8734TIP3    H247694   0.458   2.489  14.941 -1.1193  0.2362 -0.1767
 8735TIP3   OH247695   0.229   6.677  10.368  0.4011 -0.0220  0.2645
 8735TIP3    H147696   0.195   6.619  10.300  1.2715  0.7794 -0.8931
 8735TIP3    H247697   0.188   6.645  10.449 -0.1260 -1.4332 -0.5138
 8736TIP3   OH247698   3.107   6.786   5.324  0.8903  0.4125 -0.0726
 8736TIP3    H147699   3.093   6.736   5.405  0.2985 -1.6166 -1.3461
 8736TIP3    H247700   3.198   6.768   5.300  0.9048  0.5736 -0.1420
 8737TIP3   OH247701   2.766   0.265  14.391 -0.3091 -0.0379  0.3823
 8737TIP3    H147702   2.847   0.241  14.435 -0.6465  0.4826  1.3167
 8737TIP3    H247703   2.781   0.354  14.360 -0.8613  0.4400  1.4417
 8738TIP3   OH247704   4.248   5.147  11.682 -0.3580 -0.3163 -0.8456
 8738TIP3    H147705   4.161   5.180  11.703 -1.5491 -3.7135  0.1958
 8738TIP3    H247706   4.280   5.109  11.764  1.4619 -0.5406 -1.6097
 8739TIP3   OH247707   5.399   5.160  12.938 -0.4574  0.0546  0.0605
 8739TIP3    H147708   5.416   5.076  12.982 -0.7720  0.6557  1.3934
 8739TIP3    H247709   5.484   5.189  12.906 -0.2329 -0.4471  0.1955
 8740TIP3   OH247710   2.583   0.112  15.616  0.2000 -0.2421 -0.6049
 8740TIP3    H147711   2.578   0.029  15.663  2.4537 -0.3771 -0.4849
 8740TIP3    H247712   2.598   0.086  15.525  0.0442  0.0427 -0.7121
 8741TIP3   OH247713   4.301   2.296   0.760  0.0087  0.0212 -0.1181
 8741TIP3    H147714   4.273   2.224   0.703 -0.8009  0.9411 -0.9240
 8741TIP3    H247715   4.392   2.276   0.780  0.3575 -0.3268 -1.8267
 8742TIP3   OH247716   0.958   5.746  16.219 -0.2608  0.6269  0.6296
 8742TIP3    H147717   1.043   5.744  16.262 -0.3838  0.9626  0.8974
 8742TIP3    H247718   0.952   5.835  16.183 -0.9062  0.9443  1.4741
 8743TIP3   OH247719   0.678   5.905  13.516  0.9554 -0.5297 -0.1208
 8743TIP3    H147720   0.709   5.825  13.473 -0.3747  0.3929 -3.1097
 8743TIP3    H247721   0.757   5.959  13.524  1.5114 -1.3353  0.0016
 8744TIP3   OH247722   4.457   0.099  15.582  0.3076 -0.3300  0.3636
 8744TIP3    H147723   4.490   0.009  15.583  1.5942  0.1022  2.4991
 8744TIP3    H247724   4.447   0.120  15.489  1.0668 -2.2765 -0.2046
 8745TIP3   OH247725   0.828   3.197  14.380 -0.1467  0.4470  0.7448
 8745TIP3    H147726   0.917   3.221  14.352  0.0761 -0.7191  0.3918
 8745TIP3    H247727   0.827   3.101  14.376 -1.3692  0.4394  0.9354
 8746TIP3   OH247728   1.137   1.371   1.242  0.7406  0.1952  0.8384
 8746TIP3    H147729   1.209   1.399   1.185  0.1964 -0.6078 -0.2644
 8746TIP3    H247730   1.059   1.409   1.203  0.5062  0.8573  1.8955
 8747TIP3   OH247731   1.185   6.156  15.906  0.1850  0.6474 -0.4964
 8747TIP3    H147732   1.106   6.207  15.925 -0.5702 -1.1085  1.5841
 8747TIP3    H247733   1.256   6.209  15.942 -0.5909  0.3105  1.7340
 8748TIP3   OH247734   0.056   2.563   0.753 -0.2906  0.7084 -0.3348
 8748TIP3    H147735   0.050   2.475   0.718 -0.8137  0.0060  1.4215
 8748TIP3    H247736   0.143   2.568   0.792  0.8512  1.9571 -2.7861
 8749TIP3   OH247737   6.121   5.107  14.362  0.0392 -0.3413 -0.3101
 8749TIP3    H147738   6.201   5.130  14.409 -1.2221 -2.0993  2.9996
 8749TIP3    H247739   6.076   5.191  14.350  1.5210  0.4460 -0.6272
 8750TIP3   OH247740   2.639   0.238   4.686  0.0301  0.6299 -0.1212
 8750TIP3    H147741   2.565   0.276   4.640  0.3383  0.5968 -0.6467
 8750TIP3    H247742   2.666   0.305   4.748  0.7137  1.3644 -1.1935
 8751TIP3   OH247743   1.235   5.923  12.375  0.1584  0.0646 -0.1460
 8751TIP3    H147744   1.176   5.985  12.333 -0.0528 -1.4235 -2.2030
 8751TIP3    H247745   1.312   5.976  12.398 -1.6274  1.9063  2.0547
 8752TIP3   OH247746   6.266   4.385  16.672  0.6395  0.3822 -0.1120
 8752TIP3    H147747   6.224   4.378  16.586  2.0733  0.3013 -0.8284
 8752TIP3    H247748   6.355   4.416  16.654  0.8890  0.6400  1.3719
 8753TIP3   OH247749   3.711   1.351  14.897  0.0914 -0.4434  0.4488
 8753TIP3    H147750   3.651   1.423  14.916  1.8406  1.6718 -1.4578
 8753TIP3    H247751   3.735   1.363  14.805  0.3458 -3.6165 -0.0105
 8754TIP3   OH247752   3.853   6.622  15.599  0.2189 -0.1920 -0.7392
 8754TIP3    H147753   3.869   6.708  15.637  0.2366 -1.0937  1.4292
 8754TIP3    H247754   3.940   6.590  15.576  0.4403 -0.4231  0.3499
 8755TIP3   OH247755   1.254   6.059   3.309  0.1958  0.2201  0.1224
 8755TIP3    H147756   1.240   6.070   3.403 -0.3724 -0.4718  0.1297
 8755TIP3    H247757   1.190   6.117   3.268  0.5418  0.6318  0.1570
 8756TIP3   OH247758   6.441   5.194  14.217  0.9752 -0.1402  0.3789
 8756TIP3    H147759   6.378   5.144  14.166  0.1232  0.3556  0.9329
 8756TIP3    H247760   6.524   5.147  14.204  0.2680 -1.5083  0.6452
 8757TIP3   OH247761   0.746   4.734   0.238  0.0058  0.0411 -0.5241
 8757TIP3    H147762   0.747   4.801   0.305 -2.0584 -0.9086  0.5596
 8757TIP3    H247763   0.759   4.781   0.156 -0.6574  1.6642  0.2636
 8758TIP3   OH247764   0.799   2.653   5.565 -0.2611  0.7547 -0.3454
 8758TIP3    H147765   0.883   2.670   5.608 -0.1237 -1.1225  0.2263
 8758TIP3    H247766   0.757   2.586   5.620 -2.7931  2.6418  0.1753
 8759TIP3   OH247767   4.970   1.279  13.841  0.4154 -0.8062  0.2997
 8759TIP3    H147768   5.030   1.336  13.794 -0.0486 -1.3311 -0.9713
 8759TIP3    H247769   4.891   1.278  13.787 -0.8644  0.0604  2.0405
 8760TIP3   OH247770   4.620   3.193  12.361  0.2455  0.0713  0.9337
 8760TIP3    H147771   4.586   3.112  12.323  0.3241  1.3025 -2.0705
 8760TIP3    H247772   4.637   3.172  12.452  0.1870 -3.2517  0.2895
 8761TIP3   OH247773   0.250   5.882  14.048  0.5679 -0.2655 -0.5902
 8761TIP3    H147774   0.317   5.948  14.030  0.6473 -0.1908 -0.0420
 8761TIP3    H247775   0.183   5.928  14.098  0.7065 -0.6316 -0.0564
 8762TIP3   OH247776   1.546   5.878   3.489 -0.4923 -0.2330  0.2748
 8762TIP3    H147777   1.496   5.867   3.407 -1.4766  0.5190  0.7491
 8762TIP3    H247778   1.628   5.831   3.473 -1.0825 -0.9693 -0.7724
 8763TIP3   OH247779   3.418   4.698  10.898  0.4682 -0.4439  0.2840
 8763TIP3    H147780   3.399   4.787  10.869  0.0666 -1.6490 -3.7669
 8763TIP3    H247781   3.333   4.666  10.930  0.2502  0.1244  0.3002
 8764TIP3   OH247782   1.245   2.772  16.200  0.0690 -0.5424  0.0977
 8764TIP3    H147783   1.253   2.752  16.293 -0.1546  0.8710  0.4432
 8764TIP3    H247784   1.157   2.809  16.191  0.1733 -0.4531 -0.6390
 8765TIP3   OH247785   4.242   2.769   4.589 -0.6221 -0.2246 -0.0123
 8765TIP3    H147786   4.286   2.686   4.568 -0.7595 -0.4532  0.5860
 8765TIP3    H247787   4.160   2.743   4.630 -1.2619  0.2049 -0.9829
 8766TIP3   OH247788   5.705   1.916  13.808  0.6880  0.6134  0.6825
 8766TIP3    H147789   5.717   1.885  13.718  0.5816 -1.2911  1.2906
 8766TIP3    H247790   5.661   2.000  13.798  1.1508  0.7013 -1.0599
 8767TIP3   OH247791   5.301   6.103  12.318 -0.6412  0.3954  0.0327
 8767TIP3    H147792   5.384   6.125  12.359 -0.5956  0.8783 -0.3059
 8767TIP3    H247793   5.307   6.009  12.299 -0.5255  0.2459  0.7983
 8768TIP3   OH247794   1.975   6.838   2.094  0.2590  0.5658  0.4653
 8768TIP3    H147795   2.064   6.834   2.128 -0.4636 -0.6064  2.4286
 8768TIP3    H247796   1.921   6.863   2.170 -1.3396 -1.3326  0.0625
 8769TIP3   OH247797   4.798   6.067  16.507  0.2971  0.2726 -0.8091
 8769TIP3    H147798   4.788   6.143  16.565  1.4929  0.9196 -1.4070
 8769TIP3    H247799   4.839   6.001  16.563  1.0828  0.7578 -0.7870
 8770TIP3   OH247800   4.951   6.415  16.513 -0.4769  0.6031  0.8304
 8770TIP3    H147801   4.866   6.459  16.518 -1.3633 -1.0379  0.9352
 8770TIP3    H247802   4.936   6.329  16.554  1.8034  1.0732  2.8791
 8771TIP3   OH247803   6.104   0.471   6.184 -0.2582  0.2859 -0.1111
 8771TIP3    H147804   6.054   0.495   6.106 -0.7103 -1.3282 -0.3643
 8771TIP3    H247805   6.195   0.469   6.156 -0.3472  0.4241 -0.4068
 8772TIP3   OH247806   0.708   5.914  13.877 -0.4763 -0.0990 -0.1263
 8772TIP3    H147807   0.769   5.880  13.811 -0.0920 -0.7588  0.5518
 8772TIP3    H247808   0.752   5.897  13.960 -1.3909 -0.1697  0.3465
 8773TIP3   OH247809   6.050   5.327   6.008  0.0406 -0.2711 -0.1619
 8773TIP3    H147810   6.117   5.389   6.035  0.8692 -1.4394  0.5369
 8773TIP3    H247811   6.098   5.248   5.982 -0.8640 -0.0571 -2.7494
 8774TIP3   OH247812   6.470   4.298   5.928  0.1373 -0.1759 -0.0354
 8774TIP3    H147813   6.530   4.278   5.856 -0.3239  0.4502 -0.6050
 8774TIP3    H247814   6.527   4.331   5.998  0.5275 -0.2391 -0.3177
 8775TIP3   OH247815   4.953   3.335  12.850 -0.4636 -0.3276  0.0546
 8775TIP3    H147816   4.868   3.292  12.865 -0.5915  0.3266  1.3150
 8775TIP3    H247817   4.985   3.356  12.937  0.6116  0.1996 -0.4510
 8776TIP3   OH247818   0.155   4.968  16.056 -0.1609  0.5528 -0.1547
 8776TIP3    H147819   0.229   4.928  16.101 -0.3131  1.8857  1.3842
 8776TIP3    H247820   0.094   4.991  16.126 -1.7167  0.1356 -1.3247
 8777TIP3   OH247821   6.209   1.721   3.988 -0.7287  0.5217 -0.0621
 8777TIP3    H147822   6.279   1.663   4.017 -1.0288  0.5978  0.8282
 8777TIP3    H247823   6.147   1.663   3.943 -0.7284  0.2516  0.2852
 8778TIP3   OH247824   2.421   2.195   2.460 -0.1358  0.3286 -0.2068
 8778TIP3    H147825   2.343   2.154   2.496  0.8661 -2.3373 -0.8691
 8778TIP3    H247826   2.387   2.261   2.399 -1.8640 -0.5480 -0.2518
 8779TIP3   OH247827   4.113   4.524  11.609  0.1963 -0.1207  0.0707
 8779TIP3    H147828   4.116   4.483  11.523  0.1110 -0.4371  0.2181
 8779TIP3    H247829   4.079   4.612  11.592 -0.8439 -0.5284 -0.0938
 8780TIP3   OH247830   5.065   3.090   1.889  0.1973  0.2578  0.2091
 8780TIP3    H147831   4.986   3.082   1.835  0.4240 -1.8310  0.1214
 8780TIP3    H247832   5.036   3.137   1.967 -0.7989  0.7380 -0.4322
 8781TIP3   OH247833   2.011   6.008   1.414 -0.2254 -0.0162 -0.5578
 8781TIP3    H147834   2.019   6.096   1.452 -1.6214 -0.2216  0.2597
 8781TIP3    H247835   2.056   5.951   1.476  2.4352  0.2867 -2.0441
 8782TIP3   OH247836   2.366   6.809  15.940  0.5394  0.0105 -0.1314
 8782TIP3    H147837   2.436   6.792  15.877 -0.0156 -1.9008 -0.2684
 8782TIP3    H247838   2.410   6.808  16.025  0.8895  0.2204 -0.3038
 8783TIP3   OH247839   1.793   0.003   3.432 -0.2060  0.1733  0.6643
 8783TIP3    H147840   1.748   0.073   3.385  2.2900  1.7404  0.4499
 8783TIP3    H247841   1.873   0.043   3.465  1.6638 -2.7041  0.0389
 8784TIP3   OH247842   1.882   4.079   2.225  0.6838  0.2704 -0.4393
 8784TIP3    H147843   1.827   4.157   2.238  1.4849  0.8240 -0.2774
 8784TIP3    H247844   1.840   4.032   2.153 -0.8863 -0.1468  0.6958
 8785TIP3   OH247845   6.057   1.495   3.149 -0.4654  0.3659  0.1498
 8785TIP3    H147846   6.126   1.429   3.157 -0.2066  0.5060 -0.7351
 8785TIP3    H247847   5.976   1.450   3.171 -0.5028 -0.6808 -1.8806
 8786TIP3   OH247848   4.215   5.804  14.846  0.5974  0.1647 -0.6370
 8786TIP3    H147849   4.227   5.764  14.932 -0.3640  0.5902 -0.2978
 8786TIP3    H247850   4.164   5.883  14.863  0.0547  0.0447 -1.6511
 8787TIP3   OH247851   5.814   3.837  13.204  0.1080 -0.2362 -0.1983
 8787TIP3    H147852   5.821   3.933  13.207 -0.6706 -0.1783  0.2184
 8787TIP3    H247853   5.858   3.808  13.284 -0.0217 -0.2024 -0.1151
 8788TIP3   OH247854   4.347   3.629   2.971 -0.3200  0.1972  0.1888
 8788TIP3    H147855   4.273   3.600   3.024 -0.5534  1.5496  0.6296
 8788TIP3    H247856   4.306   3.677   2.898  0.0613 -0.5211 -0.5212
 8789TIP3   OH247857   4.806   1.407   6.145 -0.3713 -0.4196  0.2177
 8789TIP3    H147858   4.899   1.391   6.159 -0.0853  1.3605  0.6575
 8789TIP3    H247859   4.770   1.422   6.233 -0.5547  1.2132 -0.0884
 8790TIP3   OH247860   6.449   1.722  16.573 -0.3979 -0.1624 -0.3319
 8790TIP3    H147861   6.530   1.677  16.597  0.3709  0.6489 -1.3337
 8790TIP3    H247862   6.438   1.703  16.480  0.2305  2.0986 -0.9307
 8791TIP3   OH247863   5.697   0.289  14.132 -0.4193  0.3682 -0.3036
 8791TIP3    H147864   5.677   0.236  14.054 -0.4318  0.1489 -0.1513
 8791TIP3    H247865   5.792   0.296  14.131 -0.3383 -0.5444  0.2574
 8792TIP3   OH247866   4.897   5.401   1.678 -0.2552  0.3119  0.2955
 8792TIP3    H147867   4.951   5.378   1.602 -2.2201  1.3257 -1.5028
 8792TIP3    H247868   4.958   5.444   1.738  1.1933  0.2208 -1.0522
 8793TIP3   OH247869   0.125   5.296   5.336  0.0682 -0.2520 -0.3418
 8793TIP3    H147870   0.133   5.341   5.420 -0.0878 -1.3291  0.2629
 8793TIP3    H247871   0.083   5.213   5.356 -0.5545 -0.2683 -1.5845
 8794TIP3   OH247872   6.308   3.028   3.229 -0.4289  0.1836 -0.2287
 8794TIP3    H147873   6.396   3.065   3.238 -0.3186  0.5480 -2.3618
 8794TIP3    H247874   6.276   3.061   3.145 -2.0015 -1.1943 -0.2312
 8795TIP3   OH247875   1.130   6.648   2.545  0.2859 -0.4646 -0.1185
 8795TIP3    H147876   1.140   6.553   2.547  2.3361 -0.3118  2.3877
 8795TIP3    H247877   1.059   6.666   2.606 -0.3484 -0.3816 -0.8700
 8796TIP3   OH247878   1.759   5.922  13.228  0.3529  0.2586  0.4836
 8796TIP3    H147879   1.827   5.942  13.163 -1.6360  0.3674 -1.6939
 8796TIP3    H247880   1.678   5.955  13.189 -1.4856 -2.7141  1.4554
 8797TIP3   OH247881   2.360   3.583  14.103 -0.5501 -0.0645  0.5455
 8797TIP3    H147882   2.424   3.511  14.104 -1.4250 -0.9084 -0.9746
 8797TIP3    H247883   2.392   3.644  14.170  1.8867 -0.4148 -0.1970
 8798TIP3   OH247884   5.452   2.923   0.245  0.4903  0.0972 -0.1981
 8798TIP3    H147885   5.417   2.922   0.334  1.7762  0.8421  0.3390
 8798TIP3    H247886   5.545   2.941   0.256  0.7224 -0.0846 -1.6862
 8799TIP3   OH247887   3.444   6.590   2.385  0.4200  0.3469 -0.3324
 8799TIP3    H147888   3.517   6.596   2.324 -0.7055 -0.8151 -1.8630
 8799TIP3    H247889   3.378   6.650   2.350  0.3700  0.8964  0.6664
 8800TIP3   OH247890   4.593   1.602   2.120 -0.3397  0.3438  0.1303
 8800TIP3    H147891   4.641   1.685   2.113  0.9049 -0.1720  1.8855
 8800TIP3    H247892   4.608   1.573   2.210 -2.2359 -0.9219  0.0869
 8801TIP3   OH247893   1.980   6.047   6.139 -0.6644 -0.2108 -0.3045
 8801TIP3    H147894   2.009   5.958   6.122 -0.5534 -0.2990  0.3203
 8801TIP3    H247895   2.051   6.086   6.191  0.1559  0.8375 -2.1220
 8802TIP3   OH247896   2.567   6.125  13.789  0.1969 -0.2469 -0.3359
 8802TIP3    H147897   2.575   6.031  13.806  0.7010 -0.1617 -0.0776
 8802TIP3    H247898   2.517   6.159  13.863  1.5986 -0.0238  0.5323
 8803TIP3   OH247899   2.846   2.133  11.025  0.0517  0.0637  0.3176
 8803TIP3    H147900   2.874   2.149  11.115  0.4977 -0.3181  0.2492
 8803TIP3    H247901   2.919   2.087  10.985 -1.0841 -1.9488  0.4329
 8804TIP3   OH247902   2.383   3.497   3.811  0.1854  0.2780 -0.2066
 8804TIP3    H147903   2.441   3.573   3.806 -0.1231  0.4732 -1.0297
 8804TIP3    H247904   2.307   3.527   3.862  0.0603  0.5260 -0.5386
 8805TIP3   OH247905   4.361   2.421  12.766  0.1899 -0.5081  0.3178
 8805TIP3    H147906   4.433   2.359  12.781  0.2158  0.0137  2.8228
 8805TIP3    H247907   4.290   2.387  12.821 -1.4518 -0.8747 -1.9198
 8806TIP3   OH247908   5.940   4.065   3.275 -0.4451  0.3387  0.2390
 8806TIP3    H147909   5.919   3.993   3.215 -1.1276 -0.6885  1.6325
 8806TIP3    H247910   5.900   4.142   3.235 -3.8249 -0.8834  0.8823
 8807TIP3   OH247911   1.154   6.019   1.983  0.6316  0.1725  0.2007
 8807TIP3    H147912   1.136   5.997   2.074 -1.0795  1.1611  0.1451
 8807TIP3    H247913   1.191   6.107   1.987  0.2077  0.3679 -0.0609
 8808TIP3   OH247914   0.421   0.572  10.298  0.1989 -0.4218  0.3198
 8808TIP3    H147915   0.470   0.645  10.259 -0.7796 -0.1268 -0.3867
 8808TIP3    H247916   0.489   0.509  10.323  1.0470  0.6221  0.7370
 8809TIP3   OH247917   5.761   6.802   3.634 -0.2130 -0.0950  0.3600
 8809TIP3    H147918   5.840   6.748   3.646 -0.3801 -0.2564  0.7782
 8809TIP3    H247919   5.708   6.753   3.571  0.9807  1.0954 -1.6693
 8810TIP3   OH247920   0.753   3.070   4.773 -0.0966 -0.0666  0.4110
 8810TIP3    H147921   0.806   3.090   4.850  2.4310 -0.7471 -1.0122
 8810TIP3    H247922   0.695   2.999   4.801  0.8169 -0.3460  1.6541
 8811TIP3   OH247923   0.215   0.118   0.554  0.2374 -0.4699 -0.1494
 8811TIP3    H147924   0.271   0.184   0.593  1.1508 -0.1805 -1.8606
 8811TIP3    H247925   0.149   0.168   0.505  0.2376 -0.8218 -0.5135
 8812TIP3   OH247926   0.281   6.376   2.473 -0.7761  0.0003  0.1996
 8812TIP3    H147927   0.353   6.320   2.500 -1.4539 -1.0891 -0.1984
 8812TIP3    H247928   0.264   6.353   2.382 -2.1881 -0.4055  0.5356
 8813TIP3   OH247929   6.544   5.580   0.140  0.4256 -0.6561  0.3184
 8813TIP3    H147930   6.623   5.530   0.158  2.0957  1.7814  0.2117
 8813TIP3    H247931   6.563   5.628   0.059 -0.9360  0.3840  0.5717
 8814TIP3   OH247932   5.226   1.653   5.708  0.3863 -0.5054  0.4663
 8814TIP3    H147933   5.234   1.696   5.623  0.0882 -0.5056  0.4374
 8814TIP3    H247934   5.316   1.629   5.732  0.5013 -0.2626  0.2786
 8815TIP3   OH247935   2.419   2.468   6.154 -0.2838 -0.0426  0.6032
 8815TIP3    H147936   2.429   2.447   6.247  1.4182  0.3907  0.5512
 8815TIP3    H247937   2.508   2.470   6.120 -0.7566  1.4387 -0.6777
 8816TIP3   OH247938   0.169   5.599  11.252  0.1537 -0.8913  0.4448
 8816TIP3    H147939   0.211   5.553  11.180 -2.5692 -4.3701  0.7745
 8816TIP3    H247940   0.200   5.553  11.331 -0.7733 -0.5782  1.0140
 8817TIP3   OH247941   5.197   1.356  11.990  0.0196  0.3936  0.0674
 8817TIP3    H147942   5.189   1.325  12.080  2.0575 -0.1176  0.1185
 8817TIP3    H247943   5.291   1.367  11.976 -0.2574  0.7191 -1.9280
 8818TIP3   OH247944   1.863   2.169   2.125 -0.2235 -0.1665 -0.6765
 8818TIP3    H147945   1.924   2.242   2.133 -0.3499 -0.1801  0.6191
 8818TIP3    H247946   1.846   2.141   2.215 -3.5870  1.0033 -0.7967
 8819TIP3   OH247947   4.861   0.543  12.397 -0.3092 -0.0515 -0.3038
 8819TIP3    H147948   4.881   0.563  12.488 -1.8797 -1.3675  0.3728
 8819TIP3    H247949   4.929   0.482  12.370 -1.1273 -1.4622  0.7400
 8820TIP3   OH247950   2.032   2.531  15.917 -0.7834 -0.1728  0.5551
 8820TIP3    H147951   2.052   2.624  15.906 -0.8421 -0.4169 -2.7680
 8820TIP3    H247952   2.115   2.491  15.941 -1.0077  0.7865  3.3297
 8821TIP3   OH247953   0.096   2.303   1.238  0.1116  0.6058 -0.1341
 8821TIP3    H147954   0.003   2.321   1.223  0.1376  0.7273 -0.1508
 8821TIP3    H247955   0.124   2.255   1.161 -0.1298 -0.1299  0.2325
 8822TIP3   OH247956   1.461   5.506  12.328  0.8427  0.3093 -0.0453
 8822TIP3    H147957   1.437   5.509  12.420  0.8433 -0.5833 -0.0122
 8822TIP3    H247958   1.550   5.544  12.325  0.1850  1.9546  0.0669
 8823TIP3   OH247959   2.848   2.500   3.354 -0.3185  0.1109  0.2681
 8823TIP3    H147960   2.900   2.484   3.275  2.0111 -0.5091  1.8202
 8823TIP3    H247961   2.786   2.427   3.358  0.5428 -0.6645 -0.2317
 8824TIP3   OH247962   1.648   2.156   5.906 -0.4785 -0.1339  0.1137
 8824TIP3    H147963   1.707   2.083   5.927  0.8678  0.7005 -0.6475
 8824TIP3    H247964   1.706   2.229   5.887 -1.8012  1.1610  0.8486
 8825TIP3   OH247965   2.298   6.078  13.375  0.1195  0.1082 -0.2560
 8825TIP3    H147966   2.322   6.156  13.325  0.4454  0.5106  0.5221
 8825TIP3    H247967   2.378   6.027  13.381  0.6475  1.0902  1.6861
 8826TIP3   OH247968   0.880   3.561   5.370 -0.3522  0.3394  0.2386
 8826TIP3    H147969   0.948   3.623   5.396  3.2153 -2.8949 -0.4531
 8826TIP3    H247970   0.863   3.509   5.448  0.3104 -0.7948 -0.3472
 8827TIP3   OH247971   2.701   2.254   0.023 -0.4878  0.1805 -0.1239
 8827TIP3    H147972   2.648   2.231   0.100 -1.4845 -0.5973 -1.0272
 8827TIP3    H247973   2.750   2.175   0.003 -0.3949  0.3118 -0.4156
 8828TIP3   OH247974   0.865   2.002   1.532 -0.4554 -0.4564 -0.1659
 8828TIP3    H147975   0.816   2.032   1.455 -0.5332 -1.0068 -0.3357
 8828TIP3    H247976   0.797   1.990   1.598 -0.2465  1.3511  0.4487
 8829TIP3   OH247977   0.509   5.651   5.391  0.8298 -0.3883  0.4112
 8829TIP3    H147978   0.521   5.714   5.320 -2.0967 -0.9069 -0.6776
 8829TIP3    H247979   0.497   5.567   5.347 -0.1623 -0.8757  1.5573
 8830TIP3   OH247980   2.503   1.895   0.138  0.1745  0.0445 -0.0240
 8830TIP3    H147981   2.543   1.817   0.177 -0.3885 -0.5087 -0.5125
 8830TIP3    H247982   2.572   1.932   0.084 -0.0437 -1.1179 -1.1617
 8831TIP3   OH247983   1.187   0.641  10.740  0.0428 -0.1153  0.6595
 8831TIP3    H147984   1.232   0.682  10.815 -2.3728  1.8266  1.1736
 8831TIP3    H247985   1.095   0.662  10.753 -0.3817  1.6054 -3.6067
 8832TIP3   OH247986   6.708   5.996   2.535 -0.2838 -0.6199  0.2958
 8832TIP3    H147987   6.673   5.913   2.569 -2.1933 -0.5936 -1.4144
 8832TIP3    H247988   6.714   5.982   2.441 -1.3617  1.4185 -0.1161
 8833TIP3   OH247989   3.634   0.836   6.001 -0.1256 -0.2559 -0.6646
 8833TIP3    H147990   3.543   0.835   6.029  0.1168  0.8990  0.2771
 8833TIP3    H247991   3.684   0.839   6.083  0.7512 -0.7782 -1.1698
 8834TIP3   OH247992   1.614   4.467   3.610 -0.6034  0.1273  0.2299
 8834TIP3    H147993   1.596   4.460   3.517 -1.1932  3.1024  0.0109
 8834TIP3    H247994   1.707   4.488   3.615 -0.8702  1.4236  0.1561
 8835TIP3   OH247995   4.843   6.085   2.996  0.0691 -0.0346 -0.2254
 8835TIP3    H147996   4.771   6.023   3.004 -0.1578  0.2150 -0.3231
 8835TIP3    H247997   4.849   6.103   2.902 -0.7203  1.0902 -0.0759
 8836TIP3   OH247998   1.123   3.122   1.386 -0.0734  0.0086  0.0605
 8836TIP3    H147999   1.060   3.085   1.448 -0.7473  1.5250  0.3302
 8836TIP3    H248000   1.164   3.194   1.434 -1.0132  1.5844 -1.3830
 8837TIP3   OH248001   2.625   2.655   0.190 -0.0388  0.4152 -0.3158
 8837TIP3    H148002   2.692   2.607   0.238 -2.2493 -0.8344  1.7486
 8837TIP3    H248003   2.547   2.599   0.195 -2.1542  3.1826  0.2816
 8838TIP3   OH248004   5.738   1.624   6.158  0.0051  0.6328  0.4479
 8838TIP3    H148005   5.695   1.658   6.237  0.8933  0.1392  1.1638
 8838TIP3    H248006   5.734   1.528   6.168 -1.5028  0.5014 -1.0113
 8839TIP3   OH248007   6.021   2.368  12.080 -0.0226 -0.3624 -0.7107
 8839TIP3    H148008   6.074   2.317  12.141 -0.0530  1.0058  0.5156
 8839TIP3    H248009   5.935   2.373  12.122 -0.3037 -0.1265 -1.3030
 8840TIP3   OH248010   0.303   2.611   0.092 -0.9450 -0.1545  0.2647
 8840TIP3    H148011   0.325   2.640   0.004  1.2570  1.8686  1.3704
 8840TIP3    H248012   0.255   2.529   0.079  1.2360 -1.1271 -2.6940
 8841TIP3   OH248013   4.858   4.103   0.865 -0.2823 -0.4367 -0.4009
 8841TIP3    H148014   4.791   4.160   0.903 -0.7348  0.0022 -1.8245
 8841TIP3    H248015   4.914   4.081   0.939 -1.2667  0.2029  0.5774
 8842TIP3   OH248016   2.462   0.548   0.863  0.0211 -0.2977  0.1419
 8842TIP3    H148017   2.378   0.549   0.817  1.2686  0.3584 -2.2587
 8842TIP3    H248018   2.465   0.631   0.910 -0.4428 -0.0769 -0.2159
 8843TIP3   OH248019   0.463   6.834  13.545  0.0485 -0.2494 -0.7265
 8843TIP3    H148020   0.375   6.806  13.572 -0.2236  0.6150 -0.6943
 8843TIP3    H248021   0.513   6.836  13.626 -0.5370  1.5049 -0.3784
 8844TIP3   OH248022   1.781   0.860  12.446  0.5314 -0.2029  0.2314
 8844TIP3    H148023   1.740   0.932  12.398 -0.5275 -0.5732  0.5606
 8844TIP3    H248024   1.716   0.790  12.445  0.8321 -0.5286  1.4463
 8845TIP3   OH248025   3.794   4.654  13.874  0.4719 -0.2652  0.4631
 8845TIP3    H148026   3.837   4.684  13.794  0.7855 -1.8993 -0.0072
 8845TIP3    H248027   3.865   4.619  13.928 -0.0130 -1.1655  0.5238
 8846TIP3   OH248028   1.948   2.810   5.356 -0.4107  0.2826  0.2819
 8846TIP3    H148029   1.942   2.819   5.451  0.9679  1.8115  0.2620
 8846TIP3    H248030   2.042   2.812   5.338 -0.6460 -0.1843 -1.1034
 8847TIP3   OH248031   3.332   4.235   3.753  0.0693  0.2759 -0.1686
 8847TIP3    H148032   3.258   4.286   3.720  0.1405  0.9650  0.7141
 8847TIP3    H248033   3.310   4.144   3.732 -0.6255  0.5501 -0.6601
 8848TIP3   OH248034   3.864   3.637  15.007  0.3509  0.2700  0.0076
 8848TIP3    H148035   3.774   3.641  14.975  0.8405 -1.9853 -1.9516
 8848TIP3    H248036   3.860   3.578  15.082  0.2302  0.0379 -0.1815
 8849TIP3   OH248037   6.680   3.009  15.938  0.1323  0.4929  0.4542
 8849TIP3    H148038   6.655   3.100  15.924  0.0075  0.5130  0.7968
 8849TIP3    H248039   6.601   2.968  15.973 -0.1682 -0.0157 -0.7714
 8850TIP3   OH248040   4.106   6.234  11.111 -0.0453 -0.2152  0.1053
 8850TIP3    H148041   4.192   6.210  11.076  0.7873  3.1221 -0.4619
 8850TIP3    H248042   4.118   6.235  11.206  0.4323 -0.1977  0.0471
 8851TIP3   OH248043   2.770   5.310   0.377  0.5404 -0.0465  0.1089
 8851TIP3    H148044   2.843   5.253   0.351 -0.8939 -2.6238  1.3598
 8851TIP3    H248045   2.701   5.250   0.404 -2.0834  2.2664 -0.9314
 8852TIP3   OH248046   4.763   1.434  15.223  0.4304  0.1860  0.0738
 8852TIP3    H148047   4.691   1.399  15.275  1.4273  0.5761  1.7946
 8852TIP3    H248048   4.830   1.458  15.287  1.1195  2.1496 -1.2805
 8853TIP3   OH248049   2.155   3.340   2.991 -0.0184 -0.6539 -0.1828
 8853TIP3    H148050   2.105   3.317   2.913  0.4330  1.8866 -1.3101
 8853TIP3    H248051   2.238   3.292   2.982 -0.3847 -1.2090 -0.6848
 8854TIP3   OH248052   2.994   5.878  17.145 -0.1218  0.0684  0.1852
 8854TIP3    H148053   3.055   5.913  17.210 -0.8619  0.8695  0.4575
 8854TIP3    H248054   2.922   5.941  17.143 -0.5138 -0.3992 -0.7899
 8855TIP3   OH248055   2.269   3.119  12.821  0.6511  0.5376 -0.1803
 8855TIP3    H148056   2.358   3.088  12.835  0.0803 -0.8400  0.5583
 8855TIP3    H248057   2.242   3.080  12.738  0.4476  0.2597  0.0142
 8856TIP3   OH248058   1.498   2.892  13.180 -0.0424 -0.2820  0.0435
 8856TIP3    H148059   1.442   2.827  13.223  0.9325 -0.3857  1.2259
 8856TIP3    H248060   1.586   2.871  13.211  0.5047  0.6099 -0.8463
 8857TIP3   OH248061   5.510   2.875  11.693 -0.0824 -0.2524 -0.0379
 8857TIP3    H148062   5.484   2.799  11.641  0.5919  0.3142 -1.2329
 8857TIP3    H248063   5.600   2.893  11.666  0.8707 -0.8721  2.4555
 8858TIP3   OH248064   4.139   1.597  15.597  0.3435  0.3142  0.5510
 8858TIP3    H148065   4.190   1.678  15.592  2.2224 -0.7720  0.9857
 8858TIP3    H248066   4.099   1.589  15.510 -0.5168  2.0494  0.7376
 8859TIP3   OH248067   0.946   5.813  15.305  0.5093  0.0594 -0.1082
 8859TIP3    H148068   0.973   5.788  15.217  0.0139  1.5425 -0.7114
 8859TIP3    H248069   0.954   5.908  15.307 -3.2409  0.5236  0.1100
 8860TIP3   OH248070   5.773   1.323   1.133 -0.6356  0.7202  0.0762
 8860TIP3    H148071   5.856   1.274   1.136 -0.7216  0.5901  0.4513
 8860TIP3    H248072   5.732   1.297   1.051 -0.6366  0.2271  0.2268
 8861TIP3   OH248073   0.302   5.386  15.231  0.2519  0.6729 -0.1102
 8861TIP3    H148074   0.235   5.407  15.165  0.1530 -0.2446 -0.3170
 8861TIP3    H248075   0.256   5.390  15.314 -0.9922 -3.1304 -0.4258
 8862TIP3   OH248076   2.276   0.601   0.458  0.3696  0.0785 -0.8510
 8862TIP3    H148077   2.214   0.582   0.388  1.0627  0.9353 -1.7261
 8862TIP3    H248078   2.249   0.687   0.491  1.0602  0.4400 -1.2168
 8863TIP3   OH248079   1.761   5.107  12.326  0.1949  0.1488 -0.4192
 8863TIP3    H148080   1.683   5.161  12.337  0.3242  0.4904 -1.1135
 8863TIP3    H248081   1.823   5.138  12.393  0.0491  0.4497 -0.4256
 8864TIP3   OH248082   1.468   2.895   3.218  0.0299  0.2168 -0.1211
 8864TIP3    H148083   1.403   2.920   3.284 -0.2010  1.0165 -0.6366
 8864TIP3    H248084   1.467   2.968   3.155  1.6837  0.4180  0.0491
 8865TIP3   OH248085   3.825   3.143  13.613 -0.0458 -0.3531  0.1633
 8865TIP3    H148086   3.810   3.133  13.519  0.2693 -0.1286  0.0879
 8865TIP3    H248087   3.886   3.073  13.636  0.4075 -0.0014  0.0653
 8866TIP3   OH248088   1.674   1.638  12.785  0.3661 -0.1719  0.1810
 8866TIP3    H148089   1.744   1.658  12.722  0.7761 -0.3606  0.5654
 8866TIP3    H248090   1.711   1.664  12.870  0.1435 -0.6858  0.4411
 8867TIP3   OH248091   2.678   3.049   2.908  0.3036 -0.6272  0.2650
 8867TIP3    H148092   2.605   3.072   2.966 -0.1357 -1.0627 -0.1113
 8867TIP3    H248093   2.751   3.032   2.968 -0.3835 -1.9562  0.7617
 8868TIP3   OH248094   1.867   2.925  16.921  0.1243  0.4466  0.1023
 8868TIP3    H148095   1.792   2.945  16.978  1.1567  0.0501  1.6596
 8868TIP3    H248096   1.929   2.996  16.939  0.3863  0.4221 -0.6965
 8869TIP3   OH248097   6.559   5.047  12.679 -0.0773  0.3662  0.0436
 8869TIP3    H148098   6.518   5.080  12.759  0.2266 -0.1014  0.4021
 8869TIP3    H248099   6.500   4.979  12.648 -0.6035  1.0962 -0.5855
 8870TIP3   OH248100   0.608   3.818  16.952 -0.4765 -0.0073  0.4924
 8870TIP3    H148101   0.650   3.845  16.870 -0.9579  1.7004  0.7596
 8870TIP3    H248102   0.677   3.824  17.018 -0.3984 -0.1590  0.4258
 8871TIP3   OH248103   6.406   3.825  11.599  0.6410 -0.5300 -0.0981
 8871TIP3    H148104   6.467   3.798  11.530  0.6526 -0.3857 -0.1437
 8871TIP3    H248105   6.365   3.743  11.628  0.3386 -0.5464 -0.5612
 8872TIP3   OH248106   3.733   0.668  10.561 -0.3612  0.1288  0.8491
 8872TIP3    H148107   3.782   0.715  10.629  1.7106 -2.6340  1.4584
 8872TIP3    H248108   3.670   0.615  10.610 -0.0016 -0.6262  0.5030
 8873TIP3   OH248109   1.907   4.569   1.526  0.1001  0.1919  0.1804
 8873TIP3    H148110   1.945   4.559   1.613 -0.2530 -2.3734  0.1080
 8873TIP3    H248111   1.915   4.483   1.486 -1.0962  0.9267 -1.8057
 8874TIP3   OH248112   1.830   1.564   5.947  0.1439  0.2383  0.0900
 8874TIP3    H148113   1.905   1.510   5.923 -1.0585 -0.9524 -1.1313
 8874TIP3    H248114   1.865   1.653   5.950  1.2853 -0.0786 -2.0566
 8875TIP3   OH248115   0.209   0.154   2.845  0.4019  0.3692  0.3837
 8875TIP3    H148116   0.164   0.150   2.929 -2.1522  0.0831 -0.9034
 8875TIP3    H248117   0.275   0.084   2.850 -0.1444 -0.0749  1.8878
 8876TIP3   OH248118   3.016   3.841   3.430  0.2452 -0.4362  0.4600
 8876TIP3    H148119   2.930   3.878   3.447  0.4217 -0.6517  2.0386
 8876TIP3    H248120   3.003   3.746   3.435  0.4057 -0.4955 -0.2145
 8877TIP3   OH248121   4.027   2.083   2.535 -0.1336  0.4294  0.4687
 8877TIP3    H148122   4.089   2.100   2.464 -2.1622  1.4962 -1.1806
 8877TIP3    H248123   4.045   2.151   2.600  1.7631 -0.5667  1.0576
 8878TIP3   OH248124   5.259   0.557   6.073 -0.8595  0.2962  0.3805
 8878TIP3    H148125   5.283   0.599   5.991 -0.9062  1.3287  0.8827
 8878TIP3    H248126   5.334   0.571   6.130 -1.0883  0.1521  0.7207
 8879TIP3   OH248127   2.195   2.219   0.812 -0.5510  0.3333  0.3355
 8879TIP3    H148128   2.268   2.204   0.871 -1.4641 -0.2074  1.3590
 8879TIP3    H248129   2.153   2.299   0.845 -2.7726 -1.5027  2.2851
 8880TIP3   OH248130   6.772   6.733   2.386  0.7493  0.5033 -0.1586
 8880TIP3    H148131   6.823   6.791   2.442  1.6584  0.4137 -0.8677
 8880TIP3    H248132   6.837   6.693   2.328 -0.0474 -0.1367 -0.6245
 8881TIP3   OH248133   3.814   4.368   4.369 -0.3783 -1.3885  0.3725
 8881TIP3    H148134   3.873   4.315   4.423  0.7805 -1.4185 -0.8808
 8881TIP3    H248135   3.835   4.458   4.393  0.2439 -1.3963 -0.1178
 8882TIP3   OH248136   4.543   5.049   3.955 -0.3336  0.4649  0.0806
 8882TIP3    H148137   4.602   4.974   3.962 -1.8081 -0.8010 -0.5668
 8882TIP3    H248138   4.587   5.109   3.895  1.4268  0.7314  1.5203
 8883TIP3   OH248139   1.839   3.906  13.390 -0.1654 -0.4832  0.2824
 8883TIP3    H148140   1.828   3.989  13.344  1.0833  0.3991  1.4925
 8883TIP3    H248141   1.756   3.860  13.377 -0.8034  0.8600 -0.5860
 8884TIP3   OH248142   4.216   4.079  15.268  0.1736 -0.2299  0.2844
 8884TIP3    H148143   4.213   4.110  15.358 -0.6105 -1.9164  0.8737
 8884TIP3    H248144   4.159   4.139  15.220  0.9453  0.9448  0.8060
 8885TIP3   OH248145   0.114   4.614   0.544  0.2760  0.0961 -0.5104
 8885TIP3    H148146   0.121   4.539   0.604  0.8469 -0.8914 -1.7500
 8885TIP3    H248147   0.108   4.574   0.457 -0.1584  1.4919 -1.1488
 8886TIP3   OH248148   0.492   4.769  14.506 -0.1609 -0.1858 -0.4317
 8886TIP3    H148149   0.487   4.743  14.413  2.9508  1.3644 -1.1740
 8886TIP3    H248150   0.506   4.687  14.552  1.5325 -0.7230 -1.7810
 8887TIP3   OH248151   3.100   4.577  17.124 -0.0176  0.3554  0.1363
 8887TIP3    H148152   3.012   4.610  17.107  0.0641  0.3507 -0.3264
 8887TIP3    H248153   3.087   4.486  17.150 -0.0882 -0.0049 -1.0704
 8888TIP3   OH248154   3.627   6.781  14.383  0.2942 -0.5691 -0.3669
 8888TIP3    H148155   3.630   6.737  14.298  1.8464 -0.0736 -0.6070
 8888TIP3    H248156   3.679   6.861  14.370  0.6764 -0.5633  1.0736
 8889TIP3   OH248157   5.140   4.238   1.793 -0.5358  0.2785  0.2249
 8889TIP3    H148158   5.108   4.149   1.781  0.6601 -0.1067 -0.3587
 8889TIP3    H248159   5.236   4.229   1.789 -0.3367  1.3612  1.8432
 8890TIP3   OH248160   2.935   4.734  13.440  0.3587  0.1132 -0.3941
 8890TIP3    H148161   2.841   4.754  13.449  0.5592  0.7793  0.3803
 8890TIP3    H248162   2.943   4.695  13.354 -0.5695  0.4909 -0.6649
 8891TIP3   OH248163   0.078   6.015  15.613 -0.0140  0.0303 -0.3091
 8891TIP3    H148164  -0.015   6.006  15.634  0.6376 -1.7013  2.2818
 8891TIP3    H248165   0.117   6.050  15.693  1.7234 -0.1962 -1.0276
 8892TIP3   OH248166   2.797   3.015   4.515 -0.3822 -0.6813 -0.1564
 8892TIP3    H148167   2.739   3.075   4.469  1.0434  0.8329 -0.0999
 8892TIP3    H248168   2.801   3.049   4.604 -0.5323 -1.6199  0.2181
 8893TIP3   OH248169   5.370   3.192  15.271 -0.4189  0.3527  0.2485
 8893TIP3    H148170   5.386   3.256  15.202  0.0474 -1.4992 -1.4390
 8893TIP3    H248171   5.285   3.154  15.249 -0.8789  0.6385  1.4616
 8894TIP3   OH248172   2.993   6.389   1.910  0.0345 -0.0350 -0.2231
 8894TIP3    H148173   3.037   6.443   1.844 -0.4534 -1.0732 -1.4535
 8894TIP3    H248174   3.064   6.337   1.949  0.3730  0.8224  0.3266
 8895TIP3   OH248175   2.035   5.333  11.147 -0.2902  0.2265  0.1389
 8895TIP3    H148176   2.106   5.270  11.161  1.6251  2.2974  0.2536
 8895TIP3    H248177   1.991   5.338  11.232 -0.7629 -1.2082  0.0170
 8896TIP3   OH248178   1.089   3.293  14.345  0.0610  0.2474 -0.3227
 8896TIP3    H148179   1.119   3.305  14.434  1.2558 -0.0121 -0.6773
 8896TIP3    H248180   1.095   3.380  14.305 -0.0933  0.2850 -0.2632
 8897TIP3   OH248181   6.789   2.642   3.714 -0.3868  1.1065 -0.1756
 8897TIP3    H148182   6.803   2.688   3.797  0.1150 -0.1044  0.4422
 8897TIP3    H248183   6.699   2.663   3.689 -0.3819  1.8764  0.4202
 8898TIP3   OH248184   2.833   0.375   5.270 -0.0846 -0.4950  0.3468
 8898TIP3    H148185   2.883   0.298   5.295  0.8837  0.8948  3.1340
 8898TIP3    H248186   2.804   0.413   5.353 -1.4933  1.5267 -0.9658
 8899TIP3   OH248187   3.913   0.858   0.802 -0.0066  0.2205 -0.6013
 8899TIP3    H148188   3.970   0.871   0.878 -0.3994  0.1524 -0.2955
 8899TIP3    H248189   3.872   0.944   0.788 -1.8964 -0.3758  0.8526
 8900TIP3   OH248190   6.248   5.256   2.255  0.0562  0.2454  0.1642
 8900TIP3    H148191   6.219   5.225   2.170  0.7575  0.2983 -0.0966
 8900TIP3    H248192   6.219   5.347   2.259 -0.3390  0.1223  0.1572
 8901TIP3   OH248193   2.143   4.568  15.621  0.4331 -0.3774  0.0902
 8901TIP3    H148194   2.171   4.608  15.538  2.1988  0.0132  0.8361
 8901TIP3    H248195   2.110   4.482  15.595  2.4234 -0.9141 -0.9230
 8902TIP3   OH248196   0.980   1.911   4.386 -0.0307  0.1410 -0.1978
 8902TIP3    H148197   0.985   1.877   4.297  0.3878  0.3327 -0.2532
 8902TIP3    H248198   0.930   1.846   4.434 -1.2463  0.5717 -0.8286
 8903TIP3   OH248199   2.361   1.382   3.014  0.1970  0.7959  0.1840
 8903TIP3    H148200   2.345   1.291   2.991  0.0094  0.7795  0.3773
 8903TIP3    H248201   2.315   1.394   3.097  0.2694  1.0503  0.1875
 8904TIP3   OH248202   2.838   6.200  10.756  0.0985  0.1095  0.4270
 8904TIP3    H148203   2.888   6.239  10.684 -1.6498  0.7346 -0.5141
 8904TIP3    H248204   2.757   6.169  10.714 -0.9434  0.4335  2.1161
 8905TIP3   OH248205   0.679   3.723  11.593  0.1622  0.0227 -0.1832
 8905TIP3    H148206   0.601   3.749  11.643  0.6311 -0.5511  0.8748
 8905TIP3    H248207   0.675   3.628  11.592  0.7088  0.0016 -0.3671
 8906TIP3   OH248208   1.362   2.982  15.733  0.3412  0.1021  0.2618
 8906TIP3    H148209   1.437   2.968  15.675  0.6916  1.9291  0.2183
 8906TIP3    H248210   1.371   3.072  15.763 -1.7067  0.2963  0.4599
 8907TIP3   OH248211   4.409   4.587  11.459 -0.3115  0.5727 -0.1111
 8907TIP3    H148212   4.401   4.551  11.547 -1.0361  1.1219  0.0576
 8907TIP3    H248213   4.489   4.640  11.462 -1.3195  2.1182  0.7921
 8908TIP3   OH248214   4.263   2.353  17.089  0.3149  0.2934 -0.2839
 8908TIP3    H148215   4.290   2.343  17.181 -1.4498 -2.3604  0.0529
 8908TIP3    H248216   4.212   2.434  17.088 -0.5000 -0.1546  1.3374
 8909TIP3   OH248217   5.558   1.660  13.581  0.4546 -0.1333  0.1144
 8909TIP3    H148218   5.574   1.670  13.487  0.3722  0.7361  0.1874
 8909TIP3    H248219   5.646   1.661  13.620  0.4288  1.0147  0.1756
 8910TIP3   OH248220   4.701   0.927   2.506 -0.2618  0.2436  0.1521
 8910TIP3    H148221   4.730   0.865   2.439 -1.0720  1.4589 -1.3906
 8910TIP3    H248222   4.645   0.874   2.563 -0.4384 -0.6013 -0.7576
 8911TIP3   OH248223   0.872   5.382  11.400 -0.3304  0.3947 -0.0512
 8911TIP3    H148224   0.878   5.349  11.310 -0.2399 -0.0565  0.1203
 8911TIP3    H248225   0.897   5.474  11.393 -0.2828  0.3513 -0.4838
 8912TIP3   OH248226   4.711   6.014   6.087  0.4596 -0.2789  0.0049
 8912TIP3    H148227   4.697   5.943   6.150  0.5974 -0.4836 -0.1921
 8912TIP3    H248228   4.651   5.995   6.015 -1.1411  1.0255  0.9328
 8913TIP3   OH248229   6.254   6.359  12.068 -0.1803 -0.5956  0.3652
 8913TIP3    H148230   6.179   6.350  12.010 -0.2591 -0.1444  0.3942
 8913TIP3    H248231   6.308   6.282  12.049 -0.2940 -0.5472 -0.1735
 8914TIP3   OH248232   2.509   2.012  15.715 -0.2486 -0.4026 -0.2752
 8914TIP3    H148233   2.508   1.917  15.705  0.4121 -0.3313 -1.1489
 8914TIP3    H248234   2.573   2.029  15.784 -0.3828 -0.5974 -0.1055
 8915TIP3   OH248235   2.087   4.230  14.683  0.2857  1.2626 -0.1266
 8915TIP3    H148236   2.014   4.199  14.629  1.8358  1.3080 -2.4013
 8915TIP3    H248237   2.046   4.279  14.754 -1.9374 -0.2465 -0.2653
 8916TIP3   OH248238   4.815   6.583   0.169 -0.4328 -0.6209  0.4459
 8916TIP3    H148239   4.753   6.511   0.153  1.7172 -2.6866  0.9579
 8916TIP3    H248240   4.800   6.608   0.260 -0.8465 -0.7335  0.4115
 8917TIP3   OH248241   5.527   1.005   6.435  0.0125 -0.5770  0.2787
 8917TIP3    H148242   5.446   1.038   6.474 -1.0378  0.9278 -2.8376
 8917TIP3    H248243   5.589   1.077   6.446  0.2274 -0.7998  0.5577
 8918TIP3   OH248244   1.277   3.701   3.504 -0.6355  0.0623 -0.3679
 8918TIP3    H148245   1.319   3.724   3.587 -0.7013  1.9336 -0.8097
 8918TIP3    H248246   1.184   3.717   3.518 -0.6936  0.0099 -0.6872
 8919TIP3   OH248247   3.671   3.804   3.290 -0.5713 -0.2709  0.0476
 8919TIP3    H148248   3.676   3.830   3.198  0.9022  3.2322  0.9442
 8919TIP3    H248249   3.738   3.737   3.300  0.3991  0.4603 -1.1644
 8920TIP3   OH248250   2.874   5.055   2.561 -0.3159  0.2625 -0.0309
 8920TIP3    H148251   2.852   4.984   2.501 -0.6214 -0.7872  1.2691
 8920TIP3    H248252   2.859   5.135   2.511 -2.0811 -0.5421 -0.8756
 8921TIP3   OH248253   0.970   0.514   5.823  0.0038  0.3678  0.0758
 8921TIP3    H148254   1.042   0.556   5.870  0.2505 -0.1331  0.1482
 8921TIP3    H248255   1.009   0.436   5.783 -0.4290  0.2532 -0.1323
 8922TIP3   OH248256   4.835   0.539   2.071  0.8934  0.3555  0.5001
 8922TIP3    H148257   4.926   0.510   2.058  1.3306  2.2533 -1.3392
 8922TIP3    H248258   4.786   0.459   2.087  2.6522 -0.8974 -0.1017
 8923TIP3   OH248259   4.268   5.616  10.668 -0.2126 -0.3639  0.1001
 8923TIP3    H148260   4.322   5.599  10.745  0.5009 -0.0090 -0.3119
 8923TIP3    H248261   4.299   5.701  10.635 -0.2835 -0.6586 -0.7527
 8924TIP3   OH248262   5.691   3.450   0.527 -0.1026 -0.4644 -0.0397
 8924TIP3    H148263   5.628   3.471   0.596  0.4090 -1.3440  0.7257
 8924TIP3    H248264   5.761   3.404   0.573 -0.3985 -2.3053 -1.3261
 8925TIP3   OH248265   4.967   1.181   5.926 -0.5084  0.2315  0.1595
 8925TIP3    H148266   4.977   1.134   6.008  1.3193 -1.6936 -1.0769
 8925TIP3    H248267   5.045   1.158   5.875 -2.9078 -1.1522 -3.2871
 8926TIP3   OH248268   3.995   2.474   0.270  0.3607 -1.0285  0.1831
 8926TIP3    H148269   3.952   2.394   0.301  1.0867 -1.7210 -0.5323
 8926TIP3    H248270   3.944   2.545   0.309 -2.0989 -1.7615 -1.4617
 8927TIP3   OH248271   2.789   6.125  13.007  0.1300 -0.8852 -0.2328
 8927TIP3    H148272   2.846   6.166  13.071 -1.0733  2.7507 -1.2641
 8927TIP3    H248273   2.849   6.074  12.951  1.8907  0.1869  0.5936
 8928TIP3   OH248274   5.593   3.111   4.324 -0.0365 -0.3909  0.5507
 8928TIP3    H148275   5.613   3.182   4.386 -0.0966 -0.3307  0.5007
 8928TIP3    H248276   5.660   3.044   4.342  0.9112  0.2743 -0.3765
 8929TIP3   OH248277   5.206   4.738   4.178 -0.7191  0.1605  0.2352
 8929TIP3    H148278   5.259   4.671   4.135  0.8018  0.4722  1.5211
 8929TIP3    H248279   5.136   4.757   4.116  0.8311 -0.0841 -1.6870
 8930TIP3   OH248280   3.787   6.729  16.065 -0.3216 -0.1031  0.8036
 8930TIP3    H148281   3.881   6.712  16.066 -0.2465 -0.4606 -2.2562
 8930TIP3    H248282   3.779   6.818  16.031 -1.0768 -0.6406 -0.5128
 8931TIP3   OH248283   3.355   5.893   0.301  0.3128 -0.2214  0.0412
 8931TIP3    H148284   3.383   5.965   0.358  2.9496 -1.6552  0.7477
 8931TIP3    H248285   3.356   5.816   0.358 -0.2338 -1.1840 -1.2020
 8932TIP3   OH248286   3.577   1.432  10.757  0.3063 -0.3173 -0.2398
 8932TIP3    H148287   3.520   1.383  10.816 -0.1173  0.9387  0.4501
 8932TIP3    H248288   3.649   1.461  10.813 -0.7055  1.9105  0.0110
 8933TIP3   OH248289   4.917   2.416   4.794 -0.5280  0.6177  0.4667
 8933TIP3    H148290   4.982   2.348   4.774 -0.1197  1.4436 -1.2319
 8933TIP3    H248291   4.963   2.478   4.850 -1.0705 -0.7388  2.4973
 8934TIP3   OH248292   6.340   4.138   2.296 -0.0237  0.0774 -0.3748
 8934TIP3    H148293   6.399   4.172   2.364  1.6994 -0.6847 -1.4329
 8934TIP3    H248294   6.375   4.172   2.214 -0.9884 -0.5252 -1.0546
 8935TIP3   OH248295   0.176   4.325  12.904 -0.0442  0.1568  0.0504
 8935TIP3    H148296   0.247   4.296  12.962 -0.1731 -0.5716 -0.1409
 8935TIP3    H248297   0.219   4.344  12.821  0.1197  1.0623  0.3307
 8936TIP3   OH248298   0.288   0.432   3.342  0.2138 -0.1482 -0.1889
 8936TIP3    H148299   0.293   0.526   3.361 -0.9790 -0.0403 -0.3209
 8936TIP3    H248300   0.370   0.412   3.297  1.1703  0.4916  1.1974
 8937TIP3   OH248301   3.577   4.503  11.038  0.0016 -0.5795  0.7516
 8937TIP3    H148302   3.514   4.556  10.990 -0.2842 -0.6535  1.0362
 8937TIP3    H248303   3.527   4.467  11.112  0.0741 -1.6057  0.3157
 8938TIP3   OH248304   3.689   0.551  11.028 -0.1873  0.3309  0.1776
 8938TIP3    H148305   3.645   0.613  10.970 -0.6127  0.3693  0.5267
 8938TIP3    H248306   3.631   0.546  11.105 -0.1499 -0.4837  0.1613
 8939TIP3   OH248307   6.721   2.466  13.849  0.1658 -0.3343 -0.4149
 8939TIP3    H148308   6.705   2.551  13.808 -1.6941 -0.5602 -0.2771
 8939TIP3    H248309   6.702   2.481  13.942 -0.9914 -1.0447 -0.5079
 8940TIP3   OH248310   0.272   2.734   6.084  0.3649 -0.4181  0.0594
 8940TIP3    H148311   0.215   2.690   6.148 -0.3329 -2.5095 -1.8765
 8940TIP3    H248312   0.219   2.805   6.049  0.2263 -0.1775  0.7428
 8941TIP3   OH248313   4.489   0.716  13.840 -0.1762  1.0613 -0.1562
 8941TIP3    H148314   4.567   0.724  13.785  1.7925  0.3878  2.3672
 8941TIP3    H248315   4.492   0.792  13.897 -1.3564  0.9787  0.0405
 8942TIP3   OH248316   4.654   0.102  13.839 -0.0107 -0.1192  0.4723
 8942TIP3    H148317   4.664   0.173  13.776  0.2665 -0.3667  0.2346
 8942TIP3    H248318   4.729   0.111  13.897 -0.2177  0.0543  0.7151
 8943TIP3   OH248319   1.347   5.815   5.181 -0.8507  0.3800 -0.0601
 8943TIP3    H148320   1.321   5.888   5.236 -0.1386  0.1559  0.5950
 8943TIP3    H248321   1.300   5.740   5.218 -0.9277  0.3598 -0.2011
 8944TIP3   OH248322   4.345   4.899  14.471  0.0483  0.7701  1.1672
 8944TIP3    H148323   4.279   4.870  14.534  0.9604 -0.2344  1.7163
 8944TIP3    H248324   4.389   4.972  14.514  0.2203  0.5236  1.4154
 8945TIP3   OH248325   1.963   6.444   2.735 -0.0635 -0.3843 -1.1737
 8945TIP3    H148326   2.007   6.505   2.794 -1.4778  1.7861 -2.2313
 8945TIP3    H248327   2.027   6.375   2.719  1.0084 -0.0939  1.4086
 8946TIP3   OH248328   6.250   3.633  11.621 -0.2218 -0.0286 -0.0473
 8946TIP3    H148329   6.208   3.599  11.542 -1.2896  0.3270  0.3391
 8946TIP3    H248330   6.200   3.595  11.693 -1.4284  2.2098  0.4051
 8947TIP3   OH248331   0.601   3.415  13.380 -0.5772 -0.0997  0.7312
 8947TIP3    H148332   0.606   3.404  13.475 -0.5506  0.3500  0.7837
 8947TIP3    H248333   0.522   3.367  13.354  0.1147 -1.3203  0.8051
 8948TIP3   OH248334   2.529   0.691  11.456  0.4264 -0.2846  0.0341
 8948TIP3    H148335   2.477   0.611  11.455 -0.7515  0.4170 -2.1534
 8948TIP3    H248336   2.620   0.661  11.453  0.1039 -1.5100  1.5976
 8949TIP3   OH248337   4.126   3.297  12.307  0.6460  0.1803  0.3842
 8949TIP3    H148338   4.219   3.319  12.310  0.5324  0.5358  2.0948
 8949TIP3    H248339   4.107   3.260  12.393 -0.6594 -0.5366 -0.1772
 8950TIP3   OH248340   5.679   6.780  14.910  0.2287 -0.2867 -0.2000
 8950TIP3    H148341   5.715   6.726  14.981  0.4850 -0.6223 -0.5811
 8950TIP3    H248342   5.746   6.778  14.842 -0.4602 -0.8296 -0.8747
 8951TIP3   OH248343   5.310   5.401   3.162  0.0349  0.1790  1.0302
 8951TIP3    H148344   5.285   5.311   3.184 -1.6045  0.3869  0.1412
 8951TIP3    H248345   5.322   5.399   3.067  0.8394  0.7176  1.1148
 8952TIP3   OH248346   1.031   5.716   0.043 -0.2146  0.0755 -0.1682
 8952TIP3    H148347   1.062   5.628   0.020 -0.7492 -0.0913 -0.2816
 8952TIP3    H248348   0.947   5.701   0.087 -0.9256  0.5887 -1.2923
 8953TIP3   OH248349   5.763   2.679   3.279 -0.1532  0.2187 -0.2061
 8953TIP3    H148350   5.668   2.671   3.268 -0.3226 -0.3912  1.3732
 8953TIP3    H248351   5.793   2.588   3.285  0.7929  0.3340 -2.3131
 8954TIP3   OH248352   5.716   2.958  15.500  0.7862 -0.0314 -0.5800
 8954TIP3    H148353   5.641   3.016  15.504  0.4197 -0.5153 -0.3285
 8954TIP3    H248354   5.789   3.010  15.534  0.0879 -0.3072  1.4823
 8955TIP3   OH248355   4.954   5.677  15.688 -0.2377  0.3798  0.3100
 8955TIP3    H148356   5.013   5.664  15.763  1.3426 -1.1239 -1.0959
 8955TIP3    H248357   4.878   5.623  15.708  1.7213 -3.0557 -0.6445
 8956TIP3   OH248358   1.133   3.415  15.242  0.2033  0.2155 -1.0864
 8956TIP3    H148359   1.114   3.384  15.331  0.8124  1.3002 -0.5591
 8956TIP3    H248360   1.066   3.482  15.226  1.3717  1.5383 -0.5957
 8957TIP3   OH248361   4.195   0.584   4.364 -0.2909  0.3453  0.3553
 8957TIP3    H148362   4.229   0.512   4.418  0.0415 -0.8063 -1.3254
 8957TIP3    H248363   4.254   0.589   4.290 -0.8930  1.7159 -0.0638
 8958TIP3   OH248364   5.909   3.014   4.226 -0.4789  0.3036 -0.0699
 8958TIP3    H148365   5.989   3.040   4.270 -0.3268 -0.5771  0.1984
 8958TIP3    H248366   5.849   2.991   4.297 -1.2171  1.6178 -0.2419
 8959TIP3   OH248367   4.167   3.728   6.337  0.5561  0.2854  0.3918
 8959TIP3    H148368   4.123   3.645   6.358 -0.0842  0.6615  0.5600
 8959TIP3    H248369   4.219   3.747   6.415  1.5427 -0.4859 -0.0564
 8960TIP3   OH248370   3.015   0.311   4.936 -0.0069  0.7724 -0.5854
 8960TIP3    H148371   2.961   0.253   4.882  0.2425 -0.3391  0.3429
 8960TIP3    H248372   3.015   0.394   4.887 -0.9907  0.2416 -1.5501
 8961TIP3   OH248373   5.794   3.188   5.058 -1.0469  0.3211 -0.0967
 8961TIP3    H148374   5.874   3.240   5.055 -1.8510  1.7041  1.0741
 8961TIP3    H248375   5.812   3.120   5.124 -0.2555 -0.4596 -1.0949
 8962TIP3   OH248376   6.071   2.837   1.358  0.1959  0.1231 -0.2923
 8962TIP3    H148377   6.074   2.763   1.418 -0.4075  0.9001  0.7194
 8962TIP3    H248378   6.028   2.907   1.407  1.6263  1.4763 -0.8675
 8963TIP3   OH248379   2.667   0.615   0.060 -0.2676 -0.2231 -0.3098
 8963TIP3    H148380   2.610   0.656   0.126 -0.3336 -0.2338 -0.3597
 8963TIP3    H248381   2.614   0.614  -0.020 -0.6654 -1.3695 -0.0507
 8964TIP3   OH248382   6.229   0.864  13.868 -0.0757 -0.0058  0.7346
 8964TIP3    H148383   6.226   0.935  13.803 -0.9159  0.1120  0.8868
 8964TIP3    H248384   6.322   0.853  13.887  0.1478  0.3403 -0.0741
 8965TIP3   OH248385   4.436   1.171   0.771 -0.0176 -0.5808  0.0417
 8965TIP3    H148386   4.519   1.127   0.750 -0.1844 -1.2854  0.8161
 8965TIP3    H248387   4.373   1.100   0.779 -0.5444 -0.0994  0.1856
 8966TIP3   OH248388   3.533   3.447  15.152 -0.6083  0.3310 -0.3197
 8966TIP3    H148389   3.511   3.397  15.073 -0.3994  1.4174 -1.0848
 8966TIP3    H248390   3.488   3.531  15.140  1.9341  1.7351 -0.8196
 8967TIP3   OH248391   3.714   5.449   0.961  0.2917 -0.1106 -0.0783
 8967TIP3    H148392   3.755   5.497   1.032  0.6633 -0.4927 -0.0310
 8967TIP3    H248393   3.647   5.508   0.928  1.7984  1.1077 -1.0884
 8968TIP3   OH248394   0.153   5.050  16.777  0.5692  0.1674 -0.4401
 8968TIP3    H148395   0.100   5.075  16.702  0.1897  1.5403  0.2369
 8968TIP3    H248396   0.165   5.132  16.826  0.5371 -0.7279  1.1435
 8969TIP3   OH248397   6.092   1.033  14.146 -0.1569 -0.0698  0.5013
 8969TIP3    H148398   6.086   1.037  14.051  0.9387 -1.3394  0.3292
 8969TIP3    H248399   6.135   1.115  14.171  1.5412 -0.6430 -0.3547
 8970TIP3   OH248400   2.839   0.161   5.841  0.3436 -0.1411 -0.1112
 8970TIP3    H148401   2.811   0.160   5.933 -1.6021  0.5427 -0.6485
 8970TIP3    H248402   2.933   0.180   5.845  0.0170  1.4536  1.7198
 8971TIP3   OH248403   0.907   4.379   5.928  0.0057 -0.3429  0.0329
 8971TIP3    H148404   0.876   4.312   5.988 -2.0370  0.3712 -0.1611
 8971TIP3    H248405   0.858   4.458   5.952  0.6104  0.4706 -1.2695
 8972TIP3   OH248406   2.896   3.972   5.258  0.2137 -0.3716  0.2284
 8972TIP3    H148407   2.844   3.893   5.241  0.8109 -0.7738  0.2415
 8972TIP3    H248408   2.869   4.000   5.345 -0.8694  0.1290 -0.2543
 8973TIP3   OH248409   0.739   2.059   5.421 -0.0137  0.4104 -0.0293
 8973TIP3    H148410   0.762   2.057   5.328  0.1387 -0.9206  0.0191
 8973TIP3    H248411   0.737   2.152   5.443  2.8508  0.7032 -0.6549
 8974TIP3   OH248412   2.362   0.949   2.184 -0.2916  0.2770  0.0663
 8974TIP3    H148413   2.419   0.896   2.128 -1.3847 -1.1639  0.2631
 8974TIP3    H248414   2.413   1.027   2.204  1.4195 -0.7564 -0.1362
 8975TIP3   OH248415   0.688   6.655   0.082 -0.5023 -0.1203 -0.0980
 8975TIP3    H148416   0.606   6.641   0.130 -1.1779  0.4982 -1.0246
 8975TIP3    H248417   0.691   6.584   0.018 -0.5752  0.1507 -0.4033
 8976TIP3   OH248418   0.706   3.548  13.178 -0.0359 -0.5613 -0.2164
 8976TIP3    H148419   0.657   3.501  13.246 -0.0552  0.4675  0.4939
 8976TIP3    H248420   0.645   3.612  13.143  0.2308 -0.5306 -0.6401
 8977TIP3   OH248421   2.987   5.668  13.818 -0.1203 -0.4543 -0.2192
 8977TIP3    H148422   2.965   5.575  13.817  1.8091 -0.9521 -1.2917
 8977TIP3    H248423   3.082   5.670  13.832 -0.2780  1.4141  0.9015
 8978TIP3   OH248424   4.158   4.870  15.658 -0.3238 -0.0756 -0.2643
 8978TIP3    H148425   4.081   4.927  15.661 -0.4843 -0.3438  1.5551
 8978TIP3    H248426   4.212   4.897  15.732  0.6875 -0.7894 -0.7104
 8979TIP3   OH248427   3.943   0.461   5.687  0.7301 -0.0534  0.2871
 8979TIP3    H148428   3.854   0.489   5.707  0.0085 -2.1510  0.3088
 8979TIP3    H248429   3.997   0.538   5.705 -0.9040  0.8555  1.6377
 8980TIP3   OH248430   6.371   4.687  13.463 -0.6570  0.3748 -0.3611
 8980TIP3    H148431   6.428   4.643  13.527  0.0606  0.1472 -1.1477
 8980TIP3    H248432   6.346   4.769  13.506 -1.0505 -0.2434  0.6434
 8981TIP3   OH248433   5.207   5.184  11.830  0.5514  0.5463  0.5848
 8981TIP3    H148434   5.270   5.225  11.890  2.2335  0.8746 -1.3302
 8981TIP3    H248435   5.185   5.253  11.768 -0.7795  0.0600  0.4923
 8982TIP3   OH248436   5.799   1.374  13.207 -0.6936  0.6067  0.0035
 8982TIP3    H148437   5.811   1.464  13.177 -1.9734  0.9790  0.5563
 8982TIP3    H248438   5.706   1.355  13.193  0.1203 -1.8366 -3.3255
 8983TIP3   OH248439   6.641   6.781   5.069 -0.0050  0.3128  0.1802
 8983TIP3    H148440   6.670   6.839   4.999  2.3176  0.1402  0.9261
 8983TIP3    H248441   6.721   6.738   5.101 -1.3191 -1.5618  1.2161
 8984TIP3   OH248442   2.041   4.678   2.249  0.8466  0.1369  0.6314
 8984TIP3    H148443   2.105   4.609   2.232  1.0394  0.6327 -0.7873
 8984TIP3    H248444   2.093   4.755   2.270  0.6759  0.1669  0.9438
 8985TIP3   OH248445   4.132   3.754  13.353  0.3952 -0.5096  0.2410
 8985TIP3    H148446   4.117   3.662  13.378 -1.8220 -0.6391 -1.2489
 8985TIP3    H248447   4.124   3.755  13.258  0.6474  1.2038  0.2061
 8986TIP3   OH248448   0.359   6.158   0.377  0.2275 -0.6137  0.9441
 8986TIP3    H148449   0.361   6.131   0.286  0.7039 -0.9455  1.0495
 8986TIP3    H248450   0.445   6.134   0.412  1.0034  1.8290  0.8485
 8987TIP3   OH248451   6.610   0.156  14.794 -0.4799 -0.0574 -0.2839
 8987TIP3    H148452   6.535   0.103  14.821 -1.5987  2.1718  1.2914
 8987TIP3    H248453   6.680   0.132  14.854  0.2420 -2.2338 -1.8339
 8988TIP3   OH248454   3.004   6.370  12.683 -0.1225 -0.4521 -0.1449
 8988TIP3    H148455   3.037   6.390  12.771  1.3090 -1.2337 -0.4857
 8988TIP3    H248456   2.955   6.288  12.694 -1.8411  0.5849  0.3133
 8989TIP3   OH248457   3.827   2.787  14.126  0.2669  0.1177  0.5021
 8989TIP3    H148458   3.786   2.824  14.048  1.0591 -0.4605 -0.2041
 8989TIP3    H248459   3.779   2.705  14.142  0.8002 -0.3095 -0.0325
 8990TIP3   OH248460   0.693   5.426  13.804  0.3860 -0.5370  0.1171
 8990TIP3    H148461   0.775   5.418  13.852  0.6570 -1.7180 -0.5362
 8990TIP3    H248462   0.636   5.360  13.843 -0.0573 -0.1461  0.1435
 8991TIP3   OH248463   2.271   0.134  11.971 -0.1884 -0.1548  1.0823
 8991TIP3    H148464   2.274   0.110  11.878  1.4370  1.9749  0.5184
 8991TIP3    H248465   2.361   0.125  12.000  0.1919  3.2166  1.2930
 8992TIP3   OH248466   4.158   6.208  12.054  0.2088 -0.4717 -0.3677
 8992TIP3    H148467   4.217   6.192  12.128 -0.5151 -1.7787 -0.0397
 8992TIP3    H248468   4.156   6.126  12.006 -0.2567 -0.0061 -1.1748
 8993TIP3   OH248469   0.906   5.637   3.239 -0.2508 -0.5873 -0.1556
 8993TIP3    H148470   0.923   5.688   3.318 -0.5482 -0.2337 -0.3139
 8993TIP3    H248471   0.978   5.660   3.180 -1.1321  0.7398 -0.7455
 8994TIP3   OH248472   4.922   2.348  12.158 -0.4661 -0.2212  0.3926
 8994TIP3    H148473   4.870   2.408  12.211 -2.3286 -2.0641  0.7860
 8994TIP3    H248474   5.003   2.336  12.208 -1.2076 -0.1269  1.6523
 8995TIP3   OH248475   2.306   4.193  15.786 -0.5856  0.0691 -0.0034
 8995TIP3    H148476   2.273   4.119  15.735 -1.8878  0.7625 -0.2093
 8995TIP3    H248477   2.360   4.241  15.724  0.0457 -0.5510  0.0528
 8996TIP3   OH248478   2.646   6.045   0.099 -0.5083  0.2207 -0.5641
 8996TIP3    H148479   2.561   6.037   0.142 -0.1230 -1.3688 -0.0632
 8996TIP3    H248480   2.671   5.956   0.077  0.1504  0.8183 -2.4710
 8997TIP3   OH248481   5.533   5.672  14.282  0.2169 -0.4950  0.1301
 8997TIP3    H148482   5.595   5.741  14.306 -0.3546  0.6878 -1.5910
 8997TIP3    H248483   5.465   5.718  14.233 -0.8597 -2.1181  0.0477
 8998TIP3   OH248484   4.479   2.925  15.115 -0.1984 -0.2430  0.0183
 8998TIP3    H148485   4.488   2.855  15.179 -1.2863  1.0329  1.6448
 8998TIP3    H248486   4.538   2.994  15.145  0.1451 -0.0602 -1.0264
 8999TIP3   OH248487   3.910   3.968  15.912  0.6891  0.4612  0.3971
 8999TIP3    H148488   3.898   3.876  15.889  0.9397  1.2252 -3.6847
 8999TIP3    H248489   3.823   4.007  15.902  0.9661  0.9990  0.0263
 9000TIP3   OH248490   4.628   2.807   1.938  0.1276 -0.1464 -0.4428
 9000TIP3    H148491   4.715   2.784   1.973  0.3106  0.5608 -0.4290
 9000TIP3    H248492   4.642   2.888   1.890 -0.5005 -0.1215 -0.5882
 9001TIP3   OH248493   3.611   2.725   2.754 -0.0563 -0.6097 -0.2317
 9001TIP3    H148494   3.688   2.764   2.713 -0.0015 -0.7132 -0.2292
 9001TIP3    H248495   3.547   2.796   2.760 -0.0240 -0.5668 -0.3941
 9002TIP3   OH248496   0.491   2.299   1.145 -0.4043 -0.2460 -0.5789
 9002TIP3    H148497   0.498   2.260   1.232 -0.9702  2.0176  0.5567
 9002TIP3    H248498   0.579   2.288   1.107 -0.0000 -0.8070  0.4720
 9003TIP3   OH248499   5.052   2.760   5.706 -0.2965  0.1287 -0.0113
 9003TIP3    H148500   5.011   2.678   5.680  0.0016 -0.1496  0.4055
 9003TIP3    H248501   4.979   2.815   5.736 -0.5687  0.2351 -0.8415
 9004TIP3   OH248502   3.162   0.363  11.061 -0.0724 -0.4239 -0.0248
 9004TIP3    H148503   3.164   0.421  11.138 -0.7994 -0.7763  0.2700
 9004TIP3    H248504   3.174   0.275  11.097  1.0640 -0.4697 -0.4764
 9005TIP3   OH248505   0.366   5.072   2.935 -0.5542 -0.5491  0.0863
 9005TIP3    H148506   0.386   5.020   3.012 -0.5823  0.4546  0.7838
 9005TIP3    H248507   0.405   5.022   2.862 -1.6179 -2.1481  0.5563
 9006TIP3   OH248508   4.271   4.816  12.682 -0.3779  0.0425 -0.0434
 9006TIP3    H148509   4.293   4.847  12.770 -2.4442 -1.7410  1.1898
 9006TIP3    H248510   4.185   4.855  12.663 -0.2041 -0.0353 -1.0581
 9007TIP3   OH248511   3.046   4.970   4.574 -0.5095 -0.4630 -0.5048
 9007TIP3    H148512   2.963   4.942   4.612  0.3915 -0.3766  1.6530
 9007TIP3    H248513   3.110   4.907   4.608  0.3598 -0.5134 -2.1000
 9008TIP3   OH248514   3.687   5.274  16.462  0.0524 -0.0141 -0.9935
 9008TIP3    H148515   3.714   5.188  16.428 -1.0851 -0.8659  0.1487
 9008TIP3    H248516   3.751   5.335  16.426  0.5166 -1.2386 -2.3822
 9009TIP3   OH248517   6.146   0.482  13.205 -0.9237 -0.3322  0.1567
 9009TIP3    H148518   6.062   0.458  13.165 -1.5179  2.4041 -0.4926
 9009TIP3    H248519   6.180   0.552  13.148  1.6604 -1.1382  0.5981
 9010TIP3   OH248520   1.349   3.024  14.505 -0.4781 -0.4392 -0.0993
 9010TIP3    H148521   1.377   2.932  14.504  1.0092 -0.0117  0.7241
 9010TIP3    H248522   1.260   3.021  14.541 -0.2032 -1.5036  0.5358
 9011TIP3   OH248523   3.728   1.782   6.599 -0.0241 -0.3688 -0.0352
 9011TIP3    H148524   3.808   1.741   6.565  1.5134  0.1898  2.6056
 9011TIP3    H248525   3.758   1.863   6.639 -2.3536  1.1627 -1.2079
 9012TIP3   OH248526   3.075   0.083   6.356  0.2175  0.6299 -0.0505
 9012TIP3    H148527   3.111   0.001   6.321 -0.2212  0.6812 -0.6463
 9012TIP3    H248528   3.113   0.151   6.300  1.6160  0.9785  1.2501
 9013TIP3   OH248529   0.234   3.533   4.331  0.0976  0.7482 -0.3786
 9013TIP3    H148530   0.138   3.532   4.332 -0.0168  1.0493 -2.8719
 9013TIP3    H248531   0.258   3.617   4.369 -0.6327  0.6986  0.2096
 9014TIP3   OH248532   6.522   3.724  15.518 -0.4439  0.1060 -0.3453
 9014TIP3    H148533   6.559   3.704  15.432  1.5181  0.5184  0.3391
 9014TIP3    H248534   6.533   3.643  15.568 -0.5906  0.1959 -0.1666
 9015TIP3   OH248535   4.952   5.141   2.560 -0.0815  0.1044  0.4308
 9015TIP3    H148536   5.028   5.165   2.508  0.2527 -0.1533  0.7977
 9015TIP3    H248537   4.927   5.221   2.605  1.3334 -0.2993  2.0440
 9016TIP3   OH248538   4.424   6.107  12.919 -0.2522 -0.4778  0.9793
 9016TIP3    H148539   4.452   6.103  13.011 -1.3556 -0.8678  1.3039
 9016TIP3    H248540   4.332   6.131  12.923 -1.0215 -3.0230  0.0978
 9017TIP3   OH248541   6.410   2.499  16.562 -0.5899  0.4279  0.1406
 9017TIP3    H148542   6.325   2.461  16.584 -0.5597  1.3603  2.0905
 9017TIP3    H248543   6.473   2.430  16.578 -0.8840  0.0119 -0.4526
 9018TIP3   OH248544   6.329   6.775   3.369 -0.3366  0.5081  0.2809
 9018TIP3    H148545   6.405   6.818   3.331 -1.0201  0.5410 -1.1508
 9018TIP3    H248546   6.254   6.827   3.339 -0.9704  0.0751  1.0589
 9019TIP3   OH248547   0.455   0.973   1.210 -0.5685 -0.8540 -0.4376
 9019TIP3    H148548   0.494   0.894   1.174 -0.6182 -0.8267 -0.5502
 9019TIP3    H248549   0.395   0.941   1.278  1.9003 -0.7985  1.9640
 9020TIP3   OH248550   3.200   4.120   1.156 -0.0319  0.7410 -0.2694
 9020TIP3    H148551   3.291   4.108   1.130 -0.4380  1.6593 -2.2825
 9020TIP3    H248552   3.205   4.158   1.244  1.5063  0.8439 -0.3752
 9021TIP3   OH248553   6.024   0.231   1.956 -0.2904 -0.0280 -0.2575
 9021TIP3    H148554   5.981   0.306   1.916  2.0465  0.8190 -1.3484
 9021TIP3    H248555   6.067   0.266   2.034 -0.0707 -0.4715 -0.1738
 9022TIP3   OH248556   1.227   5.001   1.937 -0.2275  0.0358  0.4685
 9022TIP3    H148557   1.312   4.981   1.977 -0.4713 -0.1284  0.9142
 9022TIP3    H248558   1.166   5.006   2.011 -0.2273  2.2353  0.3863
 9023TIP3   OH248559   2.374   5.327  15.667  0.7132  0.0545 -0.1354
 9023TIP3    H148560   2.432   5.353  15.739  0.7339  0.4463 -0.2914
 9023TIP3    H248561   2.361   5.407  15.617  0.3328 -0.1165 -0.3131
 9024TIP3   OH248562   3.132   2.099  13.040  0.1838 -0.1309  0.9115
 9024TIP3    H148563   3.059   2.039  13.023  0.1889  0.0842  0.0665
 9024TIP3    H248564   3.210   2.047  13.024  0.2005  0.5679 -1.8354
 9025TIP3   OH248565   4.047   1.061   5.777  0.3858  0.1439  0.2880
 9025TIP3    H148566   3.993   1.087   5.703  0.5211 -0.4452 -0.0233
 9025TIP3    H248567   4.111   1.000   5.740  0.4766 -0.1294  0.8840
 9026TIP3   OH248568   4.569   4.683   1.697 -0.2139  0.1870  0.8627
 9026TIP3    H148569   4.631   4.629   1.647 -2.2160 -1.2262 -0.3012
 9026TIP3    H248570   4.535   4.623   1.764 -0.0880  1.0320  1.6898
 9027TIP3   OH248571   4.706   5.170  11.884  0.6691 -0.0319  0.5548
 9027TIP3    H148572   4.714   5.081  11.919 -0.7262 -0.0442  0.9062
 9027TIP3    H248573   4.745   5.165  11.796  0.1468 -1.1172  0.3692
 9028TIP3   OH248574   2.597   2.137   3.552 -0.1127 -0.0174 -0.3971
 9028TIP3    H148575   2.624   2.190   3.628  0.0270  1.0593 -1.1726
 9028TIP3    H248576   2.585   2.201   3.482  4.7652 -1.2848 -2.8591
 9029TIP3   OH248577   6.821   1.554  16.423  0.1223 -0.6578  0.4881
 9029TIP3    H148578   6.743   1.546  16.478 -0.0819  1.4116  0.5620
 9029TIP3    H248579   6.882   1.607  16.474  1.3746 -1.7416  0.1734
 9030TIP3   OH248580   6.298   4.518   5.524  0.5978  0.2392  0.0863
 9030TIP3    H148581   6.364   4.522   5.454 -0.6715  0.6615 -1.1237
 9030TIP3    H248582   6.252   4.436   5.509  0.4671  0.2235  0.5664
 9031TIP3   OH248583   1.912   3.245   2.375 -0.0880 -0.0575  0.0372
 9031TIP3    H148584   1.940   3.308   2.441  2.4975 -0.6948 -0.3547
 9031TIP3    H248585   1.931   3.287   2.292  2.2743 -1.4984 -0.2332
 9032TIP3   OH248586   2.472   5.251  13.950 -0.1317 -0.0999 -0.4895
 9032TIP3    H148587   2.436   5.240  13.862 -0.5826  1.8551 -0.5806
 9032TIP3    H248588   2.397   5.243  14.008 -0.2101  0.8100 -0.4556
 9033TIP3   OH248589   2.594   0.442   2.060 -0.1530 -0.5198  0.0976
 9033TIP3    H148590   2.667   0.393   2.023  0.9402 -0.5962  2.1725
 9033TIP3    H248591   2.621   0.460   2.151 -1.9847  0.9564  0.4155
 9034TIP3   OH248592   6.571   6.329  15.754 -0.1874 -0.2579 -0.2903
 9034TIP3    H148593   6.479   6.330  15.782 -0.1208  0.4140 -0.0736
 9034TIP3    H248594   6.572   6.385  15.676 -0.0980 -0.8986 -0.7572
 9035TIP3   OH248595   1.611   6.539  11.867  0.4733 -0.3324 -0.6565
 9035TIP3    H148596   1.673   6.466  11.863  1.0860  0.1755 -0.5165
 9035TIP3    H248597   1.665   6.617  11.852 -0.2163  0.0722 -1.0763
 9036TIP3   OH248598   0.528   1.763  16.000  0.3348 -0.3573 -0.3927
 9036TIP3    H148599   0.518   1.683  16.051  0.2314 -0.7739 -1.0530
 9036TIP3    H248600   0.438   1.789  15.978  0.2584  0.7950  1.0820
 9037TIP3   OH248601   1.018   0.451  14.939  0.2619 -0.7075  0.1831
 9037TIP3    H148602   1.035   0.374  14.993 -0.1161 -0.5233  0.5735
 9037TIP3    H248603   0.923   0.461  14.941  0.3943  0.7833  1.5912
 9038TIP3   OH248604   5.180   1.061  14.652  0.0336  0.5385 -0.9932
 9038TIP3    H148605   5.196   0.998  14.581 -0.7688  0.0151 -0.7229
 9038TIP3    H248606   5.166   1.006  14.729  1.4587  1.1195 -0.2921
 9039TIP3   OH248607   2.847   2.703  13.432 -0.3113 -0.1532  0.2093
 9039TIP3    H148608   2.821   2.671  13.346  0.6181 -0.9773  0.2058
 9039TIP3    H248609   2.781   2.768  13.455 -1.5339 -1.1363 -0.3902
 9040TIP3   OH248610   4.769   2.738   5.520  0.4442  0.1275 -0.5029
 9040TIP3    H148611   4.852   2.692   5.512  1.5139  1.7637  0.4066
 9040TIP3    H248612   4.734   2.742   5.431  0.4008 -2.1851 -0.6306
 9041TIP3   OH248613   6.013   2.825  14.774  0.2377  0.2597  0.5622
 9041TIP3    H148614   6.081   2.760  14.795 -0.1723 -0.2090  0.4518
 9041TIP3    H248615   6.052   2.908  14.801  1.2692  0.1296 -0.4410
 9042TIP3   OH248616   3.230   4.400  13.764 -0.5308 -0.1872 -0.0225
 9042TIP3    H148617   3.320   4.421  13.741  0.1614 -1.0245  1.7460
 9042TIP3    H248618   3.177   4.445  13.698  1.1202  1.2105 -0.4619
 9043TIP3   OH248619   4.629   5.258   1.206 -0.1000  0.6915 -0.3611
 9043TIP3    H148620   4.535   5.245   1.201  0.0346  0.2009 -3.0273
 9043TIP3    H248621   4.640   5.337   1.258 -2.0876  1.7996 -1.5290
 9044TIP3   OH248622   3.016   0.120  14.247 -0.3449 -0.0813 -1.5423
 9044TIP3    H148623   3.023   0.131  14.342  0.1784  1.5833 -1.7290
 9044TIP3    H248624   2.939   0.065  14.234 -1.6276  1.2798 -0.2036
 9045TIP3   OH248625   6.179   1.175  10.499  0.1580  0.5426 -0.4931
 9045TIP3    H148626   6.258   1.141  10.457 -1.6372 -3.0347 -1.3097
 9045TIP3    H248627   6.160   1.113  10.570 -0.4219  2.9267  1.6006
 9046TIP3   OH248628   6.686   5.616  12.823  0.2305  0.4471 -0.0083
 9046TIP3    H148629   6.688   5.694  12.767 -0.4987  0.1886 -0.4092
 9046TIP3    H248630   6.764   5.567  12.798  1.2366  1.4989  0.9301
 9047TIP3   OH248631   2.365   5.810   4.172 -0.4993 -0.3655  0.1182
 9047TIP3    H148632   2.456   5.804   4.143 -0.1311 -1.5373  1.3960
 9047TIP3    H248633   2.340   5.901   4.156  0.9125 -0.0090 -0.1712
 9048TIP3   OH248634   3.797   5.921  12.041 -0.4036  0.2988  0.4665
 9048TIP3    H148635   3.830   5.988  11.981 -1.5073  1.4412  1.0714
 9048TIP3    H248636   3.741   5.865  11.987 -0.0189  0.2782  0.0895
 9049TIP3   OH248637   5.300   5.849   5.781  0.0017 -0.2515 -0.4949
 9049TIP3    H148638   5.256   5.767   5.805  0.3256 -0.2526  0.1330
 9049TIP3    H248639   5.229   5.911   5.764 -0.3680  0.4991  3.0252
 9050TIP3   OH248640   2.082   1.957  11.520  0.0543  0.3355 -0.0050
 9050TIP3    H148641   2.087   1.976  11.613  2.0005 -0.9712  0.2013
 9050TIP3    H248642   1.994   1.921  11.507 -0.8118  1.9459  0.9851
 9051TIP3   OH248643   6.595   6.006  11.983  0.2618  0.1958  0.0758
 9051TIP3    H148644   6.513   6.035  11.944  0.2840  1.5028  0.9560
 9051TIP3    H248645   6.655   6.080  11.971  2.0063 -1.4334 -2.3746
 9052TIP3   OH248646   3.932   1.085  15.267 -0.0931  0.0992 -0.3479
 9052TIP3    H148647   4.004   1.147  15.279  0.1503 -0.1685 -0.4046
 9052TIP3    H248648   3.863   1.135  15.224 -0.3440  0.6451  0.6463
 9053TIP3   OH248649   6.268   4.589   3.427  0.0506  0.4039 -0.0637
 9053TIP3    H148650   6.318   4.513   3.397  1.5488  1.2460  0.1699
 9053TIP3    H248651   6.240   4.633   3.347 -1.4438 -0.7618 -0.2016
 9054TIP3   OH248652   6.058   2.477   3.994 -0.6499 -0.1728 -0.1248
 9054TIP3    H148653   6.045   2.554   3.940 -0.9794  0.5185  0.9153
 9054TIP3    H248654   5.989   2.482   4.060 -0.8421 -1.4955 -0.1898
 9055TIP3   OH248655   0.324   2.005  15.037  0.5566 -0.2696  0.0292
 9055TIP3    H148656   0.398   1.976  14.984  0.4825 -0.9763  0.2941
 9055TIP3    H248657   0.247   1.987  14.983  0.5386 -0.1748  0.0240
 9056TIP3   OH248658   0.273   0.301   1.680  0.0487 -0.6966 -0.1865
 9056TIP3    H148659   0.355   0.316   1.727  0.5416  2.4787 -1.7940
 9056TIP3    H248660   0.216   0.260   1.745  1.0272  2.3559  2.9238
 9057TIP3   OH248661   3.189   3.555  11.779 -0.4091 -0.2771  0.4083
 9057TIP3    H148662   3.129   3.484  11.758 -0.6982  0.0135  0.2391
 9057TIP3    H248663   3.228   3.530  11.863  1.6096 -2.0297 -0.9317
 9058TIP3   OH248664   3.545   6.031  13.954 -0.5707 -0.6276 -0.2895
 9058TIP3    H148665   3.529   6.099  13.889  0.2482  0.8272  0.9538
 9058TIP3    H248666   3.639   6.034  13.970 -0.4002 -2.5558 -0.6923
 9059TIP3   OH248667   4.073   0.859  13.092 -0.0961  0.5171  0.1807
 9059TIP3    H148668   4.080   0.816  13.007 -0.6290  2.0339 -0.6696
 9059TIP3    H248669   4.041   0.791  13.152  0.2901 -0.5667 -0.8164
 9060TIP3   OH248670   4.900   2.811   2.042  0.2006 -0.5762  0.3157
 9060TIP3    H148671   4.861   2.891   2.079  0.6398  0.6753 -1.7097
 9060TIP3    H248672   4.988   2.807   2.079  0.3234  0.1479  0.1285
 9061TIP3   OH248673   1.808   4.342   1.390 -0.2084  0.3141 -0.2692
 9061TIP3    H148674   1.728   4.394   1.384  0.2316  0.9951 -0.4772
 9061TIP3    H248675   1.795   4.269   1.330 -0.4337  0.7566 -0.7629
 9062TIP3   OH248676   4.509   0.538  14.948 -0.4870  0.0499  0.1091
 9062TIP3    H148677   4.432   0.523  14.894  0.0682 -0.3919 -0.5835
 9062TIP3    H248678   4.571   0.582  14.890 -0.5388  1.2357  0.9238
 9063TIP3   OH248679   1.257   2.341  15.888  0.0033 -0.3294  0.1218
 9063TIP3    H148680   1.311   2.398  15.943  0.1395 -0.3020 -0.0391
 9063TIP3    H248681   1.321   2.293  15.835 -0.1491  0.0795 -0.4421
 9064TIP3   OH248682   5.569   4.751  15.434  0.7102 -0.0702  0.1199
 9064TIP3    H148683   5.535   4.827  15.481 -1.0873 -0.6603 -0.1735
 9064TIP3    H248684   5.661   4.774  15.416  0.7433  1.2154  1.6713
 9065TIP3   OH248685   4.594   1.822  14.955  0.4125  0.2007 -0.7010
 9065TIP3    H148686   4.601   1.730  14.927 -0.1195 -0.7772  2.0463
 9065TIP3    H248687   4.512   1.852  14.917  0.3233 -0.6341 -1.2083
 9066TIP3   OH248688   4.365   1.475  15.204  0.3837 -0.4117 -0.7070
 9066TIP3    H148689   4.436   1.539  15.208  1.6885 -1.8465  0.7209
 9066TIP3    H248690   4.298   1.517  15.151  2.6645  0.6302 -3.0156
 9067TIP3   OH248691   1.145   0.844   4.053  0.1991 -0.1937 -0.0237
 9067TIP3    H148692   1.090   0.773   4.086 -2.0038  1.1587 -0.5579
 9067TIP3    H248693   1.202   0.802   3.988 -0.5017 -1.5996  0.2227
 9068TIP3   OH248694   0.265   0.934  13.212  0.4547  0.0795 -0.2834
 9068TIP3    H148695   0.352   0.894  13.224  0.5410  0.7042  1.4074
 9068TIP3    H248696   0.280   1.002  13.146  1.7085  1.3621  1.2182
 9069TIP3   OH248697   5.370   5.876   4.425  0.4502 -0.1680  0.5148
 9069TIP3    H148698   5.400   5.901   4.337 -1.1596  0.9307  0.2334
 9069TIP3    H248699   5.436   5.814   4.456  0.8103 -0.9448 -1.6543
 9070TIP3   OH248700   1.558   1.271  15.817 -0.0618 -0.2164  0.0780
 9070TIP3    H148701   1.605   1.187  15.811  1.2609  0.1068  3.7819
 9070TIP3    H248702   1.544   1.284  15.910 -2.7470  2.4144 -0.5706
 9071TIP3   OH248703   4.030   3.649  15.753  0.5947 -0.2981 -0.4547
 9071TIP3    H148704   3.955   3.616  15.706  0.5592 -0.0074 -0.6031
 9071TIP3    H248705   3.997   3.670  15.840  0.4702 -0.0310 -0.5659
 9072TIP3   OH248706   6.078   3.488   5.469 -0.7884 -0.1986 -0.4199
 9072TIP3    H148707   6.077   3.542   5.549  0.7289 -0.1591 -0.3899
 9072TIP3    H248708   6.141   3.418   5.489 -0.6251 -0.3636 -1.4652
 9073TIP3   OH248709   4.428   5.224  13.172 -0.3939 -0.5458 -0.3916
 9073TIP3    H148710   4.372   5.292  13.209  2.6052  0.8862  1.9948
 9073TIP3    H248711   4.462   5.261  13.091 -0.9270 -0.3677 -0.5317
 9074TIP3   OH248712   6.657   3.842   2.148 -0.0661  0.2080 -0.2113
 9074TIP3    H148713   6.684   3.804   2.064  1.1245  0.2917  0.1134
 9074TIP3    H248714   6.601   3.916   2.124  0.9429  0.7539 -0.9730
 9075TIP3   OH248715   6.100   0.262  12.007  0.1742 -0.1411 -0.4520
 9075TIP3    H148716   6.118   0.325  11.938  2.1600 -1.1418 -0.9279
 9075TIP3    H248717   6.186   0.238  12.041 -0.4304 -2.8850 -0.6000
 9076TIP3   OH248718   2.018   1.925   5.404 -0.8612 -0.4825 -0.6636
 9076TIP3    H148719   1.996   1.988   5.336 -1.8414 -0.4285 -0.3104
 9076TIP3    H248720   2.093   1.877   5.369  1.5677  2.4636  0.0238
 9077TIP3   OH248721   0.149   0.022  16.178  0.1826  0.4232  0.3689
 9077TIP3    H148722   0.066   0.057  16.210  0.0079  0.9273 -0.5891
 9077TIP3    H248723   0.127  -0.065  16.145 -0.2949  1.0933 -1.1922
 9078TIP3   OH248724   4.379   4.393   3.104  0.4601  0.3960 -0.7247
 9078TIP3    H148725   4.453   4.373   3.160 -1.8059 -0.9715  2.0111
 9078TIP3    H248726   4.357   4.310   3.061  2.1839  1.4197 -3.9166
 9079TIP3   OH248727   0.999   2.554  17.084 -0.1256  0.2322  0.7797
 9079TIP3    H148728   0.970   2.484  17.025 -0.1334  0.9286 -0.0688
 9079TIP3    H248729   0.968   2.527  17.171 -1.9014  0.1464  0.1681
 9080TIP3   OH248730   1.888   5.355   3.422 -0.0091  0.3629  0.1068
 9080TIP3    H148731   1.840   5.378   3.342  0.1954 -2.0960 -0.8008
 9080TIP3    H248732   1.820   5.339   3.487 -0.4415 -1.6091 -0.7534
 9081TIP3   OH248733   3.322   5.640  11.786  0.0967  0.5938 -0.0204
 9081TIP3    H148734   3.382   5.657  11.858 -0.5132  0.0867  0.6312
 9081TIP3    H248735   3.278   5.723  11.770  2.0704  1.4128 -1.5915
 9082TIP3   OH248736   2.996   1.019  14.570  0.7944  0.0408 -0.5081
 9082TIP3    H148737   2.911   0.992  14.606  0.4974  1.0212 -0.4593
 9082TIP3    H248738   3.007   0.964  14.492  0.6008 -0.8159  0.0486
 9083TIP3   OH248739   3.986   4.775  12.738  0.4426  0.3785 -0.1537
 9083TIP3    H148740   4.022   4.761  12.826 -0.6462  0.8595  0.3771
 9083TIP3    H248741   3.907   4.722  12.736  0.5678  0.2106 -0.9273
 9084TIP3   OH248742   5.464   1.969  11.785  0.6878  0.1258 -0.8746
 9084TIP3    H148743   5.373   1.947  11.807  0.1851  2.7169 -0.1336
 9084TIP3    H248744   5.513   1.891  11.811 -1.2056 -1.0690 -0.6217
 9085TIP3   OH248745   4.145   3.303   1.833  0.7122  0.4231 -0.3770
 9085TIP3    H148746   4.235   3.304   1.801  0.3191  0.7369 -1.5181
 9085TIP3    H248747   4.140   3.226   1.890  0.9111 -1.3919 -2.6829
 9086TIP3   OH248748   6.429   2.163   5.691 -0.0609  0.1359 -0.1437
 9086TIP3    H148749   6.378   2.178   5.771 -0.7576 -2.1449 -0.0850
 9086TIP3    H248750   6.493   2.097   5.717  0.1564 -0.1192 -1.2973
 9087TIP3   OH248751   2.993   3.462   3.990 -0.0206  0.3947 -0.6842
 9087TIP3    H148752   2.943   3.380   3.987  1.0138 -0.2739 -0.2197
 9087TIP3    H248753   2.995   3.492   3.899 -1.5429  0.6223 -0.6581
 9088TIP3   OH248754   4.006   2.881   1.869  0.0333  0.5071 -0.4780
 9088TIP3    H148755   3.968   2.806   1.915  0.9729  1.0799  1.3019
 9088TIP3    H248756   4.095   2.853   1.848 -0.2160  0.4515 -1.5331
 9089TIP3   OH248757   1.298   1.910   4.673  0.4453  0.4401  0.1347
 9089TIP3    H148758   1.321   1.859   4.751 -0.5734  0.5104  0.4905
 9089TIP3    H248759   1.345   1.992   4.683 -0.8754  1.0761  1.4726
 9090TIP3   OH248760   1.400   3.333  11.824  0.1407 -0.3905 -0.0089
 9090TIP3    H148761   1.437   3.405  11.876  1.7698 -1.8058  0.9224
 9090TIP3    H248762   1.389   3.370  11.737  2.2199  0.6546  0.0922
 9091TIP3   OH248763   1.048   2.947   0.507  0.4061  0.1767  0.8800
 9091TIP3    H148764   1.099   2.888   0.452 -0.1614 -2.4570  2.9546
 9091TIP3    H248765   1.110   3.013   0.537  1.2552  0.2472 -0.9319
 9092TIP3   OH248766   3.478   5.224  11.477  0.1960 -0.0522 -0.2652
 9092TIP3    H148767   3.461   5.302  11.531 -0.6519 -0.5256  0.1878
 9092TIP3    H248768   3.391   5.195  11.450  0.6266  0.4359 -2.3230
 9093TIP3   OH248769   2.459   5.096  16.420  0.1863 -0.5199 -0.1394
 9093TIP3    H148770   2.543   5.081  16.377  0.4609 -0.5066  0.3823
 9093TIP3    H248771   2.473   5.176  16.471  0.0012 -0.7554  0.2915
 9094TIP3   OH248772   5.845   4.480   0.886  0.2037 -0.1983 -0.2643
 9094TIP3    H148773   5.818   4.569   0.864 -0.3316 -0.4457 -0.6241
 9094TIP3    H248774   5.910   4.492   0.955  0.4877  0.4935 -0.6302
 9095TIP3   OH248775   0.036   4.893  11.354 -0.0035  0.0898  0.3342
 9095TIP3    H148776  -0.048   4.870  11.394 -0.4378 -1.5785 -1.3604
 9095TIP3    H248777   0.015   4.911  11.262  1.3866  0.3863  0.0486
 9096TIP3   OH248778   3.625   1.584  16.136 -0.3764  0.6356  0.3969
 9096TIP3    H148779   3.674   1.502  16.124  1.5379  1.6391  0.9714
 9096TIP3    H248780   3.601   1.583  16.229 -0.3985  0.6871  0.3911
 9097TIP3   OH248781   0.498   2.984   1.467 -0.0222  0.2647 -0.7144
 9097TIP3    H148782   0.530   2.895   1.450 -1.7503 -0.4332 -0.5076
 9097TIP3    H248783   0.448   3.007   1.388  1.1498  1.4434 -1.1524
 9098TIP3   OH248784   5.480   3.310   2.224  0.5429 -0.1659 -0.0818
 9098TIP3    H148785   5.499   3.301   2.130  0.2763 -1.3248 -0.0334
 9098TIP3    H248786   5.389   3.282   2.233  0.8220 -0.8759  0.6440
 9099TIP3   OH248787   5.695   3.292   4.520  0.0921 -0.0641 -0.8004
 9099TIP3    H148788   5.784   3.320   4.543 -0.2612 -1.0257  2.2480
 9099TIP3    H248789   5.681   3.214   4.574 -1.8570 -1.2405 -2.8588
 9100TIP3   OH248790   2.872   6.394   1.071 -0.8768  0.0740  0.2030
 9100TIP3    H148791   2.886   6.468   1.131  0.6528  0.6437 -0.8100
 9100TIP3    H248792   2.801   6.344   1.112  0.7600 -0.1398  3.0236
 9101TIP3   OH248793   6.111   0.353  12.767 -0.2454  0.3917 -0.1137
 9101TIP3    H148794   6.100   0.420  12.699 -0.9096 -0.0094 -0.4124
 9101TIP3    H248795   6.165   0.286  12.725  1.4609  1.2798  0.5828
 9102TIP3   OH248796   6.762   3.052   0.201  0.7076  0.2996 -0.3820
 9102TIP3    H148797   6.753   3.034   0.294 -0.2921 -1.9286 -0.8509
 9102TIP3    H248798   6.815   2.981   0.167 -0.8022 -0.2041 -1.8522
 9103TIP3   OH248799   5.715   5.188  15.985 -0.3409 -0.0857  0.4849
 9103TIP3    H148800   5.750   5.255  15.926 -0.6021 -0.3014  0.0799
 9103TIP3    H248801   5.757   5.205  16.069  1.3551 -0.8265 -0.1697
 9104TIP3   OH248802   0.637   5.289   0.625 -1.2206 -0.0055 -0.3400
 9104TIP3    H148803   0.572   5.220   0.633 -1.1321 -0.2953 -1.8916
 9104TIP3    H248804   0.626   5.342   0.704 -0.7027 -2.2626  1.3616
 9105TIP3   OH248805   4.315   2.216  13.145 -0.2052  0.1318 -0.0758
 9105TIP3    H148806   4.398   2.180  13.177 -0.2986  0.3546  0.4215
 9105TIP3    H248807   4.323   2.214  13.049 -0.5398 -2.0236 -0.1159
 9106TIP3   OH248808   5.135   2.211  13.369 -0.8273 -0.3435 -0.2246
 9106TIP3    H148809   5.091   2.257  13.440  2.1047  1.7930  0.4367
 9106TIP3    H248810   5.113   2.262  13.290  1.0937  1.4045  0.2652
 9107TIP3   OH248811   3.753   0.364  12.518 -0.1445  0.0023  0.3206
 9107TIP3    H148812   3.775   0.456  12.537 -0.0442  0.3370 -1.2985
 9107TIP3    H248813   3.838   0.323  12.502 -0.3136  0.1146 -0.9434
 9108TIP3   OH248814   2.996   6.651  12.543 -0.4004 -0.0463  0.1988
 9108TIP3    H148815   3.013   6.696  12.460 -0.1703  0.4024  0.4932
 9108TIP3    H248816   2.918   6.693  12.578 -0.7388 -0.5067  0.0212
 9109TIP3   OH248817   4.308   2.173  14.262 -0.7604 -0.2708 -0.5270
 9109TIP3    H148818   4.369   2.170  14.336 -0.1824 -1.9709 -1.0344
 9109TIP3    H248819   4.359   2.206  14.189 -0.3265 -1.9516 -1.0198
 9110TIP3   OH248820   2.536   1.808   0.545  0.0113 -0.4172 -0.4867
 9110TIP3    H148821   2.588   1.827   0.623 -1.1020  1.2467 -0.0970
 9110TIP3    H248822   2.472   1.743   0.574 -1.1896  1.0760  0.3883
 9111TIP3   OH248823   2.070   5.255   0.167  0.1715 -0.3308  0.5310
 9111TIP3    H148824   2.150   5.228   0.214  0.7519  1.6909  0.8235
 9111TIP3    H248825   2.091   5.242   0.075 -0.3559 -2.7562  0.7024
 9112TIP3   OH248826   4.543   2.149   1.980  0.2513  0.3345  1.3191
 9112TIP3    H148827   4.571   2.064   1.946  0.6852  0.8737  0.2771
 9112TIP3    H248828   4.625   2.197   1.993  0.0312  0.4840  2.2445
 9113TIP3   OH248829   3.006   6.011  14.470 -0.1777 -0.3344 -0.6178
 9113TIP3    H148830   2.991   6.099  14.505  0.1999 -0.8641  0.9546
 9113TIP3    H248831   3.087   6.019  14.419 -1.2557  0.6677 -2.2449
 9114TIP3   OH248832   3.145   3.965   0.584  0.4622  0.0709 -0.7914
 9114TIP3    H148833   3.145   4.055   0.615  2.4747 -0.1784  0.1133
 9114TIP3    H248834   3.056   3.934   0.599  0.5677  0.8751  2.1936
 9115TIP3   OH248835   1.669   0.348  11.698  0.2222 -0.2645 -0.0782
 9115TIP3    H148836   1.754   0.373  11.661  0.3409  0.9228  0.9301
 9115TIP3    H248837   1.605   0.389  11.641  0.3427 -0.5328 -0.4085
 9116TIP3   OH248838   3.170   6.136  16.332  0.2277 -0.1067 -0.4039
 9116TIP3    H148839   3.256   6.131  16.374  0.2698 -1.6494 -0.6134
 9116TIP3    H248840   3.187   6.113  16.241 -0.1794  1.1732 -0.8194
 9117TIP3   OH248841   0.093   6.191   2.597  0.5118  0.4643  0.2424
 9117TIP3    H148842   0.111   6.271   2.548 -0.0313 -0.1425 -0.9847
 9117TIP3    H248843   0.024   6.147   2.547  1.2658 -1.0939  0.5337
 9118TIP3   OH248844   2.035   2.290  12.689 -0.3278 -0.5034 -0.0622
 9118TIP3    H148845   2.031   2.246  12.605 -1.9117 -2.1386  0.7873
 9118TIP3    H248846   1.962   2.352  12.688 -1.7674 -2.0822  0.8357
 9119TIP3   OH248847   4.272   2.252   2.013  0.4817  0.3118 -0.2987
 9119TIP3    H148848   4.356   2.207   2.006 -0.4565 -1.4985 -0.5662
 9119TIP3    H248849   4.238   2.225   2.099 -0.8319 -0.9292 -1.1502
 9120TIP3   OH248850   1.407   1.565  14.399  0.2227 -0.1023 -0.2096
 9120TIP3    H148851   1.331   1.610  14.361 -0.4302  1.4131  2.5607
 9120TIP3    H248852   1.384   1.472  14.397 -0.7673  0.1490 -1.3250
 9121TIP3   OH248853   5.727   4.861  10.537  0.2250  0.6695  1.2536
 9121TIP3    H148854   5.738   4.920  10.462  0.8561 -0.5930  0.3069
 9121TIP3    H248855   5.639   4.879  10.569 -0.5951  0.3226 -0.6551
 9122TIP3   OH248856   3.571   6.268   3.926  0.3616 -0.0590  0.2773
 9122TIP3    H148857   3.500   6.207   3.905  0.0798  0.9019 -1.7383
 9122TIP3    H248858   3.630   6.217   3.981 -1.0017 -1.4269  0.5485
 9123TIP3   OH248859   5.179   5.595   0.141 -0.0981  0.0644  1.1599
 9123TIP3    H148860   5.272   5.600   0.119 -0.0703  0.2809  1.3243
 9123TIP3    H248861   5.165   5.504   0.165  0.1452  0.1033  1.4544
 9124TIP3   OH248862   4.931   0.205  15.633  0.1935 -0.3489  1.0934
 9124TIP3    H148863   5.026   0.195  15.628  0.1975  0.1500 -1.7574
 9124TIP3    H248864   4.899   0.122  15.668  1.5864 -1.3252  0.1440
 9125TIP3   OH248865   4.142   1.242   5.362  0.4737  0.2362 -0.3658
 9125TIP3    H148866   4.132   1.337   5.372  2.6173  0.4115  0.8989
 9125TIP3    H248867   4.216   1.232   5.302 -0.1667 -0.6625 -1.0282
 9126TIP3   OH248868   1.603   6.628   1.239 -0.4167  0.2813  0.8167
 9126TIP3    H148869   1.620   6.557   1.301 -2.0719  0.2826  1.3141
 9126TIP3    H248870   1.539   6.684   1.283 -1.4257  0.4473 -0.7667
 9127TIP3   OH248871   0.463   3.764   2.091 -0.0864 -0.1059 -0.5867
 9127TIP3    H148872   0.453   3.745   1.998 -1.8265  0.3545 -0.5273
 9127TIP3    H248873   0.460   3.860   2.097 -1.2001 -0.1551  0.0276
 9128TIP3   OH248874   0.919   3.636   6.291  0.2370 -0.1179 -0.1455
 9128TIP3    H148875   0.835   3.673   6.262  0.5647  0.0563 -0.9009
 9128TIP3    H248876   0.895   3.559   6.343 -0.3720 -0.5094 -0.9831
 9129TIP3   OH248877   4.650   0.458  13.181  0.0979  0.7148  0.0839
 9129TIP3    H148878   4.742   0.438  13.198 -0.0024 -1.0774 -1.2081
 9129TIP3    H248879   4.635   0.542  13.225  2.7108  1.7918 -0.8595
 9130TIP3   OH248880   0.223   4.894  13.232 -0.2893 -0.0773  0.3733
 9130TIP3    H148881   0.190   4.848  13.154  4.5503 -0.2276 -1.9516
 9130TIP3    H248882   0.257   4.824  13.288 -0.8664  0.2544  1.1666
 9131TIP3   OH248883   6.551   4.567  13.635 -0.1463 -0.7575  0.0869
 9131TIP3    H148884   6.621   4.564  13.700  1.1308  0.4206 -1.1748
 9131TIP3    H248885   6.474   4.534  13.682  1.0862 -1.4940  1.6985
 9132TIP3   OH248886   6.730   3.832   4.463  0.3352  0.1081 -0.3197
 9132TIP3    H148887   6.786   3.896   4.419  0.7089  0.2049  0.2823
 9132TIP3    H248888   6.765   3.747   4.437  0.3029  0.1572 -0.5268
 9133TIP3   OH248889   2.866   1.991   2.711  0.4442  0.0094  0.1020
 9133TIP3    H148890   2.826   1.904   2.714 -0.2218  0.1866 -2.0641
 9133TIP3    H248891   2.792   2.052   2.712  0.7018  0.4095 -1.6912
 9134TIP3   OH248892   4.050   4.889  11.264 -0.4881  0.6375  0.2779
 9134TIP3    H148893   4.055   4.898  11.169  0.4615 -1.5607  0.0479
 9134TIP3    H248894   4.097   4.807  11.283 -1.4393  0.5367  2.5496
 9135TIP3   OH248895   0.909   4.353   3.210  0.0921  0.3630  0.1375
 9135TIP3    H148896   0.870   4.437   3.187 -0.4106  0.9022  2.6926
 9135TIP3    H248897   0.996   4.355   3.170 -0.7971  1.0150 -1.8951
 9136TIP3   OH248898   4.401   6.820   1.449  0.7851 -0.3195 -0.7676
 9136TIP3    H148899   4.336   6.808   1.381  2.7097 -1.0473 -2.6035
 9136TIP3    H248900   4.433   6.910   1.436 -1.4689  0.9574  1.7250
 9137TIP3   OH248901   1.204   3.509   0.474  0.2400 -0.1133  0.2505
 9137TIP3    H148902   1.277   3.456   0.442 -0.7730 -0.5280 -1.5372
 9137TIP3    H248903   1.198   3.488   0.567  0.6271 -2.3015 -0.1507
 9138TIP3   OH248904   6.405   6.001  14.047  0.3185  0.0567  0.1893
 9138TIP3    H148905   6.323   5.962  14.015  0.8040 -0.1612 -0.8287
 9138TIP3    H248906   6.383   6.093  14.059  0.3854  0.4126 -1.9220
 9139TIP3   OH248907   3.747   2.034   6.300  0.8719  0.2076 -0.3563
 9139TIP3    H148908   3.842   2.029   6.291  1.0095  1.0527  0.3799
 9139TIP3    H248909   3.714   1.954   6.261  2.0199 -1.1289  1.2732
 9140TIP3   OH248910   6.782   3.992  14.931  0.1419 -0.3628 -0.1523
 9140TIP3    H148911   6.737   4.072  14.957  0.3986 -0.3728  0.3378
 9140TIP3    H248912   6.788   3.998  14.836 -0.0510  0.0886 -0.1400
 9141TIP3   OH248913   6.169   2.682   5.216 -0.0213  0.3942  0.1897
 9141TIP3    H148914   6.262   2.675   5.236 -0.7023 -3.3439  3.2677
 9141TIP3    H248915   6.154   2.620   5.145 -0.2921  0.5077  0.1457
 9142TIP3   OH248916   6.458   0.234  16.951 -0.6429 -0.2703 -0.7416
 9142TIP3    H148917   6.405   0.314  16.953 -1.6152 -0.8089 -2.5664
 9142TIP3    H248918   6.401   0.169  16.909  1.1847 -1.0775 -2.1300
 9143TIP3   OH248919   4.293   3.501  15.917  0.3834  0.5728  0.3480
 9143TIP3    H148920   4.375   3.471  15.955  0.7567  1.3527  0.1901
 9143TIP3    H248921   4.290   3.461  15.830  0.1109 -0.2527  0.7348
 9144TIP3   OH248922   5.065   1.623   1.014  0.4526 -0.8233  0.2511
 9144TIP3    H148923   4.972   1.639   1.028  0.0642 -1.8749 -0.9605
 9144TIP3    H248924   5.108   1.667   1.087 -1.0516 -1.1579  1.3741
 9145TIP3   OH248925   3.378   4.139  15.984  0.8665  0.0498  0.7534
 9145TIP3    H148926   3.314   4.176  16.045 -0.1475  0.6946 -0.6481
 9145TIP3    H248927   3.378   4.046  16.004 -0.4953  0.0374  0.8108
 9146TIP3   OH248928   1.799   4.423   0.347  0.1232  0.3396  0.0574
 9146TIP3    H148929   1.727   4.453   0.402 -0.1229  0.7123 -0.4654
 9146TIP3    H248930   1.793   4.476   0.268 -0.9203 -1.6758 -1.3230
 9147TIP3   OH248931   2.819   3.837  14.345 -0.5977  0.5466 -0.0723
 9147TIP3    H148932   2.827   3.917  14.294 -0.3197  0.9219  0.5359
 9147TIP3    H248933   2.909   3.818  14.374 -0.5853 -0.2645 -0.6251
 9148TIP3   OH248934   0.314   3.067   5.357  0.7979 -0.1477  0.7739
 9148TIP3    H148935   0.288   3.148   5.313 -0.2217 -0.5859  0.5324
 9148TIP3    H248936   0.233   3.016   5.362  0.8400 -0.1190  3.1666
 9149TIP3   OH248937   3.098   4.860  13.928 -0.3568 -0.2455  0.1296
 9149TIP3    H148938   3.094   4.821  13.841 -2.9162  1.2552 -0.5096
 9149TIP3    H248939   3.049   4.799  13.983 -0.3028 -0.2736  0.1473
 9150TIP3   OH248940   5.153   5.073  12.196 -0.3135 -0.1186 -0.1594
 9150TIP3    H148941   5.214   5.010  12.233 -1.1202  0.3923  2.2366
 9150TIP3    H248942   5.209   5.141  12.159  0.6254 -0.0922  1.2127
 9151TIP3   OH248943   6.047   3.178   3.145 -0.6330 -0.5657 -0.1227
 9151TIP3    H148944   6.029   3.091   3.108 -2.0200 -0.4096  0.1234
 9151TIP3    H248945   6.027   3.168   3.238  1.2743 -0.5212  0.3431
 9152TIP3   OH248946   4.521   4.231  11.997  0.0593  0.5823  0.2720
 9152TIP3    H148947   4.487   4.142  11.996 -0.1216  0.6549 -0.0811
 9152TIP3    H248948   4.616   4.221  11.986 -0.0586  0.4759 -0.7428
 9153TIP3   OH248949   0.077   2.233  15.197  0.0374 -0.4935  0.4311
 9153TIP3    H148950   0.035   2.285  15.265 -0.9420 -1.4098  0.5446
 9153TIP3    H248951   0.016   2.235  15.123  1.7690  1.8163 -1.1084
 9154TIP3   OH248952   3.563   1.266   5.903  0.1066  1.0083 -0.6657
 9154TIP3    H148953   3.656   1.290   5.907  0.3229  0.0823  0.4984
 9154TIP3    H248954   3.564   1.171   5.897 -0.7633  1.0755 -2.3556
 9155TIP3   OH248955   4.207   1.790   6.493 -0.1867 -0.7652 -0.4226
 9155TIP3    H148956   4.280   1.789   6.431  0.9435 -0.4141  0.8630
 9155TIP3    H248957   4.216   1.873   6.539 -1.4018 -0.7265 -0.2167
 9156TIP3   OH248958   3.613   4.746  13.559  0.1344 -0.0051 -0.5840
 9156TIP3    H148959   3.706   4.726  13.560 -0.0938 -1.1133  0.3735
 9156TIP3    H248960   3.609   4.842  13.555  1.2966  0.0439 -0.8867
 9157TIP3   OH248961   3.283   1.242   1.250  0.1433  0.2704 -0.4098
 9157TIP3    H148962   3.269   1.274   1.161 -1.6910  1.3407  0.2129
 9157TIP3    H248963   3.263   1.317   1.306  1.1883 -0.4030  0.9219
 9158TIP3   OH248964   3.423   0.976   4.529  0.1905  0.4364 -0.0477
 9158TIP3    H148965   3.474   0.947   4.453 -0.5338  0.0313 -0.3851
 9158TIP3    H248966   3.429   0.903   4.590 -1.4288 -0.3703 -0.7977
 9159TIP3   OH248967   0.766   6.191  11.656 -0.8001 -0.2315  0.4001
 9159TIP3    H148968   0.811   6.228  11.580 -1.1659 -0.0639  0.2643
 9159TIP3    H248969   0.824   6.211  11.730 -0.7474  0.1543  0.2542
 9160TIP3   OH248970   1.410   3.787   0.160  0.0623  0.1097  0.2553
 9160TIP3    H148971   1.450   3.758   0.242  0.0572 -1.8023 -0.3721
 9160TIP3    H248972   1.320   3.756   0.165 -0.0454  0.3160 -0.3204
 9161TIP3   OH248973   0.693   4.607  13.451 -0.9173  0.4643  0.4206
 9161TIP3    H148974   0.696   4.701  13.434 -2.9786  0.6532  0.8553
 9161TIP3    H248975   0.608   4.593  13.492 -0.3871 -1.5106  0.9429
 9162TIP3   OH248976   1.969   6.095  14.326 -0.0340  0.0967  0.2028
 9162TIP3    H148977   1.969   6.044  14.407  1.7776 -0.2387  0.0519
 9162TIP3    H248978   1.965   6.030  14.256  2.5000  0.0509  0.0053
 9163TIP3   OH248979   3.616   5.893   0.167  0.2251  0.5364 -0.5474
 9163TIP3    H148980   3.578   5.893   0.079  0.0991 -1.2244 -0.5250
 9163TIP3    H248981   3.540   5.897   0.225  0.0345 -2.0162 -0.5159
 9164TIP3   OH248982   1.615   4.218   2.472 -0.0717 -0.2095  0.4307
 9164TIP3    H148983   1.578   4.285   2.529 -2.0741 -0.9945  0.1253
 9164TIP3    H248984   1.622   4.260   2.386 -0.3025 -0.0714  0.4802
 9165TIP3   OH248985   0.905   3.429   1.070 -0.0295  0.3080 -0.0773
 9165TIP3    H148986   0.968   3.399   1.135 -0.9131 -0.5697  0.4051
 9165TIP3    H248987   0.948   3.412   0.986  0.4452 -0.1333  0.2479
 9166TIP3   OH248988   5.907   5.817  14.185  0.4331 -0.3032 -0.1695
 9166TIP3    H148989   5.853   5.756  14.136  0.7329  0.6212 -1.7291
 9166TIP3    H248990   5.897   5.901  14.139  2.8272  0.0087 -0.2746
 9167TIP3   OH248991   5.495   1.408  13.387 -0.1918  0.5436 -0.3975
 9167TIP3    H148992   5.507   1.503  13.382 -0.2671  0.5066 -1.4888
 9167TIP3    H248993   5.546   1.381  13.463 -0.7294  1.5435  0.3504
 9168TIP3   OH248994   2.532   5.909  13.352  0.0156 -0.2383  0.3996
 9168TIP3    H148995   2.516   5.913  13.258 -2.4344 -0.8775  0.7237
 9168TIP3    H248996   2.510   5.819  13.376 -2.2252  0.6683  1.9936
 9169TIP3   OH248997   6.729   3.980   1.576 -0.2125  0.3728 -0.3395
 9169TIP3    H148998   6.641   3.996   1.540 -0.5242  2.1942  1.0451
 9169TIP3    H248999   6.719   3.996   1.670  1.7742  1.5562 -0.2645
 9170TIP3   OH249000   6.146   1.213   6.095 -0.2236 -0.2935  0.1821
 9170TIP3    H149001   6.067   1.212   6.149  0.6015 -0.0791  1.4398
 9170TIP3    H249002   6.210   1.163   6.146  1.2271  1.7108  0.4523
 9171TIP3   OH249003   4.398   3.143  16.155  0.5187  0.2436  0.5454
 9171TIP3    H149004   4.453   3.210  16.196  1.1446  0.0857 -0.0201
 9171TIP3    H249005   4.310   3.181  16.157  0.8322  1.0177  0.3926
 9172TIP3   OH249006   5.627   1.796   4.673 -0.3773  0.4447 -0.5242
 9172TIP3    H149007   5.614   1.869   4.734 -0.7890 -0.1599  0.1281
 9172TIP3    H249008   5.690   1.739   4.717 -0.9748 -0.1950 -0.4778
 9173TIP3   OH249009   2.343   2.840  16.369  0.3774 -0.3020  0.0051
 9173TIP3    H149010   2.394   2.803  16.297  1.0768 -0.9960  0.8440
 9173TIP3    H249011   2.282   2.771  16.393  1.0091 -0.5612  0.9118
 9174TIP3   OH249012   0.333   0.877   0.898  0.1847 -0.5890  0.2222
 9174TIP3    H149013   0.314   0.971   0.900  1.2159 -0.2603 -1.9245
 9174TIP3    H249014   0.312   0.846   0.986 -0.7892  1.5226  0.8008
 9175TIP3   OH249015   3.943   3.929  14.581  0.5359  0.1639 -0.2580
 9175TIP3    H149016   3.884   3.857  14.559 -0.2616  0.6451  0.2608
 9175TIP3    H249017   3.893   4.008  14.562  1.0600  0.5836  0.0644
 9176TIP3   OH249018   0.276   0.151  15.895  0.1421  0.1230 -0.3772
 9176TIP3    H149019   0.318   0.229  15.932  1.4665 -0.3135 -0.8998
 9176TIP3    H249020   0.319   0.077  15.938 -0.6060 -0.3498 -0.4087
 9177TIP3   OH249021   2.142   5.576  11.034 -0.0745 -0.2623  0.5374
 9177TIP3    H149022   2.113   5.498  11.081 -0.3303 -1.1091 -0.9676
 9177TIP3    H249023   2.235   5.583  11.056  0.1717 -1.5191  0.0215
 9178TIP3   OH249024   3.543   0.593  10.741 -0.4093  0.0056  0.0562
 9178TIP3    H149025   3.502   0.510  10.715  1.0786 -0.7523  0.0061
 9178TIP3    H249026   3.501   0.616  10.824 -0.6965 -0.9079  0.1756
 9179TIP3   OH249027   0.575   6.156   4.102  0.1599  0.0273  0.3044
 9179TIP3    H149028   0.647   6.095   4.090  0.5880  0.2867  1.4070
 9179TIP3    H249029   0.617   6.239   4.124 -0.4638 -0.0712  2.0627
 9180TIP3   OH249030   1.649   0.501  14.161 -0.3652 -0.4556 -0.1626
 9180TIP3    H149031   1.699   0.582  14.152 -1.2981  0.2089  0.4308
 9180TIP3    H249032   1.711   0.438  14.197 -0.1847  0.6189  1.4797
 9181TIP3   OH249033   2.280   1.042  15.240 -0.9322 -0.4387  0.2111
 9181TIP3    H149034   2.305   0.963  15.288 -1.8019 -1.5120 -1.0176
 9181TIP3    H249035   2.216   1.011  15.176 -0.2388  1.0152 -1.2457
 9182TIP3   OH249036   0.959   5.507   0.861 -0.0814  0.3515 -0.1802
 9182TIP3    H149037   0.955   5.466   0.774 -0.9099  0.9617 -0.4413
 9182TIP3    H249038   0.909   5.447   0.917  0.3641  0.0126 -0.1328
 9183TIP3   OH249039   0.608   3.436   6.221 -0.1285 -0.7338  0.0911
 9183TIP3    H149040   0.542   3.505   6.227  0.7604  0.0436  1.9923
 9183TIP3    H249041   0.575   3.377   6.154 -1.1997  1.2348 -1.2166
 9184TIP3   OH249042   0.826   3.663  16.647 -0.0948 -0.1813  0.3171
 9184TIP3    H149043   0.915   3.698  16.641  0.2549 -1.2674 -1.6328
 9184TIP3    H249044   0.770   3.740  16.641  0.6671  0.2670 -3.1770
 9185TIP3   OH249045   2.556   5.323   5.906  0.2401  0.1264 -0.6323
 9185TIP3    H149046   2.506   5.292   5.982  0.0066  2.0447  0.0490
 9185TIP3    H249047   2.638   5.273   5.910 -0.5910 -1.2792 -0.3327
 9186TIP3   OH249048   5.302   6.738  12.099 -0.1921 -0.4186 -0.2907
 9186TIP3    H149049   5.219   6.705  12.134  0.3572 -3.2772 -1.4385
 9186TIP3    H249050   5.296   6.724  12.005  2.0365 -1.9355 -0.2820
 9187TIP3   OH249051   2.980   3.314  16.292 -0.3226 -0.5465 -0.3263
 9187TIP3    H149052   2.936   3.234  16.263  1.6703 -1.9604  0.3392
 9187TIP3    H249053   3.009   3.294  16.381  0.2281  0.9127 -0.1592
 9188TIP3   OH249054   5.486   1.981  15.488 -0.0633  0.5604 -0.1751
 9188TIP3    H149055   5.494   1.987  15.393  0.9272  1.2536 -0.0540
 9188TIP3    H249056   5.472   1.888  15.505  0.5256  0.3270 -0.9439
 9189TIP3   OH249057   2.888   4.069  13.207  0.3613  0.4265 -0.5631
 9189TIP3    H149058   2.887   4.128  13.282  0.6090 -1.9796  1.4943
 9189TIP3    H249059   2.979   4.043  13.198  0.1508 -0.2275 -0.9061
 9190TIP3   OH249060   2.372   6.141   2.571  0.7203  0.2473 -0.1259
 9190TIP3    H149061   2.329   6.108   2.492 -0.3368  0.1988  0.4369
 9190TIP3    H249062   2.456   6.176   2.542  1.9076 -2.8632 -0.7996
 9191TIP3   OH249063   0.888   2.830  14.929  0.1326  0.5733 -0.8983
 9191TIP3    H149064   0.916   2.739  14.930  0.3855  0.6173 -2.4405
 9191TIP3    H249065   0.806   2.830  14.978 -0.3145 -0.6368 -1.5994
 9192TIP3   OH249066   3.337   2.845   5.191 -0.3082  0.0827  0.6214
 9192TIP3    H149067   3.395   2.842   5.115  0.1884  1.7701  0.9102
 9192TIP3    H249068   3.351   2.931   5.229 -2.2837  0.1611  1.2839
 9193TIP3   OH249069   3.319   0.525   3.107  0.8014  0.3384  0.0889
 9193TIP3    H149070   3.258   0.484   3.168  0.6578 -0.0774 -0.3304
 9193TIP3    H249071   3.401   0.532   3.157  1.7663 -3.2303 -0.6917
 9194TIP3   OH249072   2.954   1.052   0.366  0.1888 -0.5228 -0.2225
 9194TIP3    H149073   3.014   1.021   0.299  0.6659  0.2501 -0.1565
 9194TIP3    H249074   2.946   0.978   0.426  0.6936 -0.8001 -0.4888
 9195TIP3   OH249075   3.149   0.671  16.372  0.3628 -0.5451 -0.3500
 9195TIP3    H149076   3.152   0.676  16.277 -2.2043 -0.6086 -0.5044
 9195TIP3    H249077   3.105   0.752  16.399 -0.6142 -1.3696  0.6270
 9196TIP3   OH249078   4.568   1.183   4.244 -0.2353  0.4091  0.0316
 9196TIP3    H149079   4.615   1.135   4.313  0.5115  1.3112  0.1656
 9196TIP3    H249080   4.495   1.224   4.291 -0.8684 -0.5548 -0.0803
 9197TIP3   OH249081   2.124   2.622   1.932 -0.1181  0.0476  0.2491
 9197TIP3    H149082   2.052   2.650   1.876  0.9254  2.4432  0.0008
 9197TIP3    H249083   2.195   2.600   1.871  0.1544  0.0472  0.5652
 9198TIP3   OH249084   5.657   0.392  13.156 -0.3759  0.6223  0.3921
 9198TIP3    H149085   5.730   0.449  13.130 -0.0628  1.1166  2.2059
 9198TIP3    H249086   5.669   0.313  13.105 -0.7272  2.0876 -2.1044
 9199TIP3   OH249087   6.462   4.363   3.329 -0.4387  0.0117  0.2553
 9199TIP3    H149088   6.553   4.394   3.331 -0.3380 -0.3088  1.4585
 9199TIP3    H249089   6.465   4.279   3.375 -1.1439 -0.5937 -0.7743
 9200TIP3   OH249090   3.599   5.306   5.088  0.1751  0.4502 -0.0632
 9200TIP3    H149091   3.551   5.388   5.090 -0.8433 -0.1429  0.5294
 9200TIP3    H249092   3.549   5.247   5.145  1.8634 -0.0436  0.9869
 9201TIP3   OH249093   1.945   3.232  13.708 -0.5469 -0.2158  0.2872
 9201TIP3    H149094   1.955   3.324  13.734 -0.3886 -0.4888  1.2360
 9201TIP3    H249095   1.997   3.224  13.628  0.7649  0.1553  1.0706
 9202TIP3   OH249096   3.406   4.591   0.835  0.1439 -0.1046  0.5478
 9202TIP3    H149097   3.335   4.651   0.811  0.1952  0.1557  1.0346
 9202TIP3    H249098   3.398   4.519   0.773  1.2260  1.2645 -1.2689
 9203TIP3   OH249099   3.969   2.249  14.843  0.3608 -0.3062  0.1643
 9203TIP3    H149100   3.897   2.229  14.903  2.5226 -1.8138  2.4674
 9203TIP3    H249101   3.978   2.344  14.845 -0.2320 -0.2691  1.4890
 9204TIP3   OH249102   2.244   5.731   5.514 -0.4067  0.1587  0.4006
 9204TIP3    H149103   2.176   5.775   5.463 -1.8989 -0.8414  1.4273
 9204TIP3    H249104   2.202   5.712   5.598  1.0476 -0.8022  0.9469
 9205TIP3   OH249105   5.182   0.101  15.598  0.2676  0.3194 -0.5660
 9205TIP3    H149106   5.232   0.114  15.517 -0.0045 -0.2020 -0.8255
 9205TIP3    H249107   5.147   0.012  15.591 -1.1522  0.8527 -0.6492
 9206TIP3   OH249108   6.820   3.159  11.407 -0.0604 -0.8160  0.0953
 9206TIP3    H149109   6.908   3.121  11.399  0.4896  0.4538  0.0183
 9206TIP3    H249110   6.761   3.085  11.389  0.9874 -1.3900 -1.1717
 9207TIP3   OH249111   3.345   1.216  15.554 -0.4772  0.4540 -0.2752
 9207TIP3    H149112   3.316   1.241  15.466 -0.3259 -1.6576 -0.9919
 9207TIP3    H249113   3.439   1.233  15.553  0.0801 -2.1229 -1.6018
 9208TIP3   OH249114   4.708   5.229   3.479  0.3497 -0.3515 -0.0084
 9208TIP3    H149115   4.751   5.150   3.512 -0.4392 -1.2802 -1.1444
 9208TIP3    H249116   4.614   5.212   3.490  0.1900  0.9794  0.9400
 9209TIP3   OH249117   4.695   4.046   2.149  0.1721  0.5749 -0.5011
 9209TIP3    H149118   4.676   4.032   2.242  1.4155  2.4275  0.0769
 9209TIP3    H249119   4.717   3.959   2.116 -0.6230 -0.1723  0.8486
 9210TIP3   OH249120   2.269   3.874   2.600  0.7635 -0.3661 -0.4866
 9210TIP3    H149121   2.320   3.795   2.616  1.3663  0.2770  1.0135
 9210TIP3    H249122   2.321   3.944   2.640  1.1057  1.1021 -3.2546
 9211TIP3   OH249123   6.727   4.817   1.154  0.4222  0.5850 -0.0898
 9211TIP3    H149124   6.807   4.795   1.202 -0.2976 -0.1347  0.8302
 9211TIP3    H249125   6.741   4.780   1.067  1.3331  0.9990 -0.1248
 9212TIP3   OH249126   2.893   3.531  11.546  0.1051 -0.2574 -0.7920
 9212TIP3    H149127   2.891   3.465  11.477 -0.5242 -0.4862 -0.5594
 9212TIP3    H249128   2.931   3.486  11.622  0.5670 -0.0777 -0.9190
 9213TIP3   OH249129   2.713   4.401  11.890 -0.7223 -0.2830 -0.4471
 9213TIP3    H149130   2.744   4.454  11.963  0.8014  0.1946 -1.4005
 9213TIP3    H249131   2.757   4.437  11.813 -0.4494 -2.2442 -1.2859
 9214TIP3   OH249132   4.655   0.346  16.942  0.1720  0.6454 -0.6859
 9214TIP3    H149133   4.696   0.301  16.868 -2.6666 -0.1234 -1.9060
 9214TIP3    H249134   4.670   0.288  17.017 -0.7507 -0.8355 -1.6065
 9215TIP3   OH249135   5.026   6.049   0.806 -0.4942 -0.4466 -0.0598
 9215TIP3    H149136   4.939   6.013   0.822 -0.3272 -1.4974 -1.3826
 9215TIP3    H249137   5.086   5.988   0.849 -0.3025 -0.9177 -0.9720
 9216TIP3   OH249138   4.179   0.842   3.485 -0.2864 -0.0163  0.4781
 9216TIP3    H149139   4.095   0.833   3.440 -0.0292  0.6015 -0.1630
 9216TIP3    H249140   4.165   0.914   3.547  0.0063  0.6752 -0.2429
 9217TIP3   OH249141   0.229   4.108  14.012 -0.0788  0.4027 -0.7257
 9217TIP3    H149142   0.296   4.120  13.946  0.3039 -0.8485 -0.5867
 9217TIP3    H249143   0.276   4.073  14.088 -1.0349 -1.6770 -1.0363
 9218TIP3   OH249144   6.094   4.632   4.780  0.5205  0.1591 -0.3844
 9218TIP3    H149145   6.059   4.713   4.818  1.4102 -0.3177  1.5667
 9218TIP3    H249146   6.082   4.566   4.849  2.1304 -0.7780 -0.9506
 9219TIP3   OH249147   2.592   3.000  12.106 -0.8483  0.5284  0.7286
 9219TIP3    H149148   2.591   2.936  12.177 -0.3849 -0.5419 -0.1976
 9219TIP3    H249149   2.516   2.978  12.053  0.1552 -0.2870 -0.4426
 9220TIP3   OH249150   0.003   1.398   5.684 -0.4076  0.3608 -0.2423
 9220TIP3    H149151   0.035   1.467   5.742  0.7313 -0.6661  0.4019
 9220TIP3    H249152   0.058   1.403   5.607  1.7717 -1.6838  1.0447
 9221TIP3   OH249153   2.940   5.262   4.113  0.2867 -0.7418  0.0636
 9221TIP3    H149154   2.892   5.289   4.035  1.6905 -0.6511 -0.7983
 9221TIP3    H249155   3.031   5.286   4.095  0.6192 -0.5534  1.8033
 9222TIP3   OH249156   6.039   4.765   0.657  0.0850 -0.5607  0.1422
 9222TIP3    H149157   5.995   4.794   0.577 -0.4136 -0.6606  0.3763
 9222TIP3    H249158   5.967   4.741   0.716  0.4115  0.6382  1.0543
 9223TIP3   OH249159   4.170   1.573  15.049  0.6516 -0.3558 -0.5451
 9223TIP3    H149160   4.175   1.586  14.954 -1.2496 -0.1567 -0.6483
 9223TIP3    H249161   4.119   1.646  15.081  0.8753 -0.6755  0.5919
 9224TIP3   OH249162   0.618   3.740   2.884  0.6782  0.0763  0.1584
 9224TIP3    H149163   0.647   3.810   2.826 -0.3719 -0.3205 -0.8956
 9224TIP3    H249164   0.688   3.675   2.880 -0.0677 -0.6765 -1.9952
 9225TIP3   OH249165   0.790   1.753  12.369  0.1258  0.4785  0.5547
 9225TIP3    H149166   0.873   1.711  12.346 -0.5199  0.3079 -1.6609
 9225TIP3    H249167   0.767   1.713  12.453  1.0112 -1.4401 -0.0327
 9226TIP3   OH249168   2.364   5.051   1.301 -0.4312  0.2200 -0.1730
 9226TIP3    H149169   2.456   5.039   1.324 -0.7358  0.3520  1.1708
 9226TIP3    H249170   2.337   5.129   1.349 -1.2403  0.1992 -0.5809
 9227TIP3   OH249171   6.593   3.891  13.816 -0.6002  0.3496  0.1932
 9227TIP3    H149172   6.561   3.979  13.794 -2.7598  0.2807  2.5295
 9227TIP3    H249173   6.621   3.898  13.907  1.3610 -0.9183 -0.2460
 9228TIP3   OH249174   4.781   3.746   2.584 -0.2233 -0.3256  0.5121
 9228TIP3    H149175   4.697   3.710   2.610 -0.4416 -0.4339 -0.3190
 9228TIP3    H249176   4.833   3.671   2.557 -0.6896 -0.0681 -1.2491
 9229TIP3   OH249177   4.768   6.192   3.713  0.1002  0.1503 -0.4533
 9229TIP3    H149178   4.855   6.167   3.744 -0.2337  0.2476  0.5684
 9229TIP3    H249179   4.710   6.177   3.787 -0.3248  2.8122 -0.1516
 9230TIP3   OH249180   2.842   0.250  14.037 -1.0219 -0.0567 -0.1760
 9230TIP3    H149181   2.885   0.259  13.951 -0.7857 -0.4331 -0.1002
 9230TIP3    H249182   2.900   0.192  14.087 -1.2624 -0.0025  0.1700
 9231TIP3   OH249183   5.270   3.130   6.236 -0.4361 -0.4411 -0.3884
 9231TIP3    H149184   5.277   3.049   6.287 -1.6546  0.5755  1.5078
 9231TIP3    H249185   5.300   3.198   6.295  0.7190  0.5122 -2.0137
 9232TIP3   OH249186   1.826   5.453  15.485 -0.2267 -0.0828  0.0697
 9232TIP3    H149187   1.739   5.414  15.470 -1.4717  1.9743  1.3836
 9232TIP3    H249188   1.807   5.533  15.534  2.4824  0.2573  0.6746
 9233TIP3   OH249189   1.036   2.543   4.983 -0.7158 -0.3850 -0.5625
 9233TIP3    H149190   1.071   2.468   4.935 -0.3315 -1.0533  0.7135
 9233TIP3    H249191   1.034   2.614   4.919  2.5723 -0.4049 -0.8686
 9234TIP3   OH249192   3.782   3.699   1.172  0.1586  0.0226 -0.0721
 9234TIP3    H149193   3.833   3.771   1.135 -1.8582  0.9188 -1.2988
 9234TIP3    H249194   3.741   3.736   1.250 -0.2391 -0.0452 -0.2481
 9235TIP3   OH249195   6.398   6.220   6.214 -0.0986  0.0270 -0.2849
 9235TIP3    H149196   6.375   6.297   6.266 -1.8521 -0.8846  0.3775
 9235TIP3    H249197   6.433   6.256   6.133 -4.2851  1.7008 -1.6186
 9236TIP3   OH249198   5.592   4.068   4.597  0.0928  0.3387 -0.0698
 9236TIP3    H149199   5.577   4.017   4.677  0.5398  1.3607  0.6870
 9236TIP3    H249200   5.510   4.115   4.583 -0.4045 -0.7315 -0.9034
 9237TIP3   OH249201   5.712   3.566  13.987  0.4168 -0.3641 -0.4480
 9237TIP3    H149202   5.713   3.660  14.004 -1.6318 -0.1269 -1.3150
 9237TIP3    H249203   5.624   3.538  14.011  0.8690 -2.0006 -0.5755
 9238TIP3   OH249204   1.292   0.697   3.867  0.6268 -0.5166 -0.6396
 9238TIP3    H149205   1.385   0.699   3.843  1.5358 -2.5657  2.1263
 9238TIP3    H249206   1.257   0.621   3.821  0.6246 -0.4598 -0.7322
 9239TIP3   OH249207   5.766   6.094  10.806  0.6430  0.0428 -0.1660
 9239TIP3    H149208   5.736   6.117  10.718 -0.5926  0.2445  0.2839
 9239TIP3    H249209   5.687   6.063  10.850  1.2828 -0.2133  0.8249
 9240TIP3   OH249210   5.850   3.362  11.767  0.4989 -0.5356  0.4008
 9240TIP3    H149211   5.876   3.389  11.856 -2.6120  2.1566  0.6897
 9240TIP3    H249212   5.778   3.301  11.781 -0.5456  0.5170 -0.1841
 9241TIP3   OH249213   1.872   1.919  15.200 -0.2211  0.1004 -0.5269
 9241TIP3    H149214   1.864   1.869  15.281  2.8423  0.0763 -0.1216
 9241TIP3    H249215   1.966   1.919  15.181 -0.0182  5.2568 -0.7914
 9242TIP3   OH249216   0.282   1.113   1.793  0.0244 -0.4192 -0.0037
 9242TIP3    H149217   0.308   1.185   1.851 -1.7856  0.4178 -0.1719
 9242TIP3    H249218   0.364   1.067   1.775  0.8931  0.2085  1.9613
 9243TIP3   OH249219   5.925   3.627  12.963  0.4348  0.3973  0.9152
 9243TIP3    H149220   5.839   3.622  13.006  0.0600  1.3700  0.3385
 9243TIP3    H249221   5.968   3.702  13.004 -0.2686  1.8865 -0.9027
 9244TIP3   OH249222   4.315   3.356  16.456  0.1574 -0.2143  0.5818
 9244TIP3    H149223   4.243   3.296  16.434  0.2779  0.4399 -1.8320
 9244TIP3    H249224   4.392   3.300  16.457  0.0589 -0.3814 -0.1813
 9245TIP3   OH249225   1.858   1.239  15.275 -0.0868  0.5145  0.3312
 9245TIP3    H149226   1.883   1.179  15.203  1.1396  0.9454  0.3781
 9245TIP3    H249227   1.940   1.281  15.301 -0.4501  0.1466  2.2104
 9246TIP3   OH249228   0.247   6.568  11.583 -0.5815 -0.3120 -0.9648
 9246TIP3    H149229   0.238   6.661  11.606 -2.0992 -0.1723 -1.9736
 9246TIP3    H249230   0.160   6.531  11.601 -0.1577 -1.4077 -1.1272
 9247TIP3   OH249231   1.947   6.568   4.222  0.7198  0.0465  0.2892
 9247TIP3    H149232   2.028   6.553   4.271  1.2289  0.3746 -0.4381
 9247TIP3    H249233   1.973   6.562   4.130 -1.0047 -5.3599 -0.1939
 9248TIP3   OH249234   5.273   6.704   5.564  0.1961  0.0028 -0.0753
 9248TIP3    H149235   5.251   6.624   5.517  0.8460 -0.4505  0.3811
 9248TIP3    H249236   5.359   6.729   5.529 -0.1988  0.7624 -0.5441
 9249TIP3   OH249237   1.413   2.225  13.081  0.8077 -0.4752 -0.0747
 9249TIP3    H149238   1.325   2.262  13.092  1.6962  2.1186 -1.0269
 9249TIP3    H249239   1.411   2.185  12.994  0.6008 -0.3017 -0.1497
 9250TIP3   OH249240   0.632   6.008  14.621  0.1007  0.3881  0.1246
 9250TIP3    H149241   0.653   6.059  14.699  0.6283  1.8239 -0.8846
 9250TIP3    H249242   0.636   6.073  14.550 -0.6392 -0.8081 -1.0455
 9251TIP3   OH249243   2.935   3.762  14.062 -0.7262  0.0140  0.1742
 9251TIP3    H149244   2.907   3.757  13.971 -1.4655  1.3384  0.3011
 9251TIP3    H249245   3.005   3.828  14.062  0.8197 -1.5597  0.2424
 9252TIP3   OH249246   2.231   4.139   5.966 -0.1202 -0.6553  0.4829
 9252TIP3    H149247   2.232   4.143   6.062  1.3946 -1.1853  0.5082
 9252TIP3    H249248   2.140   4.121   5.944 -0.6071  0.0743  1.7904
 9253TIP3   OH249249   1.592   1.078   1.605 -0.0752 -0.2272 -0.7279
 9253TIP3    H149250   1.658   1.049   1.542  0.5848  1.9568 -1.1041
 9253TIP3    H249251   1.523   1.116   1.551  0.0060  0.7076 -0.1854
 9254TIP3   OH249252   1.914   1.919  13.569 -0.0419  0.1398  0.6624
 9254TIP3    H149253   1.873   1.986  13.623 -2.8874 -1.0457  0.1235
 9254TIP3    H249254   1.967   1.867  13.630  0.2110  1.3324  1.4962
 9255TIP3   OH249255   1.172   0.917   2.410  0.1769  0.2863  0.2989
 9255TIP3    H149256   1.254   0.966   2.403  0.1339  0.1474 -1.8006
 9255TIP3    H249257   1.196   0.827   2.392 -0.3692  0.1769  0.0967
 9256TIP3   OH249258   6.406   2.004  16.634  0.1067 -0.4812 -0.2360
 9256TIP3    H149259   6.392   1.911  16.616 -1.6480  0.1825 -2.8988
 9256TIP3    H249260   6.427   2.042  16.549 -1.5308  1.8989  0.3168
 9257TIP3   OH249261   0.571   2.893  13.998  0.1419  0.1345 -0.2210
 9257TIP3    H149262   0.573   2.871  13.905 -0.6194 -1.0380  0.0065
 9257TIP3    H249263   0.631   2.831  14.038 -0.2105  0.0466  0.1720
 9258TIP3   OH249264   4.779   2.663   2.271  0.2796  0.3580  0.1131
 9258TIP3    H149265   4.856   2.695   2.225  0.4593 -0.0448  0.1360
 9258TIP3    H249266   4.813   2.613   2.345 -0.0040  1.0636  0.7478
 9259TIP3   OH249267   4.994   3.219  11.927  0.1796  0.5125 -0.2627
 9259TIP3    H149268   5.080   3.235  11.967 -0.1568  1.2598  0.1829
 9259TIP3    H249269   4.988   3.123  11.921  0.8161  0.4358  0.2061
 9260TIP3   OH249270   2.770   2.069  15.520 -0.0166  0.0628 -0.3996
 9260TIP3    H149271   2.710   2.090  15.448  1.1215 -0.3833 -1.5104
 9260TIP3    H249272   2.749   2.135  15.587 -1.3113  0.3006 -0.9896
 9261TIP3   OH249273   5.172   1.551   6.114  0.0643  0.0998  0.5937
 9261TIP3    H149274   5.115   1.592   6.049 -0.6509 -0.8509  0.5951
 9261TIP3    H249275   5.211   1.624   6.162 -1.7630  0.7772  1.1073
 9262TIP3   OH249276   1.311   5.026   5.768  0.1928  0.1303 -0.1690
 9262TIP3    H149277   1.343   5.052   5.854 -0.3210 -0.9217  0.3719
 9262TIP3    H249278   1.385   4.981   5.727  0.5967  1.0653 -0.4975
 9263TIP3   OH249279   6.330   1.266   4.891 -0.6659 -0.4404  0.5674
 9263TIP3    H149280   6.359   1.295   4.978  1.3097 -0.4378 -0.0434
 9263TIP3    H249281   6.285   1.183   4.907 -0.3949 -0.4039  1.6018
 9264TIP3   OH249282   0.480   3.052   4.910 -0.1500  0.1277 -0.5415
 9264TIP3    H149283   0.385   3.045   4.895 -0.0288 -0.4255 -1.1065
 9264TIP3    H249284   0.496   3.146   4.917 -0.2898  0.5235 -3.7843
 9265TIP3   OH249285   1.478   1.997   1.664 -0.4141  0.3947  0.1053
 9265TIP3    H149286   1.455   1.913   1.705 -1.2903  0.6659  0.1988
 9265TIP3    H249287   1.438   2.063   1.721  0.6120  0.9024  0.2552
 9266TIP3   OH249288   1.601   2.502  11.513  0.5118  0.2076 -0.1750
 9266TIP3    H149289   1.599   2.509  11.418 -0.8431 -0.2891 -0.2060
 9266TIP3    H249290   1.674   2.443  11.532 -0.3044 -1.1000 -1.0108
 9267TIP3   OH249291   2.674   5.536   4.075 -0.3669 -0.5270 -0.2976
 9267TIP3    H149292   2.602   5.598   4.063 -1.3912 -1.7533 -0.7147
 9267TIP3    H249293   2.680   5.524   4.170  0.5742  1.0141 -0.1349
 9268TIP3   OH249294   6.256   6.055   4.750 -0.2855  0.5064 -0.4837
 9268TIP3    H149295   6.322   5.996   4.712 -0.3928  0.3313 -0.3971
 9268TIP3    H249296   6.284   6.068   4.840 -0.5178  0.2137 -0.3674
 9269TIP3   OH249297   5.947   5.652  12.331 -0.1006  0.2947 -0.1179
 9269TIP3    H149298   5.853   5.661  12.348 -0.2278  0.2770 -0.7979
 9269TIP3    H249299   5.988   5.665  12.417 -0.6001  2.1626 -0.1214
 9270TIP3   OH249300   2.853   5.863  12.175  0.1494 -0.5914  0.1852
 9270TIP3    H149301   2.846   5.945  12.225 -0.1427  0.1612 -1.0428
 9270TIP3    H249302   2.927   5.878  12.116  0.1496 -1.2641  0.0076
 9271TIP3   OH249303   0.973   2.434   0.787  0.1509 -0.0953 -0.1062
 9271TIP3    H149304   1.029   2.368   0.745  0.0098  0.0509 -0.5228
 9271TIP3    H249305   1.021   2.458   0.866 -0.6558 -2.0555  1.0504
 9272TIP3   OH249306   5.862   3.437  14.190 -0.3006 -0.3171 -0.2088
 9272TIP3    H149307   5.825   3.471  14.108 -0.6865 -1.0562 -0.3432
 9272TIP3    H249308   5.787   3.432  14.249 -0.1739 -0.5877 -0.0724
 9273TIP3   OH249309   0.331   4.931   0.126 -0.1999 -0.5805 -0.3564
 9273TIP3    H149310   0.375   4.919   0.211 -1.0582 -0.5131  0.1056
 9273TIP3    H249311   0.283   5.014   0.136 -0.2414 -0.5340 -0.9407
 9274TIP3   OH249312   0.361   2.746  11.990  0.6175 -0.1143 -0.4750
 9274TIP3    H149313   0.419   2.821  12.000  0.4788  0.0880 -1.1011
 9274TIP3    H249314   0.285   2.767  12.043  0.6814  0.0821 -0.4600
 9275TIP3   OH249315   0.205   4.673  15.598 -0.2712 -0.2993  0.1353
 9275TIP3    H149316   0.226   4.759  15.633  0.1099 -0.1407 -0.4652
 9275TIP3    H249317   0.112   4.680  15.574 -1.0190 -0.9278  2.5605
 9276TIP3   OH249318   0.369   2.029  12.575 -0.2160  0.0215 -0.3933
 9276TIP3    H149319   0.465   2.040  12.576 -0.1807  0.2518 -2.5882
 9276TIP3    H249320   0.355   1.935  12.587  0.2038  0.0836  0.8170
 9277TIP3   OH249321   0.079   3.013   2.634  0.3747  0.1117  0.0098
 9277TIP3    H149322   0.132   3.091   2.616  0.3312 -0.1357 -1.3157
 9277TIP3    H249323   0.090   2.997   2.728  0.3424  1.7377  0.3126
 9278TIP3   OH249324   6.804   6.139   4.888  0.1890  0.0872  0.6362
 9278TIP3    H149325   6.756   6.194   4.826  2.0009 -0.7812 -1.6983
 9278TIP3    H249326   6.736   6.091   4.935 -1.3128  1.8967  0.4179
 9279TIP3   OH249327   1.270   5.779  12.857  0.3683  0.4090 -0.0174
 9279TIP3    H149328   1.313   5.713  12.913  0.9417  1.4592  0.8270
 9279TIP3    H249329   1.267   5.858  12.912 -0.5605  1.0060 -0.9064
 9280TIP3   OH249330   4.954   0.818   0.475 -0.5787 -0.7791  0.4178
 9280TIP3    H149331   5.020   0.790   0.412 -0.0060  3.2005 -1.0860
 9280TIP3    H249332   4.994   0.805   0.561 -0.0889 -3.3331 -0.1171
 9281TIP3   OH249333   0.247   2.867  15.766  0.3077 -0.5734 -0.0699
 9281TIP3    H149334   0.342   2.856  15.764  0.3048 -0.6754  0.3280
 9281TIP3    H249335   0.220   2.858  15.674  0.8728  1.1464 -0.4540
 9282TIP3   OH249336   4.814   3.628   0.832 -0.5053  0.9331  0.0042
 9282TIP3    H149337   4.783   3.707   0.787  0.5336  0.1576 -2.2097
 9282TIP3    H249338   4.899   3.653   0.868  0.4251  0.5204 -1.8061
 9283TIP3   OH249339   4.652   0.049   1.156 -0.0553 -0.3053  0.3392
 9283TIP3    H149340   4.707   0.037   1.233  2.9686 -0.1168 -1.6163
 9283TIP3    H249341   4.605  -0.034   1.147  0.6136 -0.8417  1.5657
 9284TIP3   OH249342   4.614   5.120  14.169  0.1641  0.4919 -0.3231
 9284TIP3    H149343   4.556   5.165  14.107 -0.1710  0.9424  0.3104
 9284TIP3    H249344   4.648   5.190  14.225  1.6606  0.2957 -0.9439
 9285TIP3   OH249345   0.741   2.526  13.752 -0.1442 -0.3324 -0.2983
 9285TIP3    H149346   0.710   2.585  13.683 -0.6631 -1.6301 -1.2116
 9285TIP3    H249347   0.695   2.444  13.736 -0.1349 -0.7375  1.4989
 9286TIP3   OH249348   4.938   1.502   3.804  0.0560 -0.1614  0.5022
 9286TIP3    H149349   4.972   1.484   3.717  1.0018 -2.8303  1.3029
 9286TIP3    H249350   4.845   1.477   3.799 -0.3569  1.4174 -0.1559
 9287TIP3   OH249351   2.644   2.088   1.086  0.7508 -0.2262 -0.2553
 9287TIP3    H149352   2.689   2.030   1.024  0.2665 -0.8942  0.0027
 9287TIP3    H249353   2.712   2.114   1.148  0.6049 -2.0370  0.7248
 9288TIP3   OH249354   3.339   5.591  15.569 -0.2716 -0.6746  0.3579
 9288TIP3    H149355   3.430   5.609  15.592 -0.8408  0.9393  1.5695
 9288TIP3    H249356   3.288   5.632  15.639 -2.0553  1.9695 -2.2463
 9289TIP3   OH249357   6.835   2.577  13.556  0.5571  0.1652 -0.3094
 9289TIP3    H149358   6.834   2.493  13.510 -0.8237 -0.2259  0.4007
 9289TIP3    H249359   6.776   2.633  13.505  1.3216  0.6736 -0.6691
 9290TIP3   OH249360   0.695   0.263  13.373  0.2656  0.4917  0.1088
 9290TIP3    H149361   0.657   0.326  13.312 -0.2529 -1.1238 -1.2922
 9290TIP3    H249362   0.640   0.185  13.366  0.4309  0.0916  2.3650
 9291TIP3   OH249363   6.584   4.394   1.819 -0.4505 -0.2307  0.0197
 9291TIP3    H149364   6.506   4.448   1.808 -0.8660 -1.1492 -2.2450
 9291TIP3    H249365   6.625   4.394   1.732 -0.1580 -3.0158  0.0603
 9292TIP3   OH249366   4.384   6.011   2.396 -0.5445  0.6464 -0.4389
 9292TIP3    H149367   4.332   5.974   2.467 -1.6696 -0.4161 -1.7450
 9292TIP3    H249368   4.432   5.936   2.359  1.0407  1.4084 -0.0034
 9293TIP3   OH249369   1.627   4.643   5.399 -0.0341  0.2907 -0.6656
 9293TIP3    H149370   1.676   4.562   5.385 -0.5772  0.1887 -2.0867
 9293TIP3    H249371   1.692   4.705   5.433  0.7384 -0.2679 -1.1071
 9294TIP3   OH249372   3.586   4.061  15.300 -0.1353 -0.6070  0.0477
 9294TIP3    H149373   3.549   4.146  15.324 -0.5679 -0.2573 -1.7456
 9294TIP3    H249374   3.513   4.000  15.312  0.0405 -0.6676  0.8777
 9295TIP3   OH249375   4.922   1.158   4.762  0.1330 -0.5772 -0.0330
 9295TIP3    H149376   4.991   1.098   4.736  0.6837 -0.2349  0.6104
 9295TIP3    H249377   4.910   1.216   4.686 -1.0777 -2.0602 -1.0378
 9296TIP3   OH249378   4.036   1.300   4.641  0.4714  0.4646  0.6104
 9296TIP3    H149379   4.091   1.278   4.566  0.3231 -1.7937  1.1061
 9296TIP3    H249380   3.987   1.377   4.612 -0.5657 -1.0831 -2.1611
 9297TIP3   OH249381   2.441   2.113  16.437 -0.6385 -0.1849 -0.9341
 9297TIP3    H149382   2.502   2.083  16.369 -0.3745  0.1412 -0.8427
 9297TIP3    H249383   2.454   2.052  16.509  2.3440  1.9943  0.5944
 9298TIP3   OH249384   0.602   5.561  15.795 -0.0282  0.2329 -0.1694
 9298TIP3    H149385   0.533   5.614  15.754 -0.7993  0.0564  0.8633
 9298TIP3    H249386   0.637   5.509  15.723 -1.1126  0.1724 -0.6897
 9299TIP3   OH249387   3.005   0.277   3.576 -0.2974 -0.0523  0.2391
 9299TIP3    H149388   2.930   0.285   3.634 -1.5849 -1.8626 -1.0531
 9299TIP3    H249389   3.073   0.331   3.616 -1.8095  0.4658  2.2344
 9300TIP3   OH249390   3.968   6.045  14.307 -0.8719  0.2391 -0.7750
 9300TIP3    H149391   3.993   5.992  14.232 -0.5256  0.9171 -1.1527
 9300TIP3    H249392   3.971   5.985  14.382  0.4680 -0.0428 -1.0370
 9301TIP3   OH249393   1.459   2.293  14.150  1.0094 -0.1912 -0.4555
 9301TIP3    H149394   1.464   2.292  14.054  2.0136 -0.5031 -0.4180
 9301TIP3    H249395   1.385   2.350  14.170  0.7650 -0.1528 -1.4207
 9302TIP3   OH249396   6.439   4.645  13.957  0.3572  0.3481 -0.5482
 9302TIP3    H149397   6.351   4.659  13.922  0.0061 -0.4576  0.0026
 9302TIP3    H249398   6.426   4.598  14.039  1.3368 -0.6098 -0.9109
 9303TIP3   OH249399   4.684   1.772   0.761 -0.3693  0.2892 -0.2825
 9303TIP3    H149400   4.710   1.850   0.810  0.8649 -0.6483  0.6023
 9303TIP3    H249401   4.631   1.806   0.689  0.2620  1.9612  0.0009
 9304TIP3   OH249402   4.035   0.708   0.305 -0.4024  0.3013  0.4097
 9304TIP3    H149403   4.062   0.626   0.263 -0.7815  1.6659 -2.8843
 9304TIP3    H249404   3.996   0.682   0.388  3.2796 -2.4437  1.5413
 9305TIP3   OH249405   0.536   2.348  13.687  0.1668 -0.3269 -0.3469
 9305TIP3    H149406   0.619   2.303  13.672  0.8781  1.3519 -1.6429
 9305TIP3    H249407   0.470   2.280  13.673  1.2837 -1.9579  1.6974
 9306TIP3   OH249408   6.695   1.162   3.773  0.3040  0.4755  0.5936
 9306TIP3    H149409   6.746   1.081   3.769  0.7718  0.7674  0.5474
 9306TIP3    H249410   6.744   1.223   3.718 -1.9224 -0.1957 -2.4146
 9307TIP3   OH249411   3.445   6.614  15.521 -0.1963  0.2065 -0.7405
 9307TIP3    H149412   3.407   6.617  15.433 -0.6779 -0.6346 -0.5710
 9307TIP3    H249413   3.471   6.523  15.533 -0.9364  0.1115  0.3078
 9308TIP3   OH249414   1.688   5.319   5.118 -0.4613 -0.3157  0.6583
 9308TIP3    H149415   1.643   5.257   5.060  1.3552 -1.4934  0.4071
 9308TIP3    H249416   1.768   5.342   5.070  0.4288 -0.2616  2.1166
 9309TIP3   OH249417   0.929   4.630   2.225 -0.1922  0.1974  0.2334
 9309TIP3    H149418   0.838   4.659   2.219 -0.2565 -0.1908 -1.0470
 9309TIP3    H249419   0.928   4.541   2.190  0.8825  0.6591 -1.0641
 9310TIP3   OH249420   2.932   1.899   5.215 -0.2718 -0.8969  0.3022
 9310TIP3    H149421   2.945   1.849   5.135 -0.0927 -0.4141  0.0237
 9310TIP3    H249422   3.003   1.871   5.273  0.4380 -0.2439 -0.2205
 9311TIP3   OH249423   0.270   0.033   4.890 -0.1638  0.2689  0.3151
 9311TIP3    H149424   0.272   0.111   4.946 -0.4355  1.2385 -0.9912
 9311TIP3    H249425   0.207   0.054   4.822  0.7739 -0.5493 -0.8459
 9312TIP3   OH249426   2.493   2.328   2.856 -0.1005 -0.4001  0.0922
 9312TIP3    H149427   2.507   2.403   2.798  1.6090  0.1189  1.0819
 9312TIP3    H249428   2.416   2.351   2.907  0.0255  0.4066 -0.0579
 9313TIP3   OH249429   5.566   4.753   3.256 -0.1262 -0.2637  0.1314
 9313TIP3    H149430   5.563   4.814   3.330 -0.1592 -0.3688  0.2181
 9313TIP3    H249431   5.645   4.702   3.271 -1.5662 -2.1906  1.6345
 9314TIP3   OH249432   6.645   2.337  11.229 -0.1340 -0.2427 -0.0884
 9314TIP3    H149433   6.740   2.327  11.225 -0.0879  0.2691 -0.4068
 9314TIP3    H249434   6.631   2.396  11.303 -0.3738 -2.1904  1.5092
 9315TIP3   OH249435   2.939   0.683  16.662 -0.0590 -0.6723 -0.3846
 9315TIP3    H149436   2.854   0.670  16.704  0.6758 -1.8936  0.7867
 9315TIP3    H249437   2.998   0.708  16.733  0.4556  0.8237 -1.2787
 9316TIP3   OH249438   1.937   5.027  14.267 -0.6729  0.5619 -0.2402
 9316TIP3    H149439   1.907   5.118  14.260 -0.0362  0.8578  0.7016
 9316TIP3    H249440   1.947   5.012  14.361 -0.6267 -0.4389 -0.3942
 9317TIP3   OH249441   2.185   0.095   2.676  0.3852  0.4944 -0.0925
 9317TIP3    H149442   2.172   0.057   2.589 -0.2644 -1.9440  1.0048
 9317TIP3    H249443   2.130   0.043   2.734  0.1356  2.6011  1.6947
 9318TIP3   OH249444   4.593   6.001  12.743  0.2813 -0.2963  0.3310
 9318TIP3    H149445   4.542   5.920  12.736  0.1885 -0.3502  1.5560
 9318TIP3    H249446   4.540   6.058  12.798  0.1644  0.7646 -0.8208
 9319TIP3   OH249447   5.265   6.238   2.932 -0.2926  0.1175 -0.1470
 9319TIP3    H149448   5.206   6.274   2.998 -1.9629 -1.6457 -0.5840
 9319TIP3    H249449   5.352   6.242   2.973 -1.0592  0.5207  1.5258
 9320TIP3   OH249450   1.763   1.184   4.736  0.0793  0.1092  0.3420
 9320TIP3    H149451   1.854   1.153   4.732  0.2241  0.5665  0.0522
 9320TIP3    H249452   1.726   1.139   4.812  0.4124 -0.4374  0.1893
 9321TIP3   OH249453   1.010   5.869   5.254  0.0090  0.0313 -0.4080
 9321TIP3    H149454   1.016   5.879   5.159  0.7196  0.9879 -0.2718
 9321TIP3    H249455   1.082   5.921   5.289 -0.1109 -0.4820  0.6557
 9322TIP3   OH249456   4.195   0.402   1.112  0.7695  0.2378  0.6686
 9322TIP3    H149457   4.147   0.391   1.193  1.7280 -0.3803  1.1650
 9322TIP3    H249458   4.260   0.332   1.112  1.2087  0.6195 -0.3206
 9323TIP3   OH249459   2.024   6.089   4.575  0.0248  0.3987 -0.0933
 9323TIP3    H149460   1.960   6.160   4.584  1.1430  1.5615 -0.9720
 9323TIP3    H249461   2.052   6.092   4.484  0.4074 -0.9179 -0.0469
 9324TIP3   OH249462   1.177   3.918  17.154 -0.2467 -0.4801 -0.1807
 9324TIP3    H149463   1.255   3.951  17.197 -0.8271  0.4251  0.2146
 9324TIP3    H249464   1.135   3.862  17.219 -0.2829 -0.3985 -0.1313
 9325TIP3   OH249465   2.351   5.070   2.517  0.1046  0.4956  0.0752
 9325TIP3    H149466   2.282   5.136   2.524  2.9332  3.5629  1.9714
 9325TIP3    H249467   2.387   5.062   2.605  2.1403 -1.0006 -0.7938
 9326TIP3   OH249468   4.952   6.664  11.087 -0.2923  0.1144  0.2397
 9326TIP3    H149469   4.948   6.748  11.132  2.5157  0.4519 -0.0252
 9326TIP3    H249470   5.044   6.639  11.089 -0.4316 -1.1147 -3.0831
 9327TIP3   OH249471   1.196   3.985   5.671  0.0554 -0.3704 -0.5067
 9327TIP3    H149472   1.221   4.010   5.759 -1.6949  0.3556 -0.1651
 9327TIP3    H249473   1.223   4.058   5.616 -2.3853  1.0927  0.0638
 9328TIP3   OH249474   6.705   5.962  17.064 -0.8685  0.1252 -0.2510
 9328TIP3    H149475   6.762   5.968  17.141  0.1386 -0.7125 -0.9216
 9328TIP3    H249476   6.628   5.914  17.095 -0.5708 -0.0098  0.2910
 9329TIP3   OH249477   4.174   0.129   2.536  0.0162  0.0102 -0.2043
 9329TIP3    H149478   4.174   0.177   2.453 -0.8062  0.3571 -0.0205
 9329TIP3    H249479   4.110   0.175   2.590  0.7524 -0.0399  0.7335
 9330TIP3   OH249480   5.214   1.913   3.991  0.2541  0.7830 -0.5854
 9330TIP3    H149481   5.247   2.003   3.998 -1.7499  1.4783  0.6323
 9330TIP3    H249482   5.275   1.870   3.930  1.0306  3.0668 -1.5271
 9331TIP3   OH249483   2.060   3.510  16.085  0.6840  0.2771 -0.3873
 9331TIP3    H149484   2.143   3.464  16.091 -0.4493 -1.7063  1.4021
 9331TIP3    H249485   2.049   3.552  16.170  0.2236  1.2763 -0.9125
 9332TIP3   OH249486   2.559   4.646  16.837  0.4472 -0.3887  0.1316
 9332TIP3    H149487   2.564   4.583  16.765 -1.1511 -0.9752  0.5044
 9332TIP3    H249488   2.517   4.598  16.908 -0.8922  1.1216  0.3948
 9333TIP3   OH249489   6.144   3.481  11.422  0.6425  0.5987  0.2430
 9333TIP3    H149490   6.104   3.463  11.337 -0.7056  2.2888  0.4618
 9333TIP3    H249491   6.237   3.493  11.402  0.1039  2.9079 -1.3929
 9334TIP3   OH249492   4.088   2.033  11.908  0.0515  0.6520 -0.8391
 9334TIP3    H149493   4.100   1.953  11.857 -0.1191  0.2297 -0.2247
 9334TIP3    H249494   4.069   2.003  11.997 -2.1175  1.3021 -1.0203
 9335TIP3   OH249495   2.665   6.236   4.067  0.1980 -0.2836  0.2469
 9335TIP3    H149496   2.707   6.321   4.073  1.7265 -1.0496  0.9576
 9335TIP3    H249497   2.592   6.249   4.006  0.8064  1.3570 -0.1678
 9336TIP3   OH249498   2.422   0.458  14.268 -0.2456 -0.5299  0.5257
 9336TIP3    H149499   2.352   0.426  14.211  0.0644 -0.5220  0.1377
 9336TIP3    H249500   2.440   0.547  14.236  1.1117 -1.1343 -0.4902
 9337TIP3   OH249501   2.595   1.601  12.527  0.7008  0.0181 -0.3485
 9337TIP3    H149502   2.533   1.568  12.593  0.2037 -1.9173 -1.7090
 9337TIP3    H249503   2.541   1.645  12.462  0.7772 -1.1493 -1.2328
 9338TIP3   OH249504   1.571   4.027  12.426 -0.1015  0.3548 -0.3178
 9338TIP3    H149505   1.654   3.980  12.434  0.1560  1.0029  1.0649
 9338TIP3    H249506   1.505   3.960  12.444  0.1552  0.0026 -0.6649
 9339TIP3   OH249507   2.584   2.680  12.539 -0.2683 -0.9620  0.1522
 9339TIP3    H149508   2.505   2.699  12.589  0.8586 -1.8559  2.4002
 9339TIP3    H249509   2.647   2.649  12.604  2.4210  1.0522 -1.3112
 9340TIP3   OH249510   4.047   2.384   5.522  0.1818  0.5824 -0.2322
 9340TIP3    H149511   4.103   2.354   5.594 -0.8994 -1.6266 -0.2426
 9340TIP3    H249512   4.076   2.332   5.447 -2.1248 -1.0124 -0.1193
 9341TIP3   OH249513   3.467   6.511   4.750  0.3118 -0.5681 -0.1194
 9341TIP3    H149514   3.380   6.536   4.780  0.3420 -1.5134  0.8030
 9341TIP3    H249515   3.495   6.442   4.810  1.8618 -0.0144 -0.1453
 9342TIP3   OH249516   3.108   4.948   5.420 -0.4230 -0.3234 -0.2602
 9342TIP3    H149517   3.047   4.874   5.410 -0.4267 -0.2354 -0.9344
 9342TIP3    H249518   3.162   4.945   5.342 -2.8933  2.6574 -2.3466
 9343TIP3   OH249519   3.550   3.787   3.881 -0.6196  0.1294 -0.2295
 9343TIP3    H149520   3.573   3.719   3.945  0.5700  0.1291 -0.6232
 9343TIP3    H249521   3.486   3.744   3.823 -1.0428 -0.1488  0.4327
 9344TIP3   OH249522   5.456   5.350  16.329 -0.0111  0.2754 -0.1023
 9344TIP3    H149523   5.407   5.287  16.382 -2.4172  1.9515 -0.1850
 9344TIP3    H249524   5.428   5.334  16.239  0.5665  0.4552 -0.3234
 9345TIP3   OH249525   4.539   4.637  14.226 -0.5778 -0.7082  0.5511
 9345TIP3    H149526   4.553   4.550  14.189 -2.0483 -0.0615 -1.7346
 9345TIP3    H249527   4.623   4.681  14.215 -1.2151 -0.1087 -3.5541
 9346TIP3   OH249528   2.118   4.856   5.371  0.0108  0.3628 -0.0150
 9346TIP3    H149529   2.048   4.841   5.308 -0.6358  0.1527  0.7460
 9346TIP3    H249530   2.165   4.933   5.337 -0.7993  0.7210 -0.3381
 9347TIP3   OH249531   1.790   0.864   4.622  0.5406 -0.0012  0.5104
 9347TIP3    H149532   1.766   0.863   4.715 -1.1345 -0.7139  0.0875
 9347TIP3    H249533   1.790   0.957   4.599  1.4845  0.2265  1.3207
 9348TIP3   OH249534   1.582   1.303  16.353 -0.0332 -0.4272 -0.1164
 9348TIP3    H149535   1.604   1.386  16.310 -1.0153 -0.4568 -0.7140
 9348TIP3    H249536   1.637   1.300  16.431  0.1517  0.6939 -0.1986
 9349TIP3   OH249537   3.624   2.664   3.049 -0.2390  0.4518  0.0560
 9349TIP3    H149538   3.603   2.748   3.008 -1.9239 -0.6460 -1.4443
 9349TIP3    H249539   3.699   2.631   2.999 -1.2011 -0.0881 -1.0725
 9350TIP3   OH249540   0.856   6.629  16.709  0.2449 -0.0243  0.0389
 9350TIP3    H149541   0.866   6.580  16.627  1.2992  0.2098  0.0174
 9350TIP3    H249542   0.944   6.629  16.747 -0.0696  0.5826  0.7653
 9351TIP3   OH249543   3.383   0.030   5.671  0.1877  0.1581  0.4479
 9351TIP3    H149544   3.438   0.108   5.667 -0.0059  0.3083  0.6933
 9351TIP3    H249545   3.332   0.032   5.590 -0.6926  0.9410  1.0077
 9352TIP3   OH249546   3.683   2.069  15.711  0.0484 -0.5989 -0.0494
 9352TIP3    H149547   3.639   2.025  15.783  0.8112 -0.7440  0.3355
 9352TIP3    H249548   3.666   2.014  15.635  1.0879 -1.6494  0.4497
 9353TIP3   OH249549   1.203   5.838  11.115 -0.5521  0.0185  0.3644
 9353TIP3    H149550   1.204   5.779  11.039  0.5076 -1.0145  1.1506
 9353TIP3    H249551   1.295   5.849  11.138 -0.7665  1.5493  0.5895
 9354TIP3   OH249552   5.642   6.432  14.312  0.1627 -0.1096 -0.5285
 9354TIP3    H149553   5.599   6.510  14.276 -0.9123 -0.1038  0.7054
 9354TIP3    H249554   5.725   6.464  14.346  0.3260  0.2398 -1.2405
 9355TIP3   OH249555   5.158   6.132   0.568 -1.0549 -0.1847  0.1184
 9355TIP3    H149556   5.253   6.123   0.568 -1.1715 -2.7110 -1.8355
 9355TIP3    H249557   5.134   6.132   0.660  0.6756 -3.0298  0.6851
 9356TIP3   OH249558   2.526   2.763  12.951  0.0292 -1.0333  1.1469
 9356TIP3    H149559   2.518   2.668  12.960  0.1672 -0.9407  2.4348
 9356TIP3    H249560   2.511   2.797  13.039 -0.6983  0.1973  0.5744
 9357TIP3   OH249561   0.324   0.063   3.241 -0.0435 -0.1918 -0.2613
 9357TIP3    H149562   0.244   0.107   3.267  0.6383  1.4583 -0.8131
 9357TIP3    H249563   0.365   0.036   3.324 -1.2728 -1.3172  0.0084
 9358TIP3   OH249564   4.994   2.632   4.930  0.4404  0.1958 -0.1677
 9358TIP3    H149565   5.087   2.643   4.949  0.0594  1.9613  0.9097
 9358TIP3    H249566   4.959   2.586   5.006  0.2525  0.4084 -0.1250
 9359TIP3   OH249567   0.934   3.852  16.864 -0.0915 -0.0767  0.3131
 9359TIP3    H149568   0.916   3.920  16.929  0.3919  0.2293  0.1309
 9359TIP3    H249569   0.934   3.898  16.780 -1.8461 -0.6484 -0.0603
 9360TIP3   OH249570   3.790   5.357  15.855  0.1501  0.0449 -0.1032
 9360TIP3    H149571   3.776   5.451  15.849 -1.2517 -0.1838 -0.8735
 9360TIP3    H249572   3.731   5.320  15.790 -2.4425 -1.6024  2.8927
 9361TIP3   OH249573   2.907   6.542  14.321  0.1425  0.3128  0.5793
 9361TIP3    H149574   2.997   6.560  14.349  0.4764 -0.5340  0.0656
 9361TIP3    H249575   2.915   6.485  14.245 -0.8290  0.4424  0.3557
 9362TIP3   OH249576   2.742   1.648  10.427  0.2746 -0.7688  0.0035
 9362TIP3    H149577   2.732   1.567  10.476  0.5575 -0.1404  1.1435
 9362TIP3    H249578   2.668   1.648  10.366  0.3988 -1.9737 -0.1702
 9363TIP3   OH249579   2.665   2.767   5.886 -0.3464  0.2062 -0.1576
 9363TIP3    H149580   2.625   2.744   5.970 -1.0559  1.1172 -0.2258
 9363TIP3    H249581   2.758   2.751   5.899 -0.5615 -0.5823  0.4854
 9364TIP3   OH249582   3.403   0.310  13.820  0.1255 -0.2127  0.0663
 9364TIP3    H149583   3.398   0.249  13.893  1.7607  0.0942  0.4742
 9364TIP3    H249584   3.445   0.260  13.750 -0.6510 -0.2415 -0.3931
 9365TIP3   OH249585   2.741   4.435   1.330  0.4331  0.4250  0.1863
 9365TIP3    H149586   2.829   4.469   1.319  0.9125 -0.3184  1.4686
 9365TIP3    H249587   2.690   4.509   1.361  0.4497  1.0045 -1.1126
 9366TIP3   OH249588   4.977   2.558  11.623 -0.3132 -0.3256 -0.3099
 9366TIP3    H149589   5.012   2.493  11.685 -1.0135  0.2594  0.7352
 9366TIP3    H249590   4.941   2.627  11.679 -0.1763  0.6547 -1.3914
 9367TIP3   OH249591   1.698   6.244   4.222  0.1253  0.1636 -0.3280
 9367TIP3    H149592   1.749   6.273   4.298  0.4077  1.4535 -0.9844
 9367TIP3    H249593   1.617   6.295   4.226  0.3440  0.5966 -1.1356
 9368TIP3   OH249594   1.350   3.067   0.905  0.4109  0.6002  0.3818
 9368TIP3    H149595   1.330   3.112   0.987  1.4124  0.1786  0.8776
 9368TIP3    H249596   1.414   3.000   0.929  3.2461  2.4919 -1.1855
 9369TIP3   OH249597   6.568   1.696  11.473 -1.1286  0.3050 -0.5364
 9369TIP3    H149598   6.526   1.719  11.390 -2.5689 -1.5378 -0.3832
 9369TIP3    H249599   6.526   1.615  11.500  0.4901 -0.0442  1.1817
 9370TIP3   OH249600   0.095   2.881   1.359 -0.2614 -0.4613 -0.1072
 9370TIP3    H149601   0.017   2.899   1.307 -0.7655 -0.4288  0.6411
 9370TIP3    H249602   0.109   2.787   1.350 -0.6797 -0.5507  0.1442
 9371TIP3   OH249603   4.699   3.771  14.120  0.2915 -0.0082 -0.3981
 9371TIP3    H149604   4.634   3.705  14.095 -2.0201  1.9500  0.0928
 9371TIP3    H249605   4.676   3.794  14.210  2.0158  0.4263 -0.0280
 9372TIP3   OH249606   4.409   2.501   4.778  0.2081 -0.4512 -0.3555
 9372TIP3    H149607   4.349   2.428   4.793  0.9829 -1.0718 -0.2098
 9372TIP3    H249608   4.426   2.499   4.684 -1.0447  0.5751 -0.6316
 9373TIP3   OH249609   5.080   6.118   3.200  0.0102 -0.0133  0.0969
 9373TIP3    H149610   5.152   6.056   3.209  0.1410  0.0598 -0.4087
 9373TIP3    H249611   5.019   6.075   3.141 -0.6183 -0.2976  0.9264
 9374TIP3   OH249612   3.478   2.768   5.532 -0.1136  0.1348  0.1315
 9374TIP3    H149613   3.538   2.834   5.497 -0.2124 -0.1725 -0.6513
 9374TIP3    H249614   3.466   2.792   5.623  0.4454  0.7601  0.0494
 9375TIP3   OH249615   3.319   5.788  16.156 -0.2134 -0.0510  0.0975
 9375TIP3    H149616   3.302   5.775  16.249 -2.0603 -1.8090 -0.4230
 9375TIP3    H249617   3.272   5.869  16.135  0.2272  0.3655  0.6776
 9376TIP3   OH249618   1.301   4.435  16.579 -0.1678 -0.0173 -0.2151
 9376TIP3    H149619   1.292   4.340  16.576  0.3602 -0.0549 -0.5951
 9376TIP3    H249620   1.373   4.451  16.640  0.8863  0.0577 -1.4295
 9377TIP3   OH249621   1.182   2.761  15.757 -0.7244  0.0259  0.1602
 9377TIP3    H149622   1.240   2.834  15.735 -1.3685  0.7860  0.9380
 9377TIP3    H249623   1.222   2.686  15.713  0.1384  0.7706 -0.3791
 9378TIP3   OH249624   5.329   4.502   2.617  0.5314  0.1869 -0.1583
 9378TIP3    H149625   5.312   4.566   2.548  0.8670  0.5343  0.0798
 9378TIP3    H249626   5.418   4.522   2.646  0.6021 -0.3265 -0.0182
 9379TIP3   OH249627   6.226   4.812   0.179 -0.7297 -0.2396 -0.3341
 9379TIP3    H149628   6.248   4.892   0.227  0.2945 -0.3136 -0.6495
 9379TIP3    H249629   6.271   4.822   0.095  1.4785 -2.2148  0.5102
 9380TIP3   OH249630   1.546   1.057   4.960  1.0923 -0.6637 -0.2030
 9380TIP3    H149631   1.511   1.143   4.984  1.1702 -0.4434 -0.8357
 9380TIP3    H249632   1.472   1.011   4.921  0.7463 -1.3347  1.1884
 9381TIP3   OH249633   6.773   6.466   4.216 -0.6350  0.2712  0.4603
 9381TIP3    H149634   6.714   6.480   4.290 -1.3509 -0.2055 -0.0067
 9381TIP3    H249635   6.716   6.465   4.139  0.2048  1.8241 -0.2382
 9382TIP3   OH249636   5.840   1.149   2.146 -0.0933 -0.3235 -0.1569
 9382TIP3    H149637   5.841   1.102   2.230  0.5837 -2.8704 -1.4704
 9382TIP3    H249638   5.919   1.202   2.147 -0.7015  0.6040  1.2629
 9383TIP3   OH249639   5.123   2.747   2.191  0.1984  0.4276  0.6576
 9383TIP3    H149640   5.134   2.812   2.261  1.6497  0.6865  0.2309
 9383TIP3    H249641   5.161   2.667   2.227  0.6766  0.4843  0.2914
 9384TIP3   OH249642   0.014   6.430  15.752  0.5394 -0.2072  0.9119
 9384TIP3    H149643  -0.066   6.422  15.805 -0.7604 -1.6940 -1.1447
 9384TIP3    H249644   0.062   6.349  15.768  0.4638 -0.3652  0.3601
 9385TIP3   OH249645   3.193   5.723  13.481 -0.4167 -0.5942  0.6361
 9385TIP3    H149646   3.187   5.754  13.391 -0.4606 -1.0245  0.4873
 9385TIP3    H249647   3.177   5.801  13.534 -0.4801 -0.3554  0.2741
 9386TIP3   OH249648   1.419   2.276   0.302  0.6199  0.5195 -0.8789
 9386TIP3    H149649   1.437   2.354   0.355  0.5111  0.3807 -0.6341
 9386TIP3    H249650   1.495   2.268   0.243  1.1094  0.2513 -0.2321
 9387TIP3   OH249651   5.899   2.417   1.847  0.0622  0.2580 -0.0864
 9387TIP3    H149652   5.965   2.395   1.781 -0.1031  0.8715 -0.4620
 9387TIP3    H249653   5.916   2.508   1.870  0.0295  0.0947  0.6222
 9388TIP3   OH249654   2.078   1.618   3.113 -0.0643  0.6881 -0.0990
 9388TIP3    H149655   2.118   1.569   3.185 -0.3378 -0.3850 -0.6516
 9388TIP3    H249656   1.996   1.571   3.095 -0.2784  1.2861 -0.7295
 9389TIP3   OH249657   2.633   5.239  14.645  0.2195 -0.1778 -0.0960
 9389TIP3    H149658   2.621   5.172  14.577  1.4007  0.6862 -1.1860
 9389TIP3    H249659   2.727   5.245  14.656  0.0453 -0.1637  1.5158
 9390TIP3   OH249660   3.651   5.485   1.273 -0.0341  0.3259 -0.2960
 9390TIP3    H149661   3.626   5.440   1.353 -0.0828 -0.5285 -0.7887
 9390TIP3    H249662   3.571   5.526   1.242  0.1009  1.1338  0.3801
 9391TIP3   OH249663   6.065   2.288  16.940  0.0078  0.9627  0.5076
 9391TIP3    H149664   6.129   2.359  16.948 -0.0926  0.9861  1.1625
 9391TIP3    H249665   5.989   2.318  16.991 -0.2077  0.5844  0.4138
 9392TIP3   OH249666   4.827   4.118  14.908  0.2219  0.3280  0.4607
 9392TIP3    H149667   4.792   4.031  14.889  0.1268  0.6091 -0.7242
 9392TIP3    H249668   4.749   4.173  14.916  0.2995  0.3994  0.7308
 9393TIP3   OH249669   5.879   6.116  12.596 -0.2015  0.0401 -0.2749
 9393TIP3    H149670   5.899   6.024  12.612 -0.4695  0.3537  2.1645
 9393TIP3    H249671   5.965   6.157  12.581 -0.0951 -0.5882 -1.5569
 9394TIP3   OH249672   2.486   1.306  14.742  0.0944 -0.5624  0.1584
 9394TIP3    H149673   2.518   1.376  14.798  1.1167 -1.9603  1.3841
 9394TIP3    H249674   2.420   1.261  14.795 -0.4680 -0.6078 -0.5688
 9395TIP3   OH249675   4.720   1.632   4.285  0.6993 -0.5106  0.3353
 9395TIP3    H149676   4.730   1.538   4.269 -0.8307 -0.8010  0.9892
 9395TIP3    H249677   4.716   1.640   4.380  1.1759  0.2769  0.2990
 9396TIP3   OH249678   5.137   6.598  12.606 -0.1682  0.2906  0.2416
 9396TIP3    H149679   5.046   6.596  12.574 -0.1908  0.6936  0.2803
 9396TIP3    H249680   5.155   6.507  12.629  0.0022 -0.1212 -1.3436
 9397TIP3   OH249681   3.459   1.761  14.730  0.7374  0.2624  0.6429
 9397TIP3    H149682   3.474   1.833  14.669 -0.9359  0.3666  0.3235
 9397TIP3    H249683   3.396   1.796  14.793  0.6227 -0.6205  1.0322
 9398TIP3   OH249684   4.271   2.895   4.847  0.0048 -0.2341 -0.2511
 9398TIP3    H149685   4.244   2.837   4.777  2.1639 -2.1197  0.3569
 9398TIP3    H249686   4.219   2.974   4.834 -2.6214 -2.0221 -1.4847
 9399TIP3   OH249687   5.214   6.632  14.342  0.0568  0.1275  0.0848
 9399TIP3    H149688   5.309   6.637  14.345 -0.0086  2.1819  0.4828
 9399TIP3    H249689   5.195   6.557  14.286  1.9238  0.4244 -1.0303
 9400TIP3   OH249690   2.706   6.519  11.299  0.0921  0.1153 -0.0167
 9400TIP3    H149691   2.763   6.557  11.232  0.2260 -0.1947 -0.0794
 9400TIP3    H249692   2.745   6.546  11.382  0.3163 -0.0755 -0.0594
 9401TIP3   OH249693   6.189   5.748   3.558  0.1574 -0.0247 -0.4700
 9401TIP3    H149694   6.144   5.759   3.642 -0.3452 -0.5126 -0.6655
 9401TIP3    H249695   6.181   5.833   3.515  1.4479  0.6106  0.4489
 9402TIP3   OH249696   3.903   6.674   2.086  0.5591 -0.4309  0.1345
 9402TIP3    H149697   3.919   6.618   2.010  1.6972  2.2393 -1.7771
 9402TIP3    H249698   3.990   6.687   2.125  0.5710  0.9184 -0.2556
 9403TIP3   OH249699   1.773   4.740   0.205  0.0992 -0.2336  0.3225
 9403TIP3    H149700   1.820   4.823   0.205  2.0640 -1.2787  0.1277
 9403TIP3    H249701   1.822   4.685   0.144 -2.9569 -0.6195 -2.0309
 9404TIP3   OH249702   1.102   4.680  15.081  0.2349  0.3535  0.1856
 9404TIP3    H149703   1.164   4.752  15.090  0.2492  0.3420  0.1778
 9404TIP3    H249704   1.017   4.719  15.101 -0.3280  1.3029 -3.3820
 9405TIP3   OH249705   5.809   0.486   2.026  0.5631  0.1872 -0.8161
 9405TIP3    H149706   5.830   0.486   2.119  0.0083  0.0510 -0.6850
 9405TIP3    H249707   5.769   0.572   2.011 -3.2488 -1.2442  0.0178
 9406TIP3   OH249708   2.687   5.223  11.378 -0.0810 -0.2577 -0.1775
 9406TIP3    H149709   2.735   5.298  11.414 -1.0915  0.3177  0.0050
 9406TIP3    H249710   2.597   5.254  11.368 -0.9578 -1.9575  1.5907
 9407TIP3   OH249711   0.924   6.425  11.465 -0.3539  0.0944 -0.2191
 9407TIP3    H149712   0.885   6.480  11.533 -1.6576 -1.4196  0.3286
 9407TIP3    H249713   1.018   6.425  11.485 -0.8228 -1.3861  2.5048
 9408TIP3   OH249714   4.414   1.894   1.474 -0.0831  0.6198  0.2702
 9408TIP3    H149715   4.399   1.986   1.499 -0.1067  0.8591 -0.5838
 9408TIP3    H249716   4.509   1.886   1.470 -0.0271  1.4976 -2.6401
 9409TIP3   OH249717   3.610   0.643  13.372 -0.1018  0.0065 -0.1414
 9409TIP3    H149718   3.547   0.706  13.407 -0.3884 -1.0752  1.3479
 9409TIP3    H249719   3.695   0.676  13.401 -0.1424  0.3797 -0.4401
 9410TIP3   OH249720   2.184   4.111   3.277 -0.2890  0.0470 -0.0543
 9410TIP3    H149721   2.224   4.083   3.360 -0.4185 -0.5848 -0.1976
 9410TIP3    H249722   2.142   4.195   3.297  1.2991  0.8596  0.0471
 9411TIP3   OH249723   2.974   2.146   3.858 -0.2003 -0.1799  0.0729
 9411TIP3    H149724   2.938   2.078   3.915 -0.3244 -0.5645 -0.4554
 9411TIP3    H249725   3.030   2.199   3.916 -2.0246  0.7811  1.0233
 9412TIP3   OH249726   1.700   2.036   1.504  0.5547 -0.0358  0.3192
 9412TIP3    H149727   1.612   2.012   1.532  0.8720  1.1633  2.5864
 9412TIP3    H249728   1.758   2.000   1.571  2.0142 -2.1255 -1.9160
 9413TIP3   OH249729   6.747   2.208  12.808  0.1583  0.3824 -0.1276
 9413TIP3    H149730   6.675   2.175  12.862 -1.2794  0.7255 -1.7417
 9413TIP3    H249731   6.824   2.161  12.840 -0.9579 -0.8021  0.9581
 9414TIP3   OH249732   1.586   0.126  12.541  0.0328 -0.1278 -0.1398
 9414TIP3    H149733   1.607   0.061  12.473 -0.0326 -0.9150  0.5719
 9414TIP3    H249734   1.506   0.169  12.509 -0.4638 -1.0518 -0.2018
 9415TIP3   OH249735   4.541   0.671   6.320 -0.0395  0.3750  0.1310
 9415TIP3    H149736   4.490   0.590   6.310 -1.0822  1.1526 -1.0042
 9415TIP3    H249737   4.476   0.740   6.326  0.8623  1.4147 -1.5292
 9416TIP3   OH249738   5.389   2.010   4.330 -0.2060  0.2156 -0.7903
 9416TIP3    H149739   5.335   2.014   4.409  1.1282 -1.8909  0.3358
 9416TIP3    H249740   5.364   1.927   4.289  0.0730  0.6488 -1.8599
 9417TIP3   OH249741   3.639   6.410   1.099  0.8034 -0.4580  0.2587
 9417TIP3    H149742   3.595   6.494   1.083  1.1644 -0.3846 -0.4053
 9417TIP3    H249743   3.693   6.426   1.177 -0.7411 -0.7143  1.4167
 9418TIP3   OH249744   6.079   1.127   3.019  0.0123 -0.1920 -0.4392
 9418TIP3    H149745   6.007   1.188   3.001  1.0878  1.4412  0.4830
 9418TIP3    H249746   6.127   1.169   3.091 -0.5876 -3.3228  2.0001
 9419TIP3   OH249747   1.679   0.922   6.607 -0.1696 -0.0173 -0.1425
 9419TIP3    H149748   1.610   0.969   6.560  0.4302  0.6985 -0.3160
 9419TIP3    H249749   1.636   0.841   6.636 -1.3838  0.8587  0.6411
 9420TIP3   OH249750   1.552   4.417  14.808 -0.0028 -0.5553 -0.7144
 9420TIP3    H149751   1.494   4.343  14.790 -2.0135  1.3914 -3.0237
 9420TIP3    H249752   1.493   4.493  14.809  1.5842  0.9168  3.8762
 9421TIP3   OH249753   6.006   6.142   3.215 -0.3664 -0.6260 -0.7858
 9421TIP3    H149754   5.960   6.214   3.258  0.3985  0.4346 -1.6954
 9421TIP3    H249755   6.028   6.176   3.128  0.5076 -1.7618 -1.0272
 9422TIP3   OH249756   0.379   1.741  15.181  0.4482 -0.0834  0.6587
 9422TIP3    H149757   0.318   1.808  15.150 -1.8765 -2.2108  0.3213
 9422TIP3    H249758   0.461   1.760  15.135 -1.1280  0.4604 -2.1483
 9423TIP3   OH249759   0.320   3.613  16.398  0.0241 -0.0058 -0.2499
 9423TIP3    H149760   0.275   3.536  16.433 -0.6137  1.1030  1.5653
 9423TIP3    H249761   0.317   3.602  16.303 -0.4212 -1.9875 -0.0562
 9424TIP3   OH249762   5.773   5.212   1.374  0.4842  0.1913 -0.8240
 9424TIP3    H149763   5.680   5.193   1.379  0.5719 -0.0635 -0.1055
 9424TIP3    H249764   5.778   5.305   1.354  0.0784  0.5911  0.8400
 9425TIP3   OH249765   1.868   2.550  11.971 -0.2788  0.0315  0.0653
 9425TIP3    H149766   1.838   2.573  12.059 -1.7629  0.6357 -0.5700
 9425TIP3    H249767   1.882   2.633  11.927 -1.1580 -0.2484 -0.7815
 9426TIP3   OH249768   2.467   6.327   3.870  0.0396 -0.2599 -0.3178
 9426TIP3    H149769   2.389   6.288   3.830  1.3701 -1.0082 -2.3599
 9426TIP3    H249770   2.464   6.419   3.844 -0.7199 -0.0206  0.5752
 9427TIP3   OH249771   6.318   0.359  10.634 -0.5981  0.2142  0.4517
 9427TIP3    H149772   6.251   0.402  10.580  0.1542  1.0038  0.1303
 9427TIP3    H249773   6.270   0.331  10.712 -1.1894  1.4045  0.5507
 9428TIP3   OH249774   2.910   2.895  15.310 -0.2848 -0.2654 -0.2846
 9428TIP3    H149775   2.838   2.933  15.361 -0.7733 -0.9442 -0.4625
 9428TIP3    H249776   2.987   2.904  15.366 -0.7357 -0.6076  0.3948
 9429TIP3   OH249777   4.786   4.965   3.677  0.0367  0.1339 -0.2369
 9429TIP3    H149778   4.880   4.970   3.660  0.3703 -1.1363  0.9662
 9429TIP3    H249779   4.780   4.919   3.761 -1.7039 -1.0127 -0.9322
 9430TIP3   OH249780   6.526   4.927   0.442 -0.1320 -0.6624 -0.2016
 9430TIP3    H149781   6.487   5.013   0.435 -0.9512 -0.9029  1.1110
 9430TIP3    H249782   6.470   4.879   0.503  1.4165 -1.4716  0.6696
 9431TIP3   OH249783   5.084   4.012  12.755 -0.0637  0.3494  0.1646
 9431TIP3    H149784   5.123   3.945  12.698 -0.7172  0.4096 -0.3760
 9431TIP3    H249785   5.118   4.095  12.722  0.0303  0.3433  0.2473
 9432TIP3   OH249786   2.381   1.575   0.596  0.3710 -0.7735  0.1215
 9432TIP3    H149787   2.445   1.576   0.666  0.8749  1.8763 -0.2692
 9432TIP3    H249788   2.296   1.581   0.640  0.4485 -2.3339  0.5554
 9433TIP3   OH249789   3.355   6.003  11.492  0.3655  0.4730 -0.2856
 9433TIP3    H149790   3.297   5.995  11.417  1.0310  1.6174 -0.9403
 9433TIP3    H249791   3.395   5.917  11.500 -2.0441 -0.6648  0.7575
 9434TIP3   OH249792   1.699   0.677  16.413 -0.3582 -0.1530  0.3013
 9434TIP3    H149793   1.686   0.758  16.364  1.6211  0.0387  0.0172
 9434TIP3    H249794   1.633   0.617  16.378 -1.5725  1.2007  0.2221
 9435TIP3   OH249795   5.461   0.814  15.260  0.2153  0.1225 -0.3837
 9435TIP3    H149796   5.553   0.838  15.253 -0.4524  3.7412  1.3812
 9435TIP3    H249797   5.416   0.871  15.198 -1.0948  0.4082  0.7756
 9436TIP3   OH249798   3.801   3.161  14.243  0.0861  0.3747 -0.1949
 9436TIP3    H149799   3.783   3.150  14.337  1.2269 -1.5691 -0.1364
 9436TIP3    H249800   3.737   3.105  14.200 -1.0274  1.9658 -0.6695
 9437TIP3   OH249801   3.501   0.038  10.520 -0.1053  0.1016  0.3440
 9437TIP3    H149802   3.560   0.007  10.452  3.2113 -0.3010  3.1419
 9437TIP3    H249803   3.469  -0.043  10.562  0.2401  0.3628  1.1160
 9438TIP3   OH249804   4.917   3.877   2.364 -0.2757  0.1020 -0.3453
 9438TIP3    H149805   4.926   3.788   2.331 -1.1491 -0.6398  1.3005
 9438TIP3    H249806   4.833   3.877   2.411 -0.1392  1.7049 -0.0262
 9439TIP3   OH249807   0.565   2.211  16.906 -0.0714 -0.2725  0.2871
 9439TIP3    H149808   0.655   2.210  16.938 -0.0110  0.4780  0.1633
 9439TIP3    H249809   0.561   2.289  16.850 -0.5227 -0.8599 -0.5096
 9440TIP3   OH249810   0.053   3.481  12.248 -0.7462 -0.1854 -0.6905
 9440TIP3    H149811  -0.033   3.457  12.282 -0.9383 -0.0701 -1.0916
 9440TIP3    H249812   0.045   3.574  12.225  0.0351  0.3275  0.9843
 9441TIP3   OH249813   1.108   6.510   2.125  0.1176 -0.0573  0.0779
 9441TIP3    H149814   1.021   6.512   2.164 -0.4243 -0.9567 -1.0049
 9441TIP3    H249815   1.150   6.591   2.153 -0.6200 -0.1717  1.6083
 9442TIP3   OH249816   5.214   2.602  11.478 -0.3385  0.5783  0.1243
 9442TIP3    H149817   5.286   2.608  11.541  0.6222 -0.4482 -0.8503
 9442TIP3    H249818   5.135   2.594  11.533  0.2886  1.4981  1.1969
 9443TIP3   OH249819   0.004   3.361   3.233 -0.5637  0.1900  0.4583
 9443TIP3    H149820   0.052   3.332   3.310  0.2451  1.0313  0.2898
 9443TIP3    H249821   0.023   3.455   3.226  0.9562 -0.1870 -1.8145
 9444TIP3   OH249822   0.716   2.537  15.617  0.5227  0.4714 -0.4599
 9444TIP3    H149823   0.708   2.581  15.532  0.5983  1.5437  0.0633
 9444TIP3    H249824   0.662   2.589  15.676  1.6751  0.6488  0.4721
 9445TIP3   OH249825   2.066   5.720   1.351 -0.1063  0.6167 -0.2937
 9445TIP3    H149826   1.986   5.746   1.307 -0.5612  0.1246  0.2144
 9445TIP3    H249827   2.135   5.730   1.286 -1.0471 -2.2510 -1.8986
 9446TIP3   OH249828   1.168   1.549  12.730  0.2749 -0.5712  0.2224
 9446TIP3    H149829   1.224   1.574  12.803  0.2576  1.5388 -0.4116
 9446TIP3    H249830   1.220   1.569  12.652 -0.8730  0.2702 -0.3586
 9447TIP3   OH249831   2.081   3.161  11.384 -0.1734  0.5113  0.1628
 9447TIP3    H149832   2.000   3.176  11.433  0.4433  1.4500  0.9489
 9447TIP3    H249833   2.150   3.185  11.446  0.6423  1.4721 -1.0755
 9448TIP3   OH249834   6.778   5.392   0.935  0.6768 -0.2820  0.8005
 9448TIP3    H149835   6.744   5.315   0.981 -0.3054 -0.3735 -0.0490
 9448TIP3    H249836   6.752   5.379   0.844 -1.1972  1.9667  0.9344
 9449TIP3   OH249837   3.596   4.164   4.400 -0.4170  0.5825  0.1493
 9449TIP3    H149838   3.602   4.258   4.387 -1.2349  0.6097 -0.1004
 9449TIP3    H249839   3.660   4.127   4.339 -1.6506  0.8819 -1.3896
 9450TIP3   OH249840   2.760   4.699  16.525 -0.1194 -0.7879 -0.1900
 9450TIP3    H149841   2.828   4.760  16.497 -0.0483 -0.5390  0.5275
 9450TIP3    H249842   2.807   4.622  16.557 -0.1151 -0.1712  1.3745
 9451TIP3   OH249843   2.342   2.569   1.778 -0.3685 -0.1684 -0.4688
 9451TIP3    H149844   2.300   2.581   1.693 -0.7121  0.6349 -0.1917
 9451TIP3    H249845   2.427   2.611   1.769 -0.2429 -0.4296 -0.5314
 9452TIP3   OH249846   4.721   5.470   0.986 -0.2959  0.3765  0.1269
 9452TIP3    H149847   4.794   5.529   1.000  0.7124 -1.2272  2.1358
 9452TIP3    H249848   4.669   5.476   1.067 -0.7698 -0.6527 -0.0792
 9453TIP3   OH249849   5.881   1.350  17.050 -0.1829 -0.3486  0.2413
 9453TIP3    H149850   5.840   1.406  17.116  0.7053 -0.7625  1.1567
 9453TIP3    H249851   5.975   1.358  17.066  0.1100  0.1656 -1.4880
 9454TIP3   OH249852   0.230   5.390   0.940  1.0704 -0.0487  0.5076
 9454TIP3    H149853   0.231   5.364   1.032 -0.0227  0.1463  0.5827
 9454TIP3    H249854   0.139   5.412   0.922  1.2192 -0.3545 -0.7039
 9455TIP3   OH249855   5.935   1.670  12.598  0.1204 -0.1286  0.6485
 9455TIP3    H149856   5.949   1.688  12.691  1.1819  2.4647  0.0458
 9455TIP3    H249857   5.876   1.739  12.568  0.7411 -0.2084 -0.8552
 9456TIP3   OH249858   0.598   0.389  16.412  0.4273 -0.2443  0.4672
 9456TIP3    H149859   0.503   0.394  16.424  0.4570 -2.2140  1.9021
 9456TIP3    H249860   0.621   0.472  16.370 -1.9546  0.1567 -0.1884
 9457TIP3   OH249861   5.384   4.002   0.231  0.6107 -0.0925  0.8461
 9457TIP3    H149862   5.420   4.081   0.271  3.4270 -0.3887 -0.8794
 9457TIP3    H249863   5.460   3.955   0.198 -1.2065 -2.1976 -0.5876
 9458TIP3   OH249864   4.699   1.561  14.990 -0.4182  0.2778  0.0579
 9458TIP3    H149865   4.619   1.517  14.961 -1.8088  1.6149  1.6089
 9458TIP3    H249866   4.729   1.509  15.065  0.0456 -0.1114 -0.4004
 9459TIP3   OH249867   2.946   6.233  15.486 -0.5656 -0.2405 -0.3055
 9459TIP3    H149868   3.019   6.197  15.536  1.1587  2.4440 -0.7130
 9459TIP3    H249869   2.882   6.258  15.552 -0.1374 -0.5740  0.2438
 9460TIP3   OH249870   5.720   4.483   2.517 -0.4186  0.3735 -0.5033
 9460TIP3    H149871   5.637   4.518   2.548 -1.2604 -1.1401 -0.9294
 9460TIP3    H249872   5.762   4.446   2.594 -1.3220 -1.0897 -0.6811
 9461TIP3   OH249873   3.292   3.084   3.257 -0.0299  0.0182 -0.2621
 9461TIP3    H149874   3.352   3.143   3.211  1.3330 -2.0806 -1.3607
 9461TIP3    H249875   3.349   3.034   3.315 -0.9152 -1.1026 -0.3249
 9462TIP3   OH249876   2.404   3.347  12.251 -0.1384  0.3951  0.1774
 9462TIP3    H149877   2.453   3.429  12.256  0.8878 -0.1281 -0.7605
 9462TIP3    H249878   2.331   3.359  12.312  0.9422  1.3472  1.3419
 9463TIP3   OH249879   2.905   4.820   0.763 -0.1211  0.6494 -0.6159
 9463TIP3    H149880   2.814   4.830   0.735  0.5481  2.1037 -2.4605
 9463TIP3    H249881   2.903   4.835   0.858 -1.8388  0.2917 -0.5737
 9464TIP3   OH249882   2.408   2.502  14.414  0.1665 -0.0512 -0.2683
 9464TIP3    H149883   2.416   2.530  14.505 -0.0054  0.9942 -0.5610
 9464TIP3    H249884   2.337   2.556  14.379 -0.1530 -0.8442 -0.8779
 9465TIP3   OH249885   1.668   3.870  11.711 -0.2421 -0.9719 -0.4115
 9465TIP3    H149886   1.639   3.865  11.620 -0.2081  1.1384 -0.6080
 9465TIP3    H249887   1.758   3.902  11.706 -0.3302 -0.5672  0.3548
 9466TIP3   OH249888   0.584   6.344  16.446 -0.5291 -0.0782  0.1255
 9466TIP3    H149889   0.617   6.381  16.364  0.6230 -0.3235  0.4631
 9466TIP3    H249890   0.591   6.250  16.434  0.6231 -0.1053  0.8728
 9467TIP3   OH249891   2.297   4.821   0.734 -0.2697  0.7623  0.5556
 9467TIP3    H149892   2.354   4.804   0.809 -3.1264 -2.7736  2.2749
 9467TIP3    H249893   2.223   4.869   0.771 -0.1780  2.0196 -0.8168
 9468TIP3   OH249894   5.824   5.783  10.533  0.2712 -0.4611  0.3087
 9468TIP3    H149895   5.876   5.862  10.517 -0.2228 -0.1007  0.4494
 9468TIP3    H249896   5.861   5.717  10.475  0.5774 -0.0722  0.0609
 9469TIP3   OH249897   0.906   5.379   0.631  0.3496 -0.7848 -0.1085
 9469TIP3    H149898   0.945   5.297   0.664 -1.1734 -0.9086  1.5419
 9469TIP3    H249899   0.819   5.353   0.602 -1.3268  0.6534  3.1908
 9470TIP3   OH249900   1.465   2.103   1.918  0.1635  0.1743  0.0546
 9470TIP3    H149901   1.390   2.163   1.917 -1.4708 -1.7383 -1.7136
 9470TIP3    H249902   1.533   2.148   1.870 -1.9747 -0.3030 -3.8144
 9471TIP3   OH249903   2.911   2.287   0.307  0.0508 -0.1336  0.0970
 9471TIP3    H149904   2.980   2.348   0.332 -0.8742  0.2656  1.7987
 9471TIP3    H249905   2.845   2.342   0.264  0.0119 -0.2394  0.0194
 9472TIP3   OH249906   4.963   5.089  15.551  0.6511 -0.0978 -0.2562
 9472TIP3    H149907   4.964   5.064  15.458  1.4286 -0.4538 -0.1652
 9472TIP3    H249908   4.949   5.006  15.598  0.6593  0.0213 -0.0439
 9473TIP3   OH249909   2.365   3.448  11.285  0.1501 -0.8120  0.2762
 9473TIP3    H149910   2.389   3.385  11.217  0.1416 -2.2370  1.5290
 9473TIP3    H249911   2.270   3.459  11.276  0.2369 -0.5091 -0.3174
 9474TIP3   OH249912   6.140   4.001  13.911 -0.4732 -0.6706  0.2632
 9474TIP3    H149913   6.213   3.967  13.962 -1.6440 -1.0136  1.8042
 9474TIP3    H249914   6.150   4.096  13.916 -0.7290 -0.6890  1.4302
 9475TIP3   OH249915   0.689   3.866   5.705  0.1221  0.0023  0.6309
 9475TIP3    H149916   0.620   3.813   5.665  1.8414 -1.8851 -0.0083
 9475TIP3    H249917   0.733   3.908   5.631  0.6858 -0.1406  0.8801
 9476TIP3   OH249918   1.541   5.259  11.947 -0.0677 -0.7619  0.1117
 9476TIP3    H149919   1.455   5.294  11.968 -0.9014 -2.0616 -0.9818
 9476TIP3    H249920   1.547   5.263  11.852  2.1378  1.6116  0.2512
 9477TIP3   OH249921   3.141   4.223  13.414 -0.1251  0.0392  0.6219
 9477TIP3    H149922   3.183   4.273  13.344 -0.6510 -0.4000 -0.0261
 9477TIP3    H249923   3.047   4.238  13.402 -0.2401 -0.3547  0.9852
 9478TIP3   OH249924   0.065   6.135   1.120  0.4426  0.4029 -0.4428
 9478TIP3    H149925  -0.010   6.178   1.161  0.1071 -0.9333  0.3794
 9478TIP3    H249926   0.028   6.057   1.079  0.9565  1.1220 -2.3863
 9479TIP3   OH249927   1.165   6.131   2.516  0.8410  0.0039 -0.1814
 9479TIP3    H149928   1.198   6.044   2.493  0.5380 -0.2161  0.2103
 9479TIP3    H249929   1.095   6.147   2.453 -0.4237 -0.8725  0.9616
 9480TIP3   OH249930   5.729   4.653  16.870 -0.0285 -0.4054  0.0615
 9480TIP3    H149931   5.692   4.742  16.865 -0.3587 -0.4999  0.6511
 9480TIP3    H249932   5.655   4.595  16.853  0.6021 -0.5672 -2.4533
 9481TIP3   OH249933   2.345   6.076  11.697 -0.2914  0.1094  0.5300
 9481TIP3    H149934   2.255   6.098  11.721 -0.4148  2.1447 -1.4728
 9481TIP3    H249935   2.337   6.021  11.620  0.1758  0.6788  0.0662
 9482TIP3   OH249936   4.921   0.603  11.418  0.1353  0.2098  0.0352
 9482TIP3    H149937   4.899   0.692  11.447 -0.0815 -0.0401  0.6375
 9482TIP3    H249938   4.981   0.570  11.484 -1.5386 -0.9266  1.0648
 9483TIP3   OH249939   5.611   2.446  15.934 -0.2307  0.1284 -0.6198
 9483TIP3    H149940   5.593   2.494  15.853 -0.6152  0.5597 -0.2860
 9483TIP3    H249941   5.706   2.451  15.944 -0.1630 -0.0477 -1.1153
 9484TIP3   OH249942   3.943   0.075   4.935  0.4980 -0.0995 -0.1493
 9484TIP3    H149943   4.023   0.061   4.884  0.7339  1.6777 -0.3192
 9484TIP3    H249944   3.968   0.058   5.026  0.8323 -0.3797 -0.2928
 9485TIP3   OH249945   3.410   1.084  11.021 -0.6551  0.0251  0.4425
 9485TIP3    H149946   3.360   1.163  11.044 -0.2109  0.3388  0.3310
 9485TIP3    H249947   3.346   1.028  10.976 -0.8770  0.4728  0.1910
 9486TIP3   OH249948   6.576   5.709  11.921 -0.1728 -0.1214 -0.1406
 9486TIP3    H149949   6.577   5.700  11.826 -2.7545 -1.4442 -0.1328
 9486TIP3    H249950   6.591   5.803  11.936 -0.9261  0.3352 -1.9263
 9487TIP3   OH249951   2.577   2.641  15.625  0.4227  0.1801  0.5295
 9487TIP3    H149952   2.610   2.696  15.696  1.4269 -0.2025  0.3815
 9487TIP3    H249953   2.578   2.698  15.548 -0.8455  0.6514  0.8395
 9488TIP3   OH249954   2.615   1.610   1.735 -0.1035  0.1979  0.0544
 9488TIP3    H149955   2.637   1.665   1.661  1.3715  0.0408  0.3570
 9488TIP3    H249956   2.671   1.533   1.726 -1.0672 -0.5834  0.4521
 9489TIP3   OH249957   0.348   5.440  12.602 -0.2886  0.1991  0.6404
 9489TIP3    H149958   0.324   5.494  12.677  1.5281 -0.0134  1.4367
 9489TIP3    H249959   0.365   5.353  12.640  1.2244  0.2376  0.0983
 9490TIP3   OH249960   3.827   6.275  15.518 -0.2909  0.3083 -0.2449
 9490TIP3    H149961   3.922   6.274  15.506 -0.2868 -0.9936 -0.2904
 9490TIP3    H249962   3.815   6.265  15.613 -0.3790  0.3922 -0.2474
 9491TIP3   OH249963   6.690   0.759  11.944  0.2361  0.6994  0.5960
 9491TIP3    H149964   6.604   0.793  11.922  0.0967 -0.0595 -0.1180
 9491TIP3    H249965   6.746   0.836  11.952 -0.8954  1.3504  3.0237
 9492TIP3   OH249966   3.997   3.952   2.135  0.3516  0.0597  0.1188
 9492TIP3    H149967   3.937   4.006   2.186 -2.3301 -1.0264 -1.6337
 9492TIP3    H249968   4.038   4.013   2.074 -0.4032  0.5847  0.1152
 9493TIP3   OH249969   4.952   4.410  15.657  0.0442 -0.2684  0.6444
 9493TIP3    H149970   5.041   4.428  15.688  0.2666 -0.3113  0.0465
 9493TIP3    H249971   4.950   4.446  15.568  0.3077 -2.5197 -0.3738
 9494TIP3   OH249972   0.683   1.059   4.767  0.5964 -0.0658  0.2442
 9494TIP3    H149973   0.630   0.981   4.787  2.2402 -0.9947  1.1970
 9494TIP3    H249974   0.702   1.051   4.674  0.5435 -0.6934  0.2785
 9495TIP3   OH249975   4.922   0.701  16.600  0.1398  0.0761  0.3809
 9495TIP3    H149976   4.870   0.657  16.533  0.4855  0.1179  0.0793
 9495TIP3    H249977   4.865   0.706  16.677 -1.5689  3.1150 -0.9090
 9496TIP3   OH249978   1.531   6.136  14.206 -0.0880  0.2157  0.0142
 9496TIP3    H149979   1.523   6.212  14.147  1.0514  1.8040  1.7897
 9496TIP3    H249980   1.574   6.069  14.153 -0.5345  1.0160 -1.4207
 9497TIP3   OH249981   6.006   1.255  13.052 -0.3343  0.7984  0.0209
 9497TIP3    H149982   5.980   1.194  12.983 -1.2646 -1.4550  2.1939
 9497TIP3    H249983   5.925   1.278  13.096  0.2335  2.1922  0.4074
 9498TIP3   OH249984   6.029   1.852   2.852  0.1516 -0.3801 -0.0475
 9498TIP3    H149985   6.109   1.802   2.867 -0.1102 -1.2362 -1.3895
 9498TIP3    H249986   5.958   1.790   2.867 -0.1760 -0.5001 -1.8352
 9499TIP3   OH249987   2.957   3.030   5.173 -0.1878 -0.8102 -0.0810
 9499TIP3    H149988   2.895   3.024   5.100  1.5774 -0.1139 -1.7335
 9499TIP3    H249989   2.991   2.941   5.184 -0.9028 -1.0429  0.3491
 9500TIP3   OH249990   1.683   2.713   0.697  0.4688  0.3735  0.5922
 9500TIP3    H149991   1.752   2.753   0.751  1.0466 -0.6148  0.6149
 9500TIP3    H249992   1.718   2.627   0.674  0.1103  0.6572 -1.1304
 9501TIP3   OH249993   4.313   2.479  10.553  0.9955 -0.4626 -0.3198
 9501TIP3    H149994   4.323   2.384  10.545  0.4360 -0.4627 -1.2433
 9501TIP3    H249995   4.237   2.500  10.498 -0.1527  0.2840  1.4516
 9502TIP3   OH249996   3.843   6.499  14.545 -0.6452 -0.4679  0.2498
 9502TIP3    H149997   3.913   6.561  14.524 -1.4992  0.1855 -0.7772
 9502TIP3    H249998   3.854   6.428  14.481 -1.9788  0.5131 -1.1443
 9503TIP3   OH249999   2.245   4.115  16.054 -0.4725  0.5345 -0.6209
 9503TIP3    H150000   2.319   4.101  16.113 -0.4272  1.5100 -0.4267
 9503TIP3    H250001   2.258   4.051  15.984 -1.4450 -1.8358  1.2154
 9504TIP3   OH250002   3.063   1.365  15.542 -0.3805  0.9736 -0.3160
 9504TIP3    H150003   3.038   1.273  15.531  0.9109  0.5772 -0.0700
 9504TIP3    H250004   2.999   1.400  15.604  1.2071 -0.7552  2.4952
 9505TIP3   OH250005   4.099   3.022   4.511  0.3344  0.3267 -0.3145
 9505TIP3    H150006   4.112   3.078   4.587 -0.7074 -0.0902  0.1997
 9505TIP3    H250007   4.161   2.950   4.523 -0.2740 -0.0805  0.5059
 9506TIP3   OH250008   6.708   0.204   0.403  0.3516 -0.0069  0.1469
 9506TIP3    H150009   6.726   0.134   0.341 -2.1091 -0.5067 -0.0957
 9506TIP3    H250010   6.789   0.256   0.405  1.4516 -1.5688 -1.3320
 9507TIP3   OH250011   4.273   3.142   2.336 -0.1027  0.3554  0.1624
 9507TIP3    H150012   4.290   3.206   2.266 -1.9214 -0.7499 -1.3821
 9507TIP3    H250013   4.197   3.093   2.306  0.0179 -1.2366  2.2299
 9508TIP3   OH250014   3.857   3.767  12.781  0.2107  0.3735 -0.1933
 9508TIP3    H150015   3.884   3.782  12.871  1.3151  3.7888 -0.9169
 9508TIP3    H250016   3.763   3.749  12.787  0.4373 -0.4173  1.6618
 9509TIP3   OH250017   1.045   0.160   1.370 -0.3777  0.1957 -0.2524
 9509TIP3    H150018   1.001   0.180   1.287 -0.0738  0.6434 -0.3049
 9509TIP3    H250019   1.122   0.109   1.344 -1.2812 -1.3076 -0.1031
 9510TIP3   OH250020   2.331   0.950  13.787  0.0156  0.3691 -0.1509
 9510TIP3    H150021   2.294   0.953  13.876  0.2149  1.4292 -0.0864
 9510TIP3    H250022   2.403   0.887  13.794 -1.1959 -1.0636 -0.0704
 9511TIP3   OH250023   4.808   6.199   6.712  0.0065 -0.2121  0.3388
 9511TIP3    H150024   4.836   6.109   6.696  0.8815 -0.5348  3.1567
 9511TIP3    H250025   4.715   6.193   6.733  0.3212 -0.6941  1.7241
 9512TIP3   OH250026   5.278   6.451  16.769  0.3031  0.0066  0.0358
 9512TIP3    H150027   5.208   6.395  16.804  0.6373 -0.3510  0.1312
 9512TIP3    H250028   5.240   6.489  16.689 -0.0819  0.0002  0.2097
 9513TIP3   OH250029   3.358   3.676   3.719  0.0761 -0.3018  0.0423
 9513TIP3    H150030   3.316   3.606   3.769 -0.0770  0.1616  0.5699
 9513TIP3    H250031   3.365   3.641   3.630 -1.8481 -0.2217 -0.1800
 9514TIP3   OH250032   2.010   1.358   4.086  0.9578 -0.0506 -0.7733
 9514TIP3    H150033   1.949   1.307   4.033  1.6987 -2.4886  0.5642
 9514TIP3    H250034   1.977   1.448   4.081 -1.4727 -0.9194 -1.8019
 9515TIP3   OH250035   1.670   0.742  16.692 -0.3770 -0.1843 -0.0222
 9515TIP3    H150036   1.677   0.734  16.596 -0.5876 -0.6156 -0.0054
 9515TIP3    H250037   1.585   0.704  16.713 -1.5840  2.3628  0.0780
 9516TIP3   OH250038   6.195   2.763  15.016  0.5742 -0.4914  0.0463
 9516TIP3    H150039   6.266   2.822  15.040  0.1376  0.1216 -0.1384
 9516TIP3    H250040   6.232   2.708  14.947  1.1257 -0.7382  0.5375
 9517TIP3   OH250041   1.041   6.572  11.068 -0.0885 -0.2126  0.4151
 9517TIP3    H150042   0.950   6.578  11.040 -0.1628 -0.4706  0.5983
 9517TIP3    H250043   1.037   6.562  11.163  0.0778 -1.4318  0.3102
 9518TIP3   OH250044   3.489   1.590   3.593  0.0523  0.3661 -0.0699
 9518TIP3    H150045   3.410   1.644   3.589 -0.3679 -0.2098  0.4298
 9518TIP3    H250046   3.464   1.508   3.550  0.8665  0.7623 -1.3593
 9519TIP3   OH250047   2.322   3.195   0.468 -0.0765 -0.2912  0.2211
 9519TIP3    H150048   2.255   3.170   0.532 -0.8660 -0.6392 -0.7167
 9519TIP3    H250049   2.295   3.153   0.387 -0.7775  2.5453 -1.1424
 9520TIP3   OH250050   2.540   6.158  12.950 -0.6250 -0.4980 -0.7686
 9520TIP3    H150051   2.528   6.087  12.887  0.9467 -0.7663 -0.8114
 9520TIP3    H250052   2.631   6.151  12.978 -1.0576  0.0718  0.9873
 9521TIP3   OH250053   0.368   1.430  14.398  0.5423  0.0120 -0.3505
 9521TIP3    H150054   0.333   1.505  14.349 -0.8793  0.8195  1.7642
 9521TIP3    H250055   0.428   1.469  14.461  1.0903 -0.8302 -0.3372
 9522TIP3   OH250056   6.233   0.706   1.436  0.1729 -0.0875 -0.8994
 9522TIP3    H150057   6.242   0.776   1.501  0.0218 -1.5604  0.7849
 9522TIP3    H250058   6.323   0.687   1.408  0.1907  0.9504 -1.6075
 9523TIP3   OH250059   1.203   1.828   1.702  0.0363  0.2689 -0.1476
 9523TIP3    H150060   1.119   1.784   1.715 -1.1929  2.5840  0.3389
 9523TIP3    H250061   1.180   1.912   1.663  2.0719  1.2616  0.6368
 9524TIP3   OH250062   2.025   0.446  14.000  0.0768  0.7689 -0.4656
 9524TIP3    H150063   2.028   0.355  14.029  1.8442  1.2513  1.0893
 9524TIP3    H250064   2.016   0.496  14.082 -1.8960  1.9933 -1.3532
 9525TIP3   OH250065   4.903   1.839  14.230  0.1275 -0.2872 -0.5544
 9525TIP3    H150066   4.974   1.901  14.221 -0.0822  0.1800  0.7836
 9525TIP3    H250067   4.849   1.874  14.301  0.7421 -2.6746  1.2041
 9526TIP3   OH250068   0.992   0.951  15.692  0.1556  0.5930 -0.0158
 9526TIP3    H150069   0.924   0.889  15.717 -0.6885  1.2375 -0.6343
 9526TIP3    H250070   1.036   0.911  15.618 -0.1865  0.5884 -0.2194
 9527TIP3   OH250071   3.377   6.737   1.501  0.2128  0.2207  0.0676
 9527TIP3    H150072   3.463   6.712   1.469  0.4352 -0.5125  1.2021
 9527TIP3    H250073   3.344   6.799   1.435  0.0064 -2.3281 -2.4012
 9528TIP3   OH250074   1.937   0.016   4.852 -0.0324 -0.5430  0.1517
 9528TIP3    H150075   2.006   0.079   4.833 -0.0457 -0.0905  1.4742
 9528TIP3    H250076   1.920  -0.028   4.769  0.4140  0.7580 -0.6461
 9529TIP3   OH250077   4.065   5.546   2.845  0.0175  0.3858 -0.0476
 9529TIP3    H150078   3.994   5.491   2.812 -0.7616  0.9061  0.7566
 9529TIP3    H250079   4.077   5.518   2.935  2.4992 -1.4000 -0.8033
 9530TIP3   OH250080   4.515   3.913   6.200 -0.0871 -1.1292 -0.5226
 9530TIP3    H150081   4.496   4.001   6.231 -2.4738 -2.2756  1.6432
 9530TIP3    H250082   4.471   3.906   6.116  0.1430 -0.2673 -0.7187
 9531TIP3   OH250083   5.377   1.248  12.796 -0.5764  0.1194  0.2988
 9531TIP3    H150084   5.434   1.325  12.803 -0.0267 -0.3228  0.7197
 9531TIP3    H250085   5.418   1.182  12.851 -0.3571 -0.9093 -1.0628
 9532TIP3   OH250086   4.719   3.589   2.248 -0.6583  0.2524  0.6584
 9532TIP3    H150087   4.771   3.641   2.186 -2.1246 -1.7765 -2.4749
 9532TIP3    H250088   4.774   3.585   2.327  2.0665  1.6365 -1.0116
 9533TIP3   OH250089   4.199   2.743  16.331 -0.0682 -0.2650  0.7519
 9533TIP3    H150090   4.110   2.710  16.320 -0.8941  2.1400 -0.4934
 9533TIP3    H250091   4.233   2.749  16.242  1.7378 -1.9595  1.2449
 9534TIP3   OH250092   1.044   3.768   5.764  0.0526 -0.0340  0.6210
 9534TIP3    H150093   0.957   3.807   5.780  0.4960  0.4931  1.8736
 9534TIP3    H250094   1.098   3.842   5.737 -0.6482 -0.8629 -3.7148
 9535TIP3   OH250095   2.506   2.578  10.642 -0.5580 -0.2083  0.2143
 9535TIP3    H150096   2.470   2.516  10.705 -0.6609 -0.3847 -0.0151
 9535TIP3    H250097   2.430   2.608  10.592 -0.3984 -0.5596 -0.2534
 9536TIP3   OH250098   2.325   5.152   0.392  0.0322  0.6374 -0.3557
 9536TIP3    H150099   2.340   5.064   0.428  0.6173  0.3338 -1.3067
 9536TIP3    H250100   2.256   5.189   0.448  1.8970  0.7681  2.0134
 9537TIP3   OH250101   0.475   5.810  15.629  0.0064  0.1743  0.3148
 9537TIP3    H150102   0.418   5.831  15.702 -1.1097  0.0195 -0.4749
 9537TIP3    H250103   0.450   5.720  15.605  1.8017 -0.5693  1.0287
 9538TIP3   OH250104   1.099   5.586  12.756  0.6150 -0.1948 -0.0947
 9538TIP3    H150105   1.162   5.654  12.779  0.7609 -0.0283 -0.9488
 9538TIP3    H250106   1.100   5.526  12.830  1.9988 -0.3456 -0.2150
 9539TIP3   OH250107   6.575   6.582  13.152 -0.5328  0.0600 -0.1560
 9539TIP3    H150108   6.506   6.634  13.194 -0.9047 -0.3347 -0.2588
 9539TIP3    H250109   6.531   6.541  13.077 -0.8697 -2.1398  1.1547
 9540TIP3   OH250110   0.036   0.515  13.303  0.4366  0.0910  0.0657
 9540TIP3    H150111  -0.031   0.456  13.338  0.1303 -0.0848 -0.7923
 9540TIP3    H250112  -0.013   0.580  13.253  0.8437  0.5263  0.2288
 9541TIP3   OH250113   5.447   0.093   1.079  0.5961 -0.3924  0.3739
 9541TIP3    H150114   5.448  -0.002   1.069  2.9285 -0.5186  1.0927
 9541TIP3    H250115   5.448   0.127   0.990 -2.1420 -0.9532  0.0644
 9542TIP3   OH250116   0.810   2.481   6.020 -0.6095 -0.4582  0.1831
 9542TIP3    H150117   0.860   2.399   6.020  0.9744  0.4586 -0.4546
 9542TIP3    H250118   0.876   2.549   6.037 -1.7923  0.7385  0.1384
 9543TIP3   OH250119   1.411   1.414  11.846  0.2096 -0.0649 -0.2907
 9543TIP3    H150120   1.466   1.337  11.857 -1.5475 -1.2195  0.9128
 9543TIP3    H250121   1.358   1.396  11.769  1.9299  1.3867 -1.9281
 9544TIP3   OH250122   4.999   5.528  12.458  0.2121 -0.1708 -0.0659
 9544TIP3    H150123   5.012   5.623  12.452  1.6112 -0.3773 -0.7389
 9544TIP3    H250124   4.975   5.501  12.370  2.6225 -0.7822 -0.6024
 9545TIP3   OH250125   6.499   0.252  12.710  0.1220  0.5764  0.2333
 9545TIP3    H150126   6.553   0.218  12.639  1.2760 -0.3612  1.5119
 9545TIP3    H250127   6.433   0.184  12.725  0.1693  0.5588  0.3645
 9546TIP3   OH250128   1.330   2.767   3.763 -0.3080 -0.3360  0.2664
 9546TIP3    H150129   1.375   2.797   3.842 -0.4747  1.6973 -0.3575
 9546TIP3    H250130   1.260   2.710   3.795  0.3075 -0.4186  1.5045
 9547TIP3   OH250131   4.535   4.576   5.019  0.6077  0.0581  0.5194
 9547TIP3    H150132   4.599   4.578   5.090  0.2065  0.4078  0.8790
 9547TIP3    H250133   4.579   4.529   4.949  1.9658  1.8396  0.0860
 9548TIP3   OH250134   5.893   0.914  15.407 -0.1277 -0.0410  0.5983
 9548TIP3    H150135   5.888   0.917  15.502 -0.0625 -1.3489  0.6589
 9548TIP3    H250136   5.986   0.929  15.387  0.0668 -0.9302  0.8105
 9549TIP3   OH250137   1.496   1.874  14.843 -0.3543  0.6710 -0.0789
 9549TIP3    H150138   1.544   1.829  14.913  1.4987 -0.4431 -1.9537
 9549TIP3    H250139   1.560   1.933  14.804 -1.0725  0.6023 -1.4062
 9550TIP3   OH250140   0.635   1.830   6.147 -0.2210 -0.3750  0.1168
 9550TIP3    H150141   0.679   1.760   6.197  0.0147  0.4030  1.0319
 9550TIP3    H250142   0.636   1.905   6.206 -1.6238  0.0409 -0.3696
 9551TIP3   OH250143   5.241   0.402  11.335  0.4462 -0.4257 -0.3114
 9551TIP3    H150144   5.210   0.489  11.313  1.1665 -0.0166  0.2571
 9551TIP3    H250145   5.167   0.344  11.315  0.2172  0.2131 -1.4050
 9552TIP3   OH250146   4.502   1.708   2.927 -0.1005  0.3387  0.2642
 9552TIP3    H150147   4.420   1.753   2.904 -1.2343 -0.3998  2.5375
 9552TIP3    H250148   4.559   1.777   2.961  0.3907  0.9120 -1.6423
 9553TIP3   OH250149   2.878   2.429  12.804 -0.5699 -0.2381 -0.2618
 9553TIP3    H150150   2.909   2.507  12.758  1.8673 -0.1378  1.3901
 9553TIP3    H250151   2.852   2.460  12.890 -1.6787 -0.9615 -0.3123
 9554TIP3   OH250152   2.329   1.079  12.291 -0.1440  0.7470 -0.0914
 9554TIP3    H150153   2.401   1.039  12.339  0.7485 -0.2145 -2.1264
 9554TIP3    H250154   2.258   1.014  12.294  0.0333  0.5392 -0.3497
 9555TIP3   OH250155   1.873   5.636   5.618  0.3327  0.1177 -0.4947
 9555TIP3    H150156   1.935   5.701   5.650  1.3906 -1.8626  1.7809
 9555TIP3    H250157   1.928   5.571   5.574  0.0051 -1.6851  1.5893
 9556TIP3   OH250158   6.835   5.436  11.029  0.3771  0.2214 -0.8700
 9556TIP3    H150159   6.827   5.470  11.118 -0.3562 -0.3523 -0.7047
 9556TIP3    H250160   6.891   5.359  11.037 -0.1632 -0.1697 -0.8041
 9557TIP3   OH250161   0.826   3.164  15.233  0.0481  0.0632 -0.2840
 9557TIP3    H150162   0.768   3.138  15.161  0.0521  0.1866 -0.3312
 9557TIP3    H250163   0.881   3.087  15.247 -0.1514 -0.0692 -0.2142
 9558TIP3   OH250164   4.309   1.795  10.857 -0.6360 -0.2826  0.0459
 9558TIP3    H150165   4.269   1.724  10.806  2.3546 -1.9008 -0.2517
 9558TIP3    H250166   4.277   1.875  10.814 -0.5430 -1.5175 -2.5638
 9559TIP3   OH250167   4.762   2.429   1.155 -0.0209  0.1943  0.4849
 9559TIP3    H150168   4.763   2.336   1.176  0.0701  0.1611  0.3330
 9559TIP3    H250169   4.798   2.472   1.233 -0.7198  0.1597  0.8353
 9560TIP3   OH250170   6.593   3.191  14.397 -0.0397 -0.2132 -0.8457
 9560TIP3    H150171   6.666   3.213  14.340  0.0042  1.2044 -0.2851
 9560TIP3    H250172   6.580   3.269  14.452 -1.3240 -0.8023 -0.2493
 9561TIP3   OH250173   4.401   1.258  16.008 -0.1737 -0.0362 -0.6356
 9561TIP3    H150174   4.403   1.190  15.940  1.2119  0.2229 -0.8944
 9561TIP3    H250175   4.334   1.319  15.978 -0.4467 -0.5654 -1.1333
 9562TIP3   OH250176   4.382   0.306  14.298 -0.1115 -0.0216 -0.1889
 9562TIP3    H150177   4.453   0.327  14.358 -0.4384 -2.2921  1.0930
 9562TIP3    H250178   4.303   0.333  14.345 -0.2025  1.9494 -1.3644
 9563TIP3   OH250179   2.541   6.678   1.686 -0.2723 -0.3556 -0.2865
 9563TIP3    H150180   2.518   6.722   1.604 -1.7616 -1.3545 -0.4506
 9563TIP3    H250181   2.520   6.585   1.670 -2.5532 -0.3097  1.8150
 9564TIP3   OH250182   2.400   2.837  12.718  0.1070 -0.2852 -0.2232
 9564TIP3    H150183   2.310   2.804  12.723 -0.3996  1.1975  1.0244
 9564TIP3    H250184   2.438   2.815  12.803 -0.3021  2.3929  0.7249
 9565TIP3   OH250185   4.727   3.842  16.382  0.1978 -0.2941 -0.1921
 9565TIP3    H150186   4.695   3.839  16.291 -0.1812 -1.1139 -0.0334
 9565TIP3    H250187   4.651   3.820  16.435  0.3454  0.4656  0.3572
 9566TIP3   OH250188   1.453   2.259  11.320  0.4230 -0.1624  0.2090
 9566TIP3    H150189   1.461   2.167  11.343 -1.6286 -0.5624 -0.3875
 9566TIP3    H250190   1.497   2.267  11.235 -0.8409 -1.0117 -0.5534
 9567TIP3   OH250191   3.156   3.539  10.199  0.2828  0.2087 -0.0627
 9567TIP3    H150192   3.172   3.531  10.293  1.2018 -0.9881 -0.3029
 9567TIP3    H250193   3.162   3.634  10.182  0.3616  0.4112  1.0318
 9568TIP3   OH250194   3.950   1.978  12.902  0.2760 -0.2466  0.0146
 9568TIP3    H150195   4.014   1.925  12.948  1.0366  1.8533  1.5456
 9568TIP3    H250196   3.870   1.926  12.903  1.4885 -2.2099 -0.4581
 9569TIP3   OH250197   5.365   0.099  14.080 -0.0785 -0.1179 -0.0081
 9569TIP3    H150198   5.348   0.177  14.027 -0.9497  0.7000  1.4136
 9569TIP3    H250199   5.374   0.028  14.016 -3.1613  0.4209 -1.2251
 9570TIP3   OH250200   0.373   5.541   0.752  0.0948 -0.4768 -0.2949
 9570TIP3    H150201   0.338   5.499   0.830  1.1954  1.7097  1.4791
 9570TIP3    H250202   0.445   5.483   0.724 -0.2148 -1.1977  0.3755
 9571TIP3   OH250203   5.674   5.009  14.722  0.2097 -0.1276  0.3660
 9571TIP3    H150204   5.644   4.960  14.798 -0.5901 -0.1035  0.0788
 9571TIP3    H250205   5.756   5.049  14.750 -0.5090  0.6009  1.5084
 9572TIP3   OH250206   0.664   5.028  14.657  0.1283 -0.1098 -0.3783
 9572TIP3    H150207   0.613   5.039  14.577 -0.0296  2.4702 -0.0116
 9572TIP3    H250208   0.624   4.952  14.701 -1.3373 -0.0901 -1.5992
 9573TIP3   OH250209   4.578   5.598   2.082  0.2866  0.0230  0.1793
 9573TIP3    H150210   4.615   5.539   2.017  0.8834 -0.1718  0.6804
 9573TIP3    H250211   4.630   5.678   2.075 -0.8581  0.7040 -0.8597
 9574TIP3   OH250212   5.255   5.683  16.149 -0.3325  0.2567 -0.0938
 9574TIP3    H150213   5.338   5.721  16.178 -0.6109  1.0707 -0.3491
 9574TIP3    H250214   5.189   5.728  16.202 -0.5580 -1.0163  0.7462
 9575TIP3   OH250215   3.022   0.313  15.660  0.4975  0.5561  0.2356
 9575TIP3    H150216   2.937   0.343  15.691 -0.2118 -0.2900 -0.8054
 9575TIP3    H250217   3.081   0.326  15.735 -1.0426 -1.0994  1.8374
 9576TIP3   OH250218   0.045   0.979  14.730 -0.2225  0.3393  0.3321
 9576TIP3    H150219   0.054   0.921  14.806 -0.0100  0.4268  0.3760
 9576TIP3    H250220   0.061   1.067  14.765 -0.4063  0.4109  0.2390
 9577TIP3   OH250221   6.656   5.991  10.398 -0.1530  0.0437  0.0776
 9577TIP3    H150222   6.745   6.018  10.376 -0.5325  2.5864  1.3438
 9577TIP3    H250223   6.655   5.990  10.494 -1.4429 -0.1492  0.0767
 9578TIP3   OH250224   0.158   3.415  16.492  0.0292 -0.1779 -0.0793
 9578TIP3    H150225   0.104   3.337  16.478  0.1358 -0.1923 -0.4143
 9578TIP3    H250226   0.148   3.434  16.586 -0.1439 -0.4837 -0.0317
 9579TIP3   OH250227   5.026   3.153  14.455 -0.2934  0.3243  0.2722
 9579TIP3    H150228   5.097   3.211  14.481  1.1792 -1.2808  0.0167
 9579TIP3    H250229   4.969   3.149  14.532  0.7460  0.4108  1.0708
 9580TIP3   OH250230   2.082   2.140   3.727 -0.0169  0.1843  0.2186
 9580TIP3    H150231   2.029   2.166   3.652 -0.0261 -2.3878 -0.7930
 9580TIP3    H250232   2.163   2.106   3.688  1.4826  1.9791  1.6082
 9581TIP3   OH250233   4.992   4.893   6.339  0.1857  0.3334 -0.7684
 9581TIP3    H150234   4.963   4.980   6.314 -0.3415  0.1515 -0.8012
 9581TIP3    H250235   4.917   4.854   6.383  0.9616  0.5270  0.8266
 9582TIP3   OH250236   1.852   5.050   4.926 -0.2660 -0.5504  0.4914
 9582TIP3    H150237   1.900   4.973   4.956  0.8847 -0.2755 -0.5735
 9582TIP3    H250238   1.797   5.019   4.855  0.7545 -0.2779 -0.4421
 9583TIP3   OH250239   5.892   3.041   1.091  0.1455  0.2328  0.4815
 9583TIP3    H150240   5.897   2.985   1.014 -0.8054 -0.6891  1.0614
 9583TIP3    H250241   5.842   3.117   1.061  0.9524  0.5190 -0.1625
 9584TIP3   OH250242   1.622   4.384  14.091  0.1451 -0.3154 -0.1936
 9584TIP3    H150243   1.681   4.457  14.111 -0.6977  0.4876 -0.5770
 9584TIP3    H250244   1.537   4.411  14.126  0.1663 -1.8312  1.1095
 9585TIP3   OH250245   1.251   4.436   0.803  0.0643 -0.1433 -0.6899
 9585TIP3    H150246   1.249   4.469   0.713 -0.2519 -0.3716 -0.7685
 9585TIP3    H250247   1.217   4.508   0.856  2.5089  0.9280 -0.4379
 9586TIP3   OH250248   2.941   2.679   4.913 -0.3885 -0.0649  0.9074
 9586TIP3    H150249   2.883   2.729   4.856  0.2257 -0.0517  0.2780
 9586TIP3    H250250   2.887   2.656   4.988 -1.0489  0.4172  0.5909
 9587TIP3   OH250251   5.398   2.711  14.431 -0.3526 -0.1240  0.6783
 9587TIP3    H150252   5.357   2.758  14.359 -1.2329 -2.2183 -0.2790
 9587TIP3    H250253   5.483   2.753  14.442 -0.0968  0.1601 -1.7521
 9588TIP3   OH250254   6.764   3.583   4.957 -0.1748 -0.6896  0.2953
 9588TIP3    H150255   6.712   3.502   4.956 -0.0737 -0.7576 -0.5950
 9588TIP3    H250256   6.757   3.616   4.868 -0.0840  0.2125  0.6178
 9589TIP3   OH250257   2.809   6.633  15.886 -0.0112  0.5136  0.2706
 9589TIP3    H150258   2.892   6.658  15.926 -0.6753  1.5549  1.0490
 9589TIP3    H250259   2.789   6.547  15.922 -0.3975  1.2609  1.9308
 9590TIP3   OH250260   5.189   6.709   2.136  0.2558  0.4600 -0.4005
 9590TIP3    H150261   5.220   6.689   2.225 -1.0684 -0.2601 -0.0808
 9590TIP3    H250262   5.118   6.647   2.121  1.6916 -0.7630 -2.7227
 9591TIP3   OH250263   3.742   3.683   4.786  0.6650  0.2040  0.1136
 9591TIP3    H150264   3.769   3.644   4.702  0.7726  2.0416 -0.7524
 9591TIP3    H250265   3.648   3.699   4.775  0.5277 -0.2068  0.6413
 9592TIP3   OH250266   0.713   4.585   3.887 -0.6540  0.3563 -0.4687
 9592TIP3    H150267   0.621   4.596   3.911 -0.3359 -0.7162  1.4430
 9592TIP3    H250268   0.711   4.539   3.804 -1.9028 -1.7058  0.6345
 9593TIP3   OH250269   1.646   6.304  15.086 -0.1362 -0.3776 -0.0772
 9593TIP3    H150270   1.607   6.333  15.003 -1.2701 -1.7047 -0.0470
 9593TIP3    H250271   1.740   6.319  15.075  0.0456 -2.5359 -2.5264
 9594TIP3   OH250272   5.931   2.180  11.652 -0.2354  0.1852  0.3091
 9594TIP3    H150273   6.026   2.180  11.646 -0.2719  0.5335 -0.4421
 9594TIP3    H250274   5.907   2.271  11.667 -0.4505  0.1175  0.3789
 9595TIP3   OH250275   3.212   0.714  10.648 -0.2906 -0.0578  0.3191
 9595TIP3    H150276   3.126   0.705  10.607  0.5051  0.4579 -1.5696
 9595TIP3    H250277   3.200   0.778  10.718 -1.0793  1.4301 -1.1255
 9596TIP3   OH250278   2.857   0.199  13.187 -0.3033 -0.0404 -0.1603
 9596TIP3    H150279   2.824   0.277  13.232 -1.7611 -1.2519  0.9878
 9596TIP3    H250280   2.779   0.147  13.168  0.6474 -1.3315 -0.6741
 9597TIP3   OH250281   0.472   5.258   6.695  0.1076 -0.0698  0.0316
 9597TIP3    H150282   0.471   5.164   6.709  0.3952  0.0076  0.5683
 9597TIP3    H250283   0.460   5.268   6.600  1.1611 -0.6826 -0.1840
 9598TIP3   OH250284   5.322   0.353  10.968 -0.3663 -0.1979 -0.3028
 9598TIP3    H150285   5.312   0.312  11.054  0.0680 -0.1755 -0.2440
 9598TIP3    H250286   5.234   0.349  10.930 -0.5888 -0.0972  0.1899
 9599TIP3   OH250287   4.179   1.058   0.773 -0.1060 -0.0287 -0.4484
 9599TIP3    H150288   4.114   1.120   0.805 -1.2692 -1.1583 -0.5419
 9599TIP3    H250289   4.175   0.985   0.835  0.8495 -0.2664 -0.6414
 9600TIP3   OH250290   4.880   6.560   1.020  0.3229  0.3601  0.0185
 9600TIP3    H150291   4.890   6.621   0.946 -1.1654  0.1983 -0.3508
 9600TIP3    H250292   4.835   6.484   0.982 -0.5877  0.3321  1.1051
 9601TIP3   OH250293   0.710   0.954   5.403 -0.1650  0.3455  1.3094
 9601TIP3    H150294   0.765   0.964   5.325  0.3381 -0.7082  1.5081
 9601TIP3    H250295   0.621   0.950   5.369  0.0125  0.3607  0.8331
 9602TIP3   OH250296   5.127   5.963   4.114 -0.6350 -0.3096 -0.1981
 9602TIP3    H150297   5.153   5.884   4.162  0.0006 -0.4386 -0.7415
 9602TIP3    H250298   5.194   6.027   4.138 -0.5500 -0.2527 -0.5797
 9603TIP3   OH250299   0.730   3.350   3.484  0.1930 -0.1533 -0.5355
 9603TIP3    H150300   0.687   3.320   3.564 -0.7193 -1.2917 -1.4205
 9603TIP3    H250301   0.660   3.350   3.418  0.7643  1.4350 -1.1875
 9604TIP3   OH250302   1.755   0.446   2.955  0.0752  0.0825 -0.1634
 9604TIP3    H150303   1.753   0.427   3.049  0.1105 -1.2128 -0.4088
 9604TIP3    H250304   1.751   0.542   2.950  2.0360  0.2866  1.2110
 9605TIP3   OH250305   3.583   5.162  13.432  0.2915 -0.5711  0.3015
 9605TIP3    H150306   3.608   5.224  13.500 -2.7138  0.4379  0.6135
 9605TIP3    H250307   3.618   5.199  13.351  0.5098  0.2981  0.7845
 9606TIP3   OH250308   5.743   5.485   1.346  0.2322 -0.0221  0.1227
 9606TIP3    H150309   5.777   5.534   1.271  6.5608 -1.5759  1.4085
 9606TIP3    H250310   5.773   5.535   1.422 -1.8280 -0.9290  1.6115
 9607TIP3   OH250311   5.986   6.351  15.380 -0.1256 -0.5033  0.1865
 9607TIP3    H150312   5.929   6.357  15.304  0.2891 -1.1109 -0.1851
 9607TIP3    H250313   5.950   6.279  15.432 -0.0098 -0.5404  0.2174
 9608TIP3   OH250314   3.880   3.926  13.261  0.4648 -0.6020 -0.9607
 9608TIP3    H150315   3.886   4.001  13.319 -2.0336 -1.3411  0.3899
 9608TIP3    H250316   3.892   3.850  13.317 -0.6894 -1.2990 -1.6034
 9609TIP3   OH250317   0.129   3.005  16.765 -0.2499  0.4197 -0.2388
 9609TIP3    H150318   0.223   2.995  16.750  0.0613  1.0200  1.1720
 9609TIP3    H250319   0.122   3.054  16.847 -1.8030 -1.2611  0.7285
 9610TIP3   OH250320   6.002   2.517   0.762  0.0761 -0.2415 -0.0749
 9610TIP3    H150321   5.941   2.554   0.825  0.6081 -0.7789  0.7870
 9610TIP3    H250322   5.952   2.448   0.717  0.0631 -0.7303  0.6761
 9611TIP3   OH250323   3.545   5.447  14.632  0.3186 -0.1685 -0.1127
 9611TIP3    H150324   3.547   5.517  14.698  1.1327  0.1715 -0.4800
 9611TIP3    H250325   3.617   5.390  14.656 -0.4489 -0.9871  0.2817
 9612TIP3   OH250326   1.873   2.635  16.918  0.3116 -0.0821 -0.6530
 9612TIP3    H150327   1.942   2.681  16.869 -0.7844  2.0870 -0.3039
 9612TIP3    H250328   1.845   2.698  16.984 -0.1876 -1.9081  0.9532
 9613TIP3   OH250329   1.155   4.452  12.235  0.1569  0.3557  0.1061
 9613TIP3    H150330   1.191   4.540  12.238  1.3971 -0.1558  1.3366
 9613TIP3    H250331   1.218   4.398  12.282 -0.8638 -1.0985 -0.1003
 9614TIP3   OH250332   1.165   4.799  14.014 -0.1236  0.3815 -0.4630
 9614TIP3    H150333   1.245   4.832  13.973 -0.8961  0.3070 -2.1466
 9614TIP3    H250334   1.175   4.819  14.107  1.8481  0.3425 -0.6230
 9615TIP3   OH250335   4.543   6.659  16.018  0.1232  0.2029  0.3752
 9615TIP3    H150336   4.568   6.594  16.084  0.6029  1.5227  1.5435
 9615TIP3    H250337   4.471   6.707  16.059  0.7274  1.3373  0.1394
 9616TIP3   OH250338   6.756   6.367   0.375 -0.1850 -0.1668 -0.1022
 9616TIP3    H150339   6.774   6.364   0.469 -0.0490 -1.2521 -0.1489
 9616TIP3    H250340   6.835   6.405   0.337  1.2796 -2.8929 -0.0838
 9617TIP3   OH250341   2.333   5.401   0.259  0.2537  0.1068 -0.4736
 9617TIP3    H150342   2.377   5.329   0.304  1.4687  0.1691 -1.5288
 9617TIP3    H250343   2.266   5.430   0.321  1.2480 -0.4383  0.9022
 9618TIP3   OH250344   5.041   5.648  11.358 -0.1068  0.0942 -0.0964
 9618TIP3    H150345   5.081   5.676  11.276 -0.4209  1.6578  0.2515
 9618TIP3    H250346   5.051   5.553  11.359  0.6694  0.1423 -1.5310
 9619TIP3   OH250347   3.267   0.528   3.395 -0.3077  0.1933  0.2213
 9619TIP3    H150348   3.225   0.456   3.347 -0.3833  1.0331 -1.0133
 9619TIP3    H250349   3.345   0.548   3.345  0.0047  0.6129  0.8661
 9620TIP3   OH250350   5.655   2.521   5.318 -0.4078 -0.3479  0.0806
 9620TIP3    H150351   5.561   2.516   5.334 -0.3313  0.2509  0.7363
 9620TIP3    H250352   5.665   2.593   5.256 -0.3454 -0.1867  0.2795
 9621TIP3   OH250353   5.095   1.685   3.586 -0.3511 -0.1893 -0.1067
 9621TIP3    H150354   5.014   1.697   3.536  0.7934  1.1863 -1.7246
 9621TIP3    H250355   5.148   1.762   3.566  0.7511 -0.2715  2.1739
 9622TIP3   OH250356   3.022   3.538  16.114  0.3079 -0.1680 -0.1915
 9622TIP3    H150357   3.002   3.473  16.182  2.3263  0.8261  1.4732
 9622TIP3    H250358   3.097   3.501  16.068 -0.5766 -0.4776 -1.4241
 9623TIP3   OH250359   1.880   4.618  13.144  0.4035 -0.2902 -0.6383
 9623TIP3    H150360   1.865   4.616  13.050  1.0848 -0.5509 -0.7490
 9623TIP3    H250361   1.902   4.527  13.167 -0.2906 -0.3424 -0.1299
 9624TIP3   OH250362   5.933   2.534   3.702 -0.0183  0.0472 -0.7697
 9624TIP3    H150363   5.909   2.598   3.635  1.9575 -0.1448 -1.7412
 9624TIP3    H250364   5.991   2.583   3.761 -1.3289  0.0710  0.5432
 9625TIP3   OH250365   4.634   0.366   2.116 -0.0016 -0.1096  0.3049
 9625TIP3    H150366   4.574   0.440   2.114  1.5020  1.2047  1.0975
 9625TIP3    H250367   4.610   0.318   2.195 -0.1124  0.2956  0.5176
 9626TIP3   OH250368   3.797   1.064   0.984 -0.6216  0.1065 -0.1895
 9626TIP3    H150369   3.848   1.127   1.035  0.3666  1.0556 -2.2061
 9626TIP3    H250370   3.798   0.984   1.036  1.4795  0.6151  0.6608
 9627TIP3   OH250371   0.482   1.124  10.824  0.1680 -0.5399 -0.0164
 9627TIP3    H150372   0.475   1.030  10.809 -0.1731 -0.2056 -2.2717
 9627TIP3    H250373   0.391   1.152  10.840  0.3061 -0.6136  0.9634
 9628TIP3   OH250374   3.089   2.861   5.817  0.4550 -0.1597 -0.1822
 9628TIP3    H150375   3.039   2.825   5.890 -1.6361  0.7809 -1.0734
 9628TIP3    H250376   3.079   2.796   5.747 -0.3154  0.4640 -0.6591
 9629TIP3   OH250377   0.224   0.412  13.853  0.2256  0.1249  0.0887
 9629TIP3    H150378   0.290   0.404  13.922  0.6086 -1.1154 -0.3897
 9629TIP3    H250379   0.271   0.389  13.773 -1.2461 -3.1144 -0.0049
 9630TIP3   OH250380   3.084   1.264  11.772 -0.4690 -0.3661  0.3995
 9630TIP3    H150381   3.108   1.180  11.812 -1.4463 -0.6346  0.4437
 9630TIP3    H250382   3.067   1.322  11.846  0.3347 -0.0793  0.3691
 9631TIP3   OH250383   1.287   5.639  14.740 -0.0437 -0.3008  0.4382
 9631TIP3    H150384   1.335   5.706  14.788 -1.2566  1.6235 -0.8872
 9631TIP3    H250385   1.303   5.661  14.648 -1.6427 -0.9564 -0.0170
 9632TIP3   OH250386   3.868   6.527   0.898 -0.3017 -0.6620  0.3695
 9632TIP3    H150387   3.900   6.522   0.808  0.8303 -0.4519  0.7567
 9632TIP3    H250388   3.838   6.617   0.908 -3.2561 -1.3843 -0.7027
 9633TIP3   OH250389   3.375   6.451  11.487  0.2417 -0.0689  0.2849
 9633TIP3    H150390   3.455   6.399  11.490  0.8164  0.4923 -2.6284
 9633TIP3    H250391   3.404   6.538  11.460 -1.3290  0.0744 -1.0902
 9634TIP3   OH250392   5.630   2.857   5.572  0.1779 -0.3016 -0.3518
 9634TIP3    H150393   5.700   2.794   5.553 -0.7413 -1.2143 -0.8357
 9634TIP3    H250394   5.657   2.900   5.653  0.1920 -2.3001  0.7690
 9635TIP3   OH250395   1.009   5.982  11.225 -0.3665  0.1102  0.0075
 9635TIP3    H150396   1.084   5.935  11.188 -0.2226  2.1690 -2.7536
 9635TIP3    H250397   0.942   5.976  11.157 -2.1986 -0.4045  1.7852
 9636TIP3   OH250398   5.684   0.733  10.739  0.4092 -0.2494 -0.1063
 9636TIP3    H150399   5.600   0.732  10.693 -0.6801  1.4527  1.6662
 9636TIP3    H250400   5.734   0.803  10.696 -1.0633  2.1667  1.8824
 9637TIP3   OH250401   3.064   1.938  14.778  0.2111  0.3482 -0.0649
 9637TIP3    H150402   3.085   1.983  14.696  2.1482  0.6648  0.5592
 9637TIP3    H250403   2.994   1.991  14.816 -1.6560 -0.5218 -2.0627
 9638TIP3   OH250404   0.054   0.733   0.277 -0.1976  0.5695 -0.4763
 9638TIP3    H150405   0.030   0.653   0.231  1.0649  0.0868 -0.3271
 9638TIP3    H250406  -0.026   0.759   0.323 -0.0174 -2.0681  1.6278
 9639TIP3   OH250407   5.807   0.396  16.662 -0.0810  0.1203  0.3616
 9639TIP3    H150408   5.726   0.346  16.671 -0.8317  1.5043  1.6028
 9639TIP3    H250409   5.781   0.487  16.675  1.5391  0.6854 -0.1179
 9640TIP3   OH250410   3.253   6.289  15.929  0.4626  0.1410  0.3089
 9640TIP3    H150411   3.345   6.264  15.935  0.0931 -1.6400 -0.8210
 9640TIP3    H250412   3.240   6.309  15.836 -0.6748 -1.3109  0.1305
 9641TIP3   OH250413   4.913   3.085  12.423 -0.2081  0.1790 -0.1785
 9641TIP3    H150414   4.980   3.120  12.364 -0.4708  2.7366  0.9332
 9641TIP3    H250415   4.830   3.108  12.382 -0.4599 -1.4263 -0.6605
 9642TIP3   OH250416   3.194   0.140  11.734 -0.1386 -0.2611  0.8261
 9642TIP3    H150417   3.152   0.185  11.661 -0.1736  0.7943  1.4847
 9642TIP3    H250418   3.122   0.097  11.781 -0.6298  1.8949  2.2014
 9643TIP3   OH250419   3.935   5.798  14.465 -0.2801  0.5050 -0.1696
 9643TIP3    H150420   4.004   5.736  14.442 -0.1440  1.0286 -1.2380
 9643TIP3    H250421   3.862   5.744  14.492 -0.3871 -0.1674 -1.7059
 9644TIP3   OH250422   0.352   4.320  16.958  0.1120 -0.2657  0.2059
 9644TIP3    H150423   0.402   4.399  16.939  1.2448 -0.6850  1.2679
 9644TIP3    H250424   0.266   4.351  16.985  0.8241  0.6697  1.4725
 9645TIP3   OH250425   3.933   5.066  12.763 -0.3494 -0.5852  0.3393
 9645TIP3    H150426   3.924   4.970  12.768 -2.1006 -0.4709 -0.1952
 9645TIP3    H250427   4.025   5.079  12.740 -0.3514 -2.2070 -0.8052
 9646TIP3   OH250428   0.968   1.314   2.438 -0.3882 -0.4880  0.4405
 9646TIP3    H150429   1.036   1.380   2.423 -1.6193  0.4487 -1.4536
 9646TIP3    H250430   0.941   1.328   2.529 -0.2534  1.3215  0.2559
 9647TIP3   OH250431   1.315   0.859  11.622  1.1592 -0.4851  0.3550
 9647TIP3    H150432   1.236   0.844  11.570  1.6124  0.7121 -0.7202
 9647TIP3    H250433   1.295   0.937  11.674  1.7438  0.0646 -0.2172
 9648TIP3   OH250434   6.329   4.547  16.048  0.0840 -0.1856 -0.6741
 9648TIP3    H150435   6.418   4.579  16.035  0.4214  0.6764  2.8729
 9648TIP3    H250436   6.339   4.453  16.062  0.6597  0.0918  0.9758
 9649TIP3   OH250437   3.489   3.199   1.559  0.1076 -0.1159 -0.2712
 9649TIP3    H150438   3.433   3.242   1.494  0.6299 -0.9618 -1.3207
 9649TIP3    H250439   3.545   3.270   1.592 -0.9703  0.5557  0.1448
 9650TIP3   OH250440   4.806   2.839   4.252 -0.5414 -0.0275 -0.1164
 9650TIP3    H150441   4.829   2.749   4.276  2.3364  0.9400  1.1161
 9650TIP3    H250442   4.863   2.860   4.179 -3.2280 -0.0322 -2.4117
 9651TIP3   OH250443   6.826   2.887  15.618  0.3886 -0.2514  0.5161
 9651TIP3    H150444   6.838   2.806  15.568  0.3052 -0.6616  1.1527
 9651TIP3    H250445   6.773   2.942  15.561  0.8805 -0.4432 -0.1378
 9652TIP3   OH250446   0.580   0.124   5.695  0.0064 -0.4918  0.1133
 9652TIP3    H150447   0.670   0.146   5.671  0.4340  0.5237  2.3947
 9652TIP3    H250448   0.532   0.206   5.683  0.3634  0.2474  3.0222
 9653TIP3   OH250449   4.819   5.861  11.762  0.5041 -0.0023  0.0241
 9653TIP3    H150450   4.842   5.946  11.801 -2.2062  0.5770  0.5529
 9653TIP3    H250451   4.808   5.802  11.836 -1.5358  0.2683 -0.0228
 9654TIP3   OH250452   3.750   3.707  11.245  0.0662  0.1011 -0.1402
 9654TIP3    H150453   3.768   3.614  11.259  0.2289  0.1512  0.0005
 9654TIP3    H250454   3.758   3.719  11.151  1.9018  0.3334  0.0046
 9655TIP3   OH250455   4.025   3.768  16.583 -0.3587 -0.2920 -0.2213
 9655TIP3    H150456   4.041   3.828  16.656 -0.9243 -0.2565 -0.1251
 9655TIP3    H250457   4.091   3.700  16.592 -0.1006 -0.0082  0.0240
 9656TIP3   OH250458   0.869   6.233   2.570 -0.6119  0.1263  0.1555
 9656TIP3    H150459   0.845   6.232   2.662 -1.5591  0.5041 -0.0790
 9656TIP3    H250460   0.792   6.200   2.524 -0.5955  1.0737 -0.5946
 9657TIP3   OH250461   1.647   0.496  12.227  0.2106  0.1179 -0.3805
 9657TIP3    H150462   1.646   0.423  12.288 -2.7351  1.1329  0.9853
 9657TIP3    H250463   1.602   0.464  12.149  0.6620 -0.0716 -0.5677
 9658TIP3   OH250464   3.914   5.115   3.870 -0.5847  0.2710  0.1995
 9658TIP3    H150465   3.896   5.200   3.830 -0.2052  0.2244 -0.0845
 9658TIP3    H250466   4.009   5.116   3.886 -0.5430 -0.1774 -0.0016
 9659TIP3   OH250467   5.132   3.094   3.650  0.0202 -0.0175  0.0524
 9659TIP3    H150468   5.084   3.110   3.731 -0.6904 -0.3935 -0.2889
 9659TIP3    H250469   5.165   3.180   3.624 -0.3653  0.2232  0.3589
 9660TIP3   OH250470   6.407   4.759   2.060  0.2789 -0.0313  0.3607
 9660TIP3    H150471   6.356   4.752   2.141 -0.9569  0.3074 -0.3733
 9660TIP3    H250472   6.419   4.668   2.032 -3.2173 -0.1053 -1.4302
 9661TIP3   OH250473   4.746   0.246  12.262 -0.4225  0.2169 -0.4882
 9661TIP3    H150474   4.838   0.256  12.238 -0.1046 -1.2275  0.0130
 9661TIP3    H250475   4.744   0.263  12.356 -1.0660  2.3823 -0.8412
 9662TIP3   OH250476   4.516   5.886   3.529 -0.1796  0.3263 -0.1606
 9662TIP3    H150477   4.559   5.970   3.514 -0.7573  0.5095 -0.8674
 9662TIP3    H250478   4.531   5.837   3.449  1.9703 -1.0938  1.0202
 9663TIP3   OH250479   1.355   0.332   2.056 -0.1028 -0.1520  0.2779
 9663TIP3    H150480   1.289   0.381   2.007  0.5710  0.1842 -0.3071
 9663TIP3    H250481   1.323   0.332   2.146 -1.1628 -0.4417 -0.0826
 9664TIP3   OH250482   2.994   0.610   3.850 -0.2143 -0.5762  0.2726
 9664TIP3    H150483   3.019   0.651   3.932 -1.4204  1.1902 -0.1854
 9664TIP3    H250484   2.900   0.594   3.859 -0.4888  0.2402 -1.0025
 9665TIP3   OH250485   5.244   2.059  10.865 -0.0636 -0.8611 -0.2928
 9665TIP3    H150486   5.326   2.047  10.914 -0.7618 -1.9150  0.6678
 9665TIP3    H250487   5.240   2.153  10.848  0.0353 -0.3866  2.0202
 9666TIP3   OH250488   3.314   6.694  11.709 -0.0689  0.1538 -0.4744
 9666TIP3    H150489   3.357   6.609  11.716  0.7386  0.6091  0.3600
 9666TIP3    H250490   3.328   6.736  11.794  0.0087  1.3163 -1.0277
 9667TIP3   OH250491   6.798   2.552   1.756 -0.3836 -0.1999  0.2875
 9667TIP3    H150492   6.758   2.639   1.757  0.5186  0.2182  0.5424
 9667TIP3    H250493   6.844   2.545   1.840 -1.5405 -1.4624  0.8816
 9668TIP3   OH250494   6.326   5.154  15.572 -0.4141  0.0763  0.3011
 9668TIP3    H150495   6.392   5.163  15.503  0.3943 -0.4691  0.9879
 9668TIP3    H250496   6.242   5.168  15.527  0.1859  1.5579 -0.4528
 9669TIP3   OH250497   0.208   2.515   4.420  0.3966  0.2491 -0.2921
 9669TIP3    H150498   0.168   2.570   4.353 -0.6107 -0.9518 -0.7264
 9669TIP3    H250499   0.227   2.433   4.376  1.2769  0.0137  0.4938
 9670TIP3   OH250500   3.880   3.604   1.526  0.7642 -0.0407 -0.3159
 9670TIP3    H150501   3.823   3.646   1.462  0.6195 -0.4794 -0.4739
 9670TIP3    H250502   3.863   3.510   1.517  1.4923 -0.1789 -0.3482
 9671TIP3   OH250503   6.434   4.492   2.814 -0.8422 -0.1470  0.4726
 9671TIP3    H150504   6.398   4.482   2.902 -1.7779 -1.0271  0.0186
 9671TIP3    H250505   6.399   4.417   2.766 -0.3306  0.3107 -0.6441
 9672TIP3   OH250506   2.480   4.007  14.792  0.6408 -0.0615  0.5949
 9672TIP3    H150507   2.439   4.078  14.741 -0.0335 -0.7284  0.1875
 9672TIP3    H250508   2.572   4.032  14.798  0.1931  1.5109  1.5735
 9673TIP3   OH250509   4.999   1.357   0.497 -0.0744  0.4251 -0.7333
 9673TIP3    H150510   4.996   1.434   0.440 -0.4013  0.7307 -0.3074
 9673TIP3    H250511   4.941   1.379   0.570  0.4233  0.0857 -0.2257
 9674TIP3   OH250512   0.825   3.653  12.822  0.5362 -0.6261 -0.1946
 9674TIP3    H150513   0.873   3.581  12.863 -0.0532 -0.6362  0.5014
 9674TIP3    H250514   0.848   3.730  12.874  0.6782 -0.4213 -0.5563
 9675TIP3   OH250515   5.679   0.132  13.588 -0.0169 -0.5335 -0.7905
 9675TIP3    H150516   5.664   0.085  13.506  2.4190  0.5265 -1.9325
 9675TIP3    H250517   5.743   0.200  13.566  4.6308 -3.1420  2.8144
 9676TIP3   OH250518   5.503   5.588  15.614  0.4155  0.5915 -0.3010
 9676TIP3    H150519   5.500   5.674  15.571  1.6608  0.9885  0.3510
 9676TIP3    H250520   5.452   5.531  15.556  0.3183  1.5643 -1.2215
 9677TIP3   OH250521   1.463   0.453  12.007 -0.1515 -0.2650  0.0739
 9677TIP3    H150522   1.391   0.492  12.057 -1.4246 -0.2125 -1.6776
 9677TIP3    H250523   1.513   0.528  11.976  0.1521 -0.2575  0.5805
 9678TIP3   OH250524   2.021   4.218   0.584 -0.5155 -0.2598 -0.0068
 9678TIP3    H150525   2.018   4.308   0.616  0.0882 -0.0802 -0.4293
 9678TIP3    H250526   2.028   4.227   0.489 -0.3779 -0.7522 -0.0454
 9679TIP3   OH250527   2.757   1.095   3.631 -0.5263  0.4908  0.4692
 9679TIP3    H150528   2.772   1.058   3.717 -1.5012  1.1918  0.9613
 9679TIP3    H250529   2.723   1.183   3.648  2.0646  1.8339 -0.6511
 9680TIP3   OH250530   3.485   3.990  13.532 -0.4738  0.9674  0.1226
 9680TIP3    H150531   3.463   3.904  13.495  0.2918  1.3724 -1.3533
 9680TIP3    H250532   3.402   4.023  13.566 -0.8417 -0.2257  0.4395
 9681TIP3   OH250533   5.231   4.321   0.770  0.4011 -0.0457  0.7069
 9681TIP3    H150534   5.185   4.401   0.794  0.6027  0.4131 -0.3454
 9681TIP3    H250535   5.163   4.263   0.736  0.2645 -0.3091  1.4098
 9682TIP3   OH250536   4.348   6.779  12.084 -0.1453 -0.2389 -0.8004
 9682TIP3    H150537   4.266   6.828  12.086  0.6985  1.2223 -0.9719
 9682TIP3    H250538   4.395   6.813  12.008  2.0851  1.4629  1.1824
 9683TIP3   OH250539   3.988   4.182  12.273 -0.4401  0.0251 -0.1212
 9683TIP3    H150540   4.072   4.192  12.318 -0.9126 -0.8447  0.9995
 9683TIP3    H250541   4.012   4.158  12.184  0.5001  0.0399  0.1128
 9684TIP3   OH250542   3.772   1.633   0.354 -0.2432 -0.0414 -0.7085
 9684TIP3    H150543   3.845   1.594   0.403 -0.7529  0.2747  0.3074
 9684TIP3    H250544   3.694   1.592   0.390 -0.8016  1.8711  0.3619
 9685TIP3   OH250545   3.260   5.808   2.290 -0.4199  0.4351 -0.0364
 9685TIP3    H150546   3.217   5.809   2.204 -1.6846 -1.0870  0.5395
 9685TIP3    H250547   3.277   5.900   2.309 -0.2970  0.8174 -1.8260
 9686TIP3   OH250548   5.639   0.630   4.819 -0.5682 -0.6348 -0.0636
 9686TIP3    H150549   5.712   0.569   4.810 -1.2049 -1.0436 -3.7404
 9686TIP3    H250550   5.565   0.576   4.847  0.0056 -0.5581  1.7208
 9687TIP3   OH250551   4.572   1.735   5.448 -0.9134  0.5868 -0.4157
 9687TIP3    H150552   4.620   1.697   5.374  0.5475  1.0509  0.2512
 9687TIP3    H250553   4.621   1.707   5.525 -1.5073  1.4172  0.2793
 9688TIP3   OH250554   2.063   0.772  15.254  0.4083  0.2685  0.0532
 9688TIP3    H150555   1.979   0.801  15.290  1.0261  1.1975  0.7988
 9688TIP3    H250556   2.041   0.738  15.167 -1.2502 -2.8743  1.5555
 9689TIP3   OH250557   3.556   6.405  11.777  0.6292 -0.0780  0.5700
 9689TIP3    H150558   3.616   6.452  11.719 -0.2516  0.6661  0.2404
 9689TIP3    H250559   3.563   6.452  11.861 -0.5053  0.8981  0.1472
 9690TIP3   OH250560   5.039   1.271  14.957 -0.3003 -0.1172  0.4081
 9690TIP3    H150561   5.012   1.354  14.996 -2.8882 -0.6536 -0.0529
 9690TIP3    H250562   5.070   1.219  15.031  1.3318  1.1813  0.7055
 9691TIP3   OH250563   5.936   2.443   6.844  0.0107  0.0886  0.2986
 9691TIP3    H150564   5.985   2.378   6.896 -1.0807 -2.0722 -1.2125
 9691TIP3    H250565   5.848   2.407   6.838 -0.5057  1.4852 -1.0400
 9692TIP3   OH250566   1.609   3.356   1.132  0.3467  0.1299  0.1585
 9692TIP3    H150567   1.558   3.276   1.120 -2.7385  2.0745 -0.9161
 9692TIP3    H250568   1.583   3.389   1.218 -0.9797  1.5398 -0.7198
 9693TIP3   OH250569   5.675   5.050  10.804  0.7767  0.0496  0.2723
 9693TIP3    H150570   5.635   5.136  10.797 -1.0075 -0.6558  1.1318
 9693TIP3    H250571   5.630   4.997  10.739  1.2168 -0.4670  0.3796
 9694TIP3   OH250572   3.677   2.998  12.327  0.2401  0.4828 -0.8111
 9694TIP3    H150573   3.725   3.077  12.304 -0.9027  0.7812 -2.3370
 9694TIP3    H250574   3.604   3.029  12.380  0.6802  0.2547 -0.0665
 9695TIP3   OH250575   2.571   2.976  10.620  0.0537  0.2681 -0.0012
 9695TIP3    H150576   2.538   3.005  10.705 -1.2938 -1.2926  0.0476
 9695TIP3    H250577   2.661   2.947  10.638  0.3708  1.5101  0.5293
 9696TIP3   OH250578   3.676   2.513   4.434  0.0862 -0.4158  0.0668
 9696TIP3    H150579   3.727   2.435   4.412  2.8485  0.3345  2.9817
 9696TIP3    H250580   3.732   2.586   4.408 -1.3638  0.5692 -0.3701
 9697TIP3   OH250581   5.266   1.114  10.769 -0.1501  0.0720 -0.0904
 9697TIP3    H150582   5.348   1.157  10.791  0.1174  0.5157 -1.7742
 9697TIP3    H250583   5.210   1.184  10.737 -1.4930 -0.1065  1.7264
 9698TIP3   OH250584   3.078   5.842  12.433  0.0558  0.2845  0.1930
 9698TIP3    H150585   2.988   5.846  12.465 -0.2479 -0.1810 -0.5758
 9698TIP3    H250586   3.076   5.892  12.352  0.4278  0.0530  0.0414
 9699TIP3   OH250587   3.615   2.509   0.386 -0.2463  0.2042  0.3229
 9699TIP3    H150588   3.642   2.429   0.430 -0.4194 -1.4738 -2.4089
 9699TIP3    H250589   3.691   2.567   0.391 -0.0166 -0.2086  2.0633
 9700TIP3   OH250590   4.707   3.830  17.044  0.1719  0.4097  0.0724
 9700TIP3    H150591   4.741   3.742  17.057 -1.3541 -0.3723 -1.0307
 9700TIP3    H250592   4.785   3.883  17.024  1.1802 -0.5090  1.3944
 9701TIP3   OH250593   4.106   0.139  16.598 -0.7351 -0.2268 -0.1716
 9701TIP3    H150594   4.035   0.140  16.535 -0.3119  0.2801 -0.6578
 9701TIP3    H250595   4.128   0.232  16.611 -0.3717 -0.3600  0.2119
 9702TIP3   OH250596   0.589   5.025   1.383  0.0049  0.2818 -0.2297
 9702TIP3    H150597   0.497   5.051   1.374 -0.1459  0.9951  2.4967
 9702TIP3    H250598   0.585   4.942   1.429  0.6505  1.9800  3.2168
 9703TIP3   OH250599   3.512   2.412   2.411  0.0679  0.1320 -0.3577
 9703TIP3    H150600   3.489   2.336   2.464  0.3498 -0.7675 -1.4822
 9703TIP3    H250601   3.516   2.379   2.322 -1.0651  1.7413 -1.0663
 9704TIP3   OH250602   3.341   5.111  16.223  0.6396 -0.2118  0.0072
 9704TIP3    H150603   3.406   5.178  16.202 -0.7532  1.3346  0.3532
 9704TIP3    H250604   3.305   5.085  16.138 -0.6332  1.4637 -0.0288
 9705TIP3   OH250605   4.341   5.147   4.460  0.3897 -0.1623 -0.3006
 9705TIP3    H150606   4.405   5.100   4.405  0.0012 -0.7916 -0.2216
 9705TIP3    H250607   4.323   5.227   4.411  0.8747 -0.2047 -0.5609
 9706TIP3   OH250608   0.339   4.400   5.109 -0.0887 -0.7215  0.3411
 9706TIP3    H150609   0.349   4.463   5.038  1.4476 -0.4166  0.7973
 9706TIP3    H250610   0.374   4.445   5.186 -0.0711 -1.6936  0.9148
 9707TIP3   OH250611   1.920   5.612  16.826 -0.3990  0.3013 -0.0760
 9707TIP3    H150612   1.922   5.691  16.772 -0.5776  0.3086 -0.0708
 9707TIP3    H250613   2.007   5.573  16.813 -1.4749 -1.5047 -3.1173
 9708TIP3   OH250614   0.290   3.720  12.999  0.6486 -0.5234  0.2339
 9708TIP3    H150615   0.279   3.632  12.963  3.3688 -0.9818  0.2699
 9708TIP3    H250616   0.338   3.767  12.931  1.1080  0.2648  1.0837
 9709TIP3   OH250617   5.406   1.249   2.419  0.0926 -0.0811 -0.5248
 9709TIP3    H150618   5.393   1.174   2.477 -2.5620  0.2265 -0.5847
 9709TIP3    H250619   5.372   1.220   2.334  1.2315  0.4282 -1.1755
 9710TIP3   OH250620   5.800   4.467  11.613  0.2836  0.0052  0.0377
 9710TIP3    H150621   5.765   4.447  11.700  1.4743  0.8305  0.7359
 9710TIP3    H250622   5.887   4.427  11.613  0.0419 -0.5719 -1.0499
 9711TIP3   OH250623   3.025   1.670  15.565  0.2910  0.3593  0.1692
 9711TIP3    H150624   2.984   1.740  15.616  0.6986 -0.6843  2.0560
 9711TIP3    H250625   2.951   1.620  15.529 -0.4459 -2.1555  4.4126
 9712TIP3   OH250626   3.080   3.722  17.168 -0.2145 -0.1643  0.5447
 9712TIP3    H150627   3.033   3.726  17.085  0.8563  1.5188 -0.0233
 9712TIP3    H250628   3.011   3.731  17.234 -0.8409  1.1390 -0.2391
 9713TIP3   OH250629   1.197   1.527   4.766 -0.3961  0.0998 -0.1291
 9713TIP3    H150630   1.151   1.579   4.700  1.2639 -0.1650 -1.5716
 9713TIP3    H250631   1.256   1.470   4.715 -1.5112 -2.6416  1.3980
 9714TIP3   OH250632   0.362   4.139   3.270  0.2420  0.2119 -0.9975
 9714TIP3    H150633   0.301   4.198   3.314 -1.3646 -0.3201 -2.4019
 9714TIP3    H250634   0.381   4.071   3.335  0.8795  1.3901  0.0968
 9715TIP3   OH250635   6.091   3.446   2.349 -0.3929  0.1155  0.2516
 9715TIP3    H150636   6.174   3.482   2.382 -1.4474  1.6002  1.4252
 9715TIP3    H250637   6.081   3.487   2.263  0.1273 -0.1556  0.0530
 9716TIP3   OH250638   0.596   1.947   4.986  0.0447 -0.0246 -0.3233
 9716TIP3    H150639   0.638   2.031   4.966 -0.4515  0.0726 -1.0123
 9716TIP3    H250640   0.558   1.960   5.073  0.8558  0.1068  0.0190
 9717TIP3   OH250641   3.872   0.426  13.355 -0.5196  0.2236  0.5996
 9717TIP3    H150642   3.817   0.435  13.432 -0.2505 -0.4165  0.8819
 9717TIP3    H250643   3.960   0.413  13.390  0.4178  4.2236  0.1659
 9718TIP3   OH250644   1.845   3.689  11.956 -0.2118 -0.0328  0.1742
 9718TIP3    H150645   1.851   3.785  11.961 -0.0032 -0.0332 -0.0276
 9718TIP3    H250646   1.849   3.670  11.862 -0.5970 -0.2196  0.1960
 9719TIP3   OH250647   1.671   1.832  13.922 -0.2641 -0.5308  0.1177
 9719TIP3    H150648   1.615   1.851  13.847 -0.5641 -0.9939  0.2190
 9719TIP3    H250649   1.679   1.736  13.923  1.6483 -0.4327 -0.6975
 9720TIP3   OH250650   3.320   2.250   2.078 -1.0101 -0.2628  0.3919
 9720TIP3    H150651   3.373   2.321   2.113  2.7370 -2.3846 -0.4925
 9720TIP3    H250652   3.324   2.260   1.983 -1.0855 -1.1925  0.2785
 9721TIP3   OH250653   6.759   5.590   2.129 -0.2833  0.3865 -0.7820
 9721TIP3    H150654   6.698   5.625   2.063 -1.5623 -0.8240 -0.2871
 9721TIP3    H250655   6.705   5.532   2.183  0.7439  1.2832  1.3077
 9722TIP3   OH250656   4.172   2.476   3.329  0.0314 -0.4796 -0.3199
 9722TIP3    H150657   4.129   2.397   3.361  0.3912  0.1092  1.6973
 9722TIP3    H250658   4.264   2.466   3.354  0.3935 -0.1073 -1.4355
 9723TIP3   OH250659   5.384   5.451  14.879 -0.0559 -0.0534  0.7510
 9723TIP3    H150660   5.298   5.466  14.917 -0.4293  0.2027 -0.1692
 9723TIP3    H250661   5.379   5.363  14.841  0.1364 -0.0970  0.8240
 9724TIP3   OH250662   1.993   1.376   1.814  0.3816 -0.0182 -0.5304
 9724TIP3    H150663   1.955   1.447   1.866 -0.5718  1.0389 -2.5698
 9724TIP3    H250664   2.088   1.387   1.824  0.2370 -0.2893  1.5010
 9725TIP3   OH250665   0.571   4.620  11.898 -0.0439  0.1667  0.0897
 9725TIP3    H150666   0.584   4.531  11.865 -1.4031 -0.1814  0.4594
 9725TIP3    H250667   0.584   4.613  11.992 -0.0020  0.3998  0.1009
 9726TIP3   OH250668   2.611   3.792  16.776  0.1249 -0.3073 -0.0810
 9726TIP3    H150669   2.578   3.859  16.716  1.6703  1.5829  1.0604
 9726TIP3    H250670   2.689   3.757  16.732  1.0789  0.8600  0.6180
 9727TIP3   OH250671   6.629   5.248   0.232 -0.2459 -0.7384  0.3670
 9727TIP3    H150672   6.562   5.291   0.285 -0.2022  0.2727 -0.3738
 9727TIP3    H250673   6.693   5.317   0.213  1.3027 -1.7772  1.4895
 9728TIP3   OH250674   3.329   6.411   0.851 -0.2566  0.1296 -0.3004
 9728TIP3    H150675   3.359   6.496   0.883 -0.3078  0.6224 -1.5059
 9728TIP3    H250676   3.265   6.433   0.783 -1.3075 -0.8856  0.3145
 9729TIP3   OH250677   4.372   6.452   4.522 -0.2838  0.8179 -0.5113
 9729TIP3    H150678   4.422   6.479   4.598  0.9339  2.2314 -1.7388
 9729TIP3    H250679   4.283   6.441   4.554  0.2143  1.2679  1.1165
 9730TIP3   OH250680   5.702   3.883   0.924 -0.2340 -0.6181  0.1124
 9730TIP3    H150681   5.710   3.788   0.934  0.9142 -0.4164  1.4447
 9730TIP3    H250682   5.786   3.911   0.888 -0.4170 -0.0605  0.1053
 9731TIP3   OH250683   6.755   5.605   2.496 -0.0776 -0.5324 -0.0566
 9731TIP3    H150684   6.766   5.513   2.520  0.1707 -0.4021  0.3396
 9731TIP3    H250685   6.702   5.642   2.567 -0.1582 -0.3661 -0.2026
 9732TIP3   OH250686   3.030   2.005   4.690  0.0929  0.1286  0.1465
 9732TIP3    H150687   3.006   2.083   4.740 -0.0864 -1.1354  2.1229
 9732TIP3    H250688   3.121   2.021   4.664 -0.0291  1.1143  0.2779
 9733TIP3   OH250689   6.206   3.019  12.353 -0.0945 -0.3315 -0.2542
 9733TIP3    H150690   6.175   2.939  12.312 -2.5076 -0.4559  1.5661
 9733TIP3    H250691   6.203   3.000  12.447  2.2568  0.9205  0.1525
 9734TIP3   OH250692   2.102   6.095   4.300 -0.4843 -0.3924 -0.1250
 9734TIP3    H150693   2.033   6.123   4.240  0.0637  0.5276 -0.3594
 9734TIP3    H250694   2.183   6.106   4.250 -0.2177 -2.6560 -0.2957
 9735TIP3   OH250695   6.528   2.921   0.853 -0.0161  0.5082  0.1613
 9735TIP3    H150696   6.510   2.853   0.918 -0.4880 -0.6876 -1.1629
 9735TIP3    H250697   6.611   2.894   0.813 -1.6574 -1.0901 -2.4789
 9736TIP3   OH250698   3.435   4.557   5.532 -0.2165 -1.1634  0.0762
 9736TIP3    H150699   3.348   4.552   5.492  0.5492 -0.5050 -1.7917
 9736TIP3    H250700   3.486   4.610   5.471  0.9862  0.1230  2.1072
 9737TIP3   OH250701   0.905   1.871  13.662 -0.1654 -0.6320 -0.0942
 9737TIP3    H150702   0.955   1.790  13.677 -0.5726 -1.2004 -1.6869
 9737TIP3    H250703   0.825   1.860  13.714  1.1185  0.1552  2.2407
 9738TIP3   OH250704   3.116   3.404  13.542  0.1920 -0.5123 -0.2111
 9738TIP3    H150705   3.075   3.399  13.628 -2.3031  2.1851 -1.0806
 9738TIP3    H250706   3.175   3.478  13.548 -0.0157 -0.2922 -0.8037
 9739TIP3   OH250707   4.486   6.821   0.491  0.1140 -0.1123 -0.3948
 9739TIP3    H150708   4.503   6.842   0.399 -1.2075  0.8643 -0.4269
 9739TIP3    H250709   4.525   6.893   0.540  0.2401 -0.3018 -0.2135
 9740TIP3   OH250710   5.350   1.097   2.626 -0.3738 -0.1238  0.0541
 9740TIP3    H150711   5.277   1.158   2.635 -0.4214 -0.0276 -0.9180
 9740TIP3    H250712   5.422   1.140   2.673 -0.6158  0.3363  0.0165
 9741TIP3   OH250713   0.590   1.208   5.408 -0.5460  0.3568  0.0975
 9741TIP3    H150714   0.582   1.268   5.483  0.1989 -1.5756  1.8309
 9741TIP3    H250715   0.581   1.121   5.447 -0.6761 -0.7091 -2.1851
 9742TIP3   OH250716   2.661   0.378   5.879 -0.1568 -0.3209  0.0372
 9742TIP3    H150717   2.614   0.314   5.827  1.4553 -1.6626  0.1447
 9742TIP3    H250718   2.754   0.361   5.860  0.3703  0.8555  1.3664
 9743TIP3   OH250719   0.426   4.436  12.271 -0.6770  0.3174 -0.2341
 9743TIP3    H150720   0.479   4.455  12.348 -0.6640 -2.4508  0.5702
 9743TIP3    H250721   0.346   4.488  12.283 -0.3450  0.5251  1.2521
 9744TIP3   OH250722   5.439   3.406  11.453 -0.4885  0.1685  0.2765
 9744TIP3    H150723   5.436   3.337  11.520 -0.3007  1.2523  1.4341
 9744TIP3    H250724   5.531   3.429  11.447 -0.5635  0.3900 -0.0362
 9745TIP3   OH250725   4.369   0.625  14.478  0.0227 -0.0746 -0.0623
 9745TIP3    H150726   4.283   0.657  14.450  0.1455 -0.0933 -0.4695
 9745TIP3    H250727   4.428   0.652  14.408  0.3149 -0.2462  0.1158
 9746TIP3   OH250728   5.988   5.167   1.162  0.0118 -0.8274 -0.1672
 9746TIP3    H150729   5.970   5.128   1.076  0.7769 -0.1345 -0.6573
 9746TIP3    H250730   5.902   5.175   1.203 -0.8580  1.9455 -2.2272
 9747TIP3   OH250731   3.606   6.057  11.842  0.6195 -0.6111  0.2527
 9747TIP3    H150732   3.621   5.983  11.782  3.4486 -2.0401  2.4618
 9747TIP3    H250733   3.672   6.122  11.816  0.6866 -0.5037  0.6890
 9748TIP3   OH250734   6.296   1.432  13.540 -0.0808  0.3896  0.1100
 9748TIP3    H150735   6.317   1.501  13.478 -0.8957  0.6405  0.1037
 9748TIP3    H250736   6.312   1.471  13.626 -1.8016  1.0457  0.1591
 9749TIP3   OH250737   1.515   6.246   1.638 -0.0226 -0.1812  0.1150
 9749TIP3    H150738   1.464   6.196   1.574  0.7151 -0.4535 -0.2692
 9749TIP3    H250739   1.606   6.227   1.617  0.2848  1.2926 -0.0106
 9750TIP3   OH250740   5.071   1.540   1.540  0.0568 -0.3855 -0.2255
 9750TIP3    H150741   5.095   1.456   1.500  0.5814  0.5404 -1.9084
 9750TIP3    H250742   4.986   1.561   1.503 -0.7010 -0.7737  1.2113
 9751TIP3   OH250743   4.803   2.871  11.761  0.3695 -0.3648 -0.4801
 9751TIP3    H150744   4.840   2.918  11.686  0.3212 -1.5071 -1.2488
 9751TIP3    H250745   4.875   2.815  11.791  0.2178 -0.3096 -0.0140
 9752TIP3   OH250746   1.103   1.898  15.313 -0.0105  0.3346 -0.4951
 9752TIP3    H150747   1.073   1.989  15.306  0.9908  0.6870 -0.3305
 9752TIP3    H250748   1.183   1.903  15.366 -0.7463 -0.8198  0.7779
 9753TIP3   OH250749   4.208   6.838   4.878 -0.1531 -0.7533 -0.4861
 9753TIP3    H150750   4.172   6.777   4.813 -0.8709 -1.0000  0.1256
 9753TIP3    H250751   4.211   6.787   4.959  0.1708 -0.2640 -0.1890
 9754TIP3   OH250752   2.499   4.611   0.540 -0.1002 -0.0147  0.5885
 9754TIP3    H150753   2.566   4.592   0.606  0.8535  2.8994  0.6034
 9754TIP3    H250754   2.421   4.632   0.592 -0.3232 -0.9121  0.6407
 9755TIP3   OH250755   2.810   0.766   5.236  0.4696 -0.3398 -0.0255
 9755TIP3    H150756   2.801   0.861   5.227  1.4652  0.0904  2.6656
 9755TIP3    H250757   2.890   0.754   5.288 -0.4640 -2.5677  1.0341
 9756TIP3   OH250758   6.583   4.121  15.483 -0.5738 -0.3966  0.8623
 9756TIP3    H150759   6.566   4.207  15.521 -0.8859 -0.2981  0.5107
 9756TIP3    H250760   6.496   4.082  15.474 -0.5451 -0.2439 -0.1462
 9757TIP3   OH250761   4.872   2.244  12.504 -0.7526  0.6447  0.3772
 9757TIP3    H150762   4.941   2.276  12.562 -1.2419  0.0759  1.2773
 9757TIP3    H250763   4.908   2.163  12.467 -0.3909  1.0720 -0.2341
 9758TIP3   OH250764   4.480   2.988  14.623  0.0386  0.2505 -0.1971
 9758TIP3    H150765   4.436   3.061  14.580 -0.3288  0.8947  1.2072
 9758TIP3    H250766   4.511   3.025  14.706  1.4615 -0.7205 -0.2708
 9759TIP3   OH250767   2.252   1.773  11.653  0.0585  0.0367 -0.3071
 9759TIP3    H150768   2.208   1.688  11.659 -0.9309  0.5804  0.4242
 9759TIP3    H250769   2.203   1.820  11.585  0.2737  0.2095 -0.3422
 9760TIP3   OH250770   2.768   0.553   2.711 -0.3573 -0.3905  0.3061
 9760TIP3    H150771   2.820   0.594   2.779 -1.2875 -0.2670  0.9656
 9760TIP3    H250772   2.687   0.604   2.708 -0.3491 -0.4007 -0.8829
 9761TIP3   OH250773   1.737   4.235  12.749  0.2274  0.1661 -0.4226
 9761TIP3    H150774   1.667   4.206  12.691  0.2996 -0.4183 -0.2178
 9761TIP3    H250775   1.779   4.155  12.779  1.2836  0.5231 -0.8920
 9762TIP3   OH250776   6.440   5.599   3.841  0.1275 -0.1863 -0.5018
 9762TIP3    H150777   6.378   5.648   3.896 -0.5532 -0.7880 -0.6998
 9762TIP3    H250778   6.384   5.536   3.794  0.8909 -0.6951 -0.7392
 9763TIP3   OH250779   3.446   0.695  10.997  0.3583  0.3915 -0.2038
 9763TIP3    H150780   3.354   0.713  10.978  0.4670  0.3295 -0.7993
 9763TIP3    H250781   3.451   0.697  11.093 -0.6920 -1.6922 -0.0594
 9764TIP3   OH250782   3.993   3.317  15.440 -0.0682  0.3951 -0.3146
 9764TIP3    H150783   4.007   3.228  15.407 -2.4205 -0.1880  0.1122
 9764TIP3    H250784   4.023   3.314  15.531 -1.2895 -0.3392  0.0824
 9765TIP3   OH250785   5.383   6.769  17.177 -0.1786 -0.3580 -0.1621
 9765TIP3    H150786   5.398   6.861  17.196 -1.3529 -0.3647  0.9082
 9765TIP3    H250787   5.316   6.769  17.108 -1.6951 -0.3867  1.2454
 9766TIP3   OH250788   1.951   2.706  16.427  0.5514 -0.4534  0.2294
 9766TIP3    H150789   2.036   2.671  16.401  0.3790  0.2544 -1.4002
 9766TIP3    H250790   1.896   2.695  16.350 -1.4005 -2.5268  1.7929
 9767TIP3   OH250791   2.625   0.979   3.419 -0.0802 -0.0207 -0.2588
 9767TIP3    H150792   2.626   1.044   3.348 -0.5472  1.3475  0.9303
 9767TIP3    H250793   2.679   1.018   3.487 -0.4604 -0.8409  0.5303
 9768TIP3   OH250794   5.503   6.036  15.893 -0.2493  0.3317  0.1222
 9768TIP3    H150795   5.453   6.038  15.812 -0.0915 -0.4025  0.0019
 9768TIP3    H250796   5.501   5.945  15.921 -0.6108  0.6397  1.1394
 9769TIP3   OH250797   5.536   0.565   2.727  0.6993  0.0967 -0.2059
 9769TIP3    H150798   5.629   0.591   2.733  0.9505 -0.6303 -0.8563
 9769TIP3    H250799   5.534   0.499   2.658 -0.1248 -0.7564  0.6113
 9770TIP3   OH250800   1.299   6.695  14.413  0.1243 -0.0181  0.7182
 9770TIP3    H150801   1.359   6.731  14.349 -0.8100 -1.2919 -0.9551
 9770TIP3    H250802   1.333   6.608  14.433 -1.7301 -1.2795 -1.2148
 9771TIP3   OH250803   4.723   3.279  11.958  0.0581 -0.6350 -0.0310
 9771TIP3    H150804   4.811   3.255  11.987 -0.0291 -2.1961 -0.9552
 9771TIP3    H250805   4.720   3.252  11.866 -0.5797  1.6885 -0.7742
 9772TIP3   OH250806   6.013   1.110  16.796 -0.1167 -0.5673  0.5276
 9772TIP3    H150807   5.926   1.097  16.834 -0.9116  1.1653 -0.5459
 9772TIP3    H250808   6.000   1.181  16.733  1.9922 -0.6129 -0.0088
 9773TIP3   OH250809   3.576   4.112  13.787  0.4998 -0.1474  0.5144
 9773TIP3    H150810   3.540   4.124  13.699  2.7041 -1.0504 -0.5819
 9773TIP3    H250811   3.597   4.201  13.816 -3.1478  0.5327  1.5552
 9774TIP3   OH250812   6.412   1.277   0.654 -0.4615 -0.2024 -0.2799
 9774TIP3    H150813   6.385   1.333   0.581 -1.0791  0.8221  0.6977
 9774TIP3    H250814   6.392   1.188   0.624 -0.6763  0.1864 -1.3602
 9775TIP3   OH250815   6.549   5.725  17.101  0.0637 -0.7231 -0.0511
 9775TIP3    H150816   6.535   5.683  17.016 -0.2236  0.2266 -0.4741
 9775TIP3    H250817   6.465   5.764  17.124 -0.9325 -3.8072  2.3008
 9776TIP3   OH250818   3.633   1.769   3.061  0.1889 -0.3281 -0.0544
 9776TIP3    H150819   3.620   1.765   3.156  2.0823 -0.2155  0.2450
 9776TIP3    H250820   3.727   1.776   3.050 -0.1149  1.8520 -1.9014
 9777TIP3   OH250821   6.717   4.432   2.474 -0.1609 -0.0113 -0.2183
 9777TIP3    H150822   6.682   4.500   2.532  1.0875  1.7203 -1.3846
 9777TIP3    H250823   6.652   4.362   2.478  0.5141 -0.6866  4.3255
 9778TIP3   OH250824   2.113   3.213  14.717 -0.4887 -0.2011  0.2107
 9778TIP3    H150825   2.028   3.209  14.761 -0.3220 -1.0288  0.4854
 9778TIP3    H250826   2.165   3.274  14.769  0.1592 -2.1571  2.0383
 9779TIP3   OH250827   3.842   0.357   0.309  0.4507 -0.0275  0.5773
 9779TIP3    H150828   3.768   0.417   0.317  0.6120  0.2810 -0.1835
 9779TIP3    H250829   3.915   0.412   0.281  0.5881 -0.5779 -0.1723
 9780TIP3   OH250830   0.482   6.105  15.845 -0.7630 -0.7063  0.2081
 9780TIP3    H150831   0.495   6.128  15.753  0.3320 -0.8964  0.3111
 9780TIP3    H250832   0.393   6.136  15.864  0.4527  3.3851  0.2882
 9781TIP3   OH250833   3.115   2.960   1.839  0.5044 -0.5865  0.6075
 9781TIP3    H150834   3.193   3.000   1.801  0.8599 -0.1558  1.7583
 9781TIP3    H250835   3.108   2.875   1.795 -0.7892  1.0101 -2.5736
 9782TIP3   OH250836   4.515   4.847  12.534  0.3199 -0.1957 -0.3286
 9782TIP3    H150837   4.422   4.868  12.549 -0.0115 -2.1828  0.7940
 9782TIP3    H250838   4.558   4.932  12.532 -1.2925  0.7264  0.9330
 9783TIP3   OH250839   6.533   3.268   5.432  0.0824 -0.0844 -0.1171
 9783TIP3    H150840   6.566   3.183   5.403  0.6618  0.4915 -1.1940
 9783TIP3    H250841   6.543   3.325   5.356  0.0469  1.0512  0.7087
 9784TIP3   OH250842   3.666   6.293   0.534  0.5871  0.1299 -0.4727
 9784TIP3    H150843   3.672   6.262   0.624 -2.0777  1.5593  0.3062
 9784TIP3    H250844   3.611   6.372   0.540 -0.6928 -0.4247 -3.4865
 9785TIP3   OH250845   2.896   5.396   1.631  0.1712 -0.2477 -0.5430
 9785TIP3    H150846   2.974   5.423   1.583 -0.0670 -1.7212 -1.8217
 9785TIP3    H250847   2.905   5.438   1.717  1.7287  0.6178 -1.0972
 9786TIP3   OH250848   6.113   1.820  15.244  0.2824 -0.5779 -0.3694
 9786TIP3    H150849   6.177   1.891  15.250  1.4217 -1.4104 -1.8866
 9786TIP3    H250850   6.060   1.842  15.168 -0.4920 -0.4960  0.1856
 9787TIP3   OH250851   4.095   2.127  14.610  0.0674 -0.2949  0.3882
 9787TIP3    H150852   4.145   2.191  14.560 -0.0808 -0.6025 -0.1566
 9787TIP3    H250853   4.021   2.177  14.646  0.0441 -0.1212  0.1048
 9788TIP3   OH250854   3.644   2.677  16.617 -0.0888  0.4183  0.6207
 9788TIP3    H150855   3.559   2.657  16.656 -0.3768  0.5773  0.0821
 9788TIP3    H250856   3.707   2.626  16.669 -0.7115 -1.1598 -0.1221
 9789TIP3   OH250857   1.743   3.938   4.081 -0.9067 -0.3451 -0.1525
 9789TIP3    H150858   1.662   3.905   4.119  0.4770 -1.8093  1.6978
 9789TIP3    H250859   1.718   4.021   4.040 -2.7610  0.9710  3.2418
 9790TIP3   OH250860   2.077   1.998  12.667 -0.3631  0.2756 -0.3893
 9790TIP3    H150861   2.046   2.021  12.755 -0.3467 -0.7451 -0.1022
 9790TIP3    H250862   2.021   2.048  12.608  0.0999  1.5373  0.2028
 9791TIP3   OH250863   3.023   6.837  13.515 -0.2032 -0.0207  0.5487
 9791TIP3    H150864   3.096   6.828  13.577 -0.6264 -0.4416  1.0014
 9791TIP3    H250865   2.980   6.919  13.540 -0.5139 -0.3094  0.9715
 9792TIP3   OH250866   6.704   4.484   3.353  0.3249  0.2550 -0.0150
 9792TIP3    H150867   6.702   4.478   3.449 -1.8764 -0.2973 -0.0349
 9792TIP3    H250868   6.760   4.559   3.334  0.5888  0.5299  1.7145
 9793TIP3   OH250869   2.854   4.290   3.077  0.6245  0.3892 -0.6280
 9793TIP3    H150870   2.870   4.200   3.107  1.1457  0.6703 -0.0353
 9793TIP3    H250871   2.758   4.300   3.081  0.5921 -0.0226 -0.3463
 9794TIP3   OH250872   6.774   2.186  13.287  0.2793 -0.4826  0.2720
 9794TIP3    H150873   6.823   2.107  13.267  0.0065 -0.1613 -1.9439
 9794TIP3    H250874   6.684   2.167  13.260  0.4904  1.0005 -1.7395
 9795TIP3   OH250875   2.148   1.316   2.773  0.3702  0.2433 -0.1767
 9795TIP3    H150876   2.162   1.343   2.864 -0.9631  0.7065 -0.0792
 9795TIP3    H250877   2.088   1.242   2.779 -1.7601  1.7990 -0.7115
 9796TIP3   OH250878   1.653   5.015  11.614  0.4699 -0.4151  0.8425
 9796TIP3    H150879   1.575   5.039  11.563  1.0152 -0.4482 -0.0167
 9796TIP3    H250880   1.618   4.993  11.701 -0.2865  1.4030  1.0517
 9797TIP3   OH250881   5.660   2.634  14.816  0.2570  0.3867  0.2228
 9797TIP3    H150882   5.631   2.679  14.896 -2.2452 -1.1799  0.3131
 9797TIP3    H250883   5.650   2.699  14.747 -0.6441  0.8197  0.7397
 9798TIP3   OH250884   2.965   1.274  14.473  0.1817  0.1982 -0.2935
 9798TIP3    H150885   2.986   1.183  14.496 -0.6320 -0.6827 -2.6521
 9798TIP3    H250886   3.050   1.317  14.469  0.5434 -0.2963  1.3659
 9799TIP3   OH250887   1.934   4.490   4.943 -0.0692  0.3141 -0.0488
 9799TIP3    H150888   1.982   4.515   5.022 -1.7075  0.9331  0.8210
 9799TIP3    H250889   1.993   4.511   4.871  0.8890  1.1719  0.9465
 9800TIP3   OH250890   4.206   0.308  12.626  0.2071 -0.6930  0.4171
 9800TIP3    H150891   4.129   0.323  12.681  0.1594 -1.8621  0.6896
 9800TIP3    H250892   4.262   0.252  12.678  1.5472  0.6394  0.4666
 9801TIP3   OH250893   6.807   1.061   2.347  0.6855  0.4216 -0.1679
 9801TIP3    H150894   6.719   1.026   2.336  0.6670  0.1821  0.6638
 9801TIP3    H250895   6.804   1.148   2.307 -0.1067  0.6663  0.3996
 9802TIP3   OH250896   6.669   6.746  11.054 -0.2774  0.0571  0.0701
 9802TIP3    H150897   6.645   6.706  10.970  0.8343 -0.4536 -0.0154
 9802TIP3    H250898   6.748   6.796  11.034 -0.8535  1.1758  0.4916
 9803TIP3   OH250899   0.270   5.719  13.226 -0.1612 -0.0424 -0.3502
 9803TIP3    H150900   0.228   5.799  13.193 -0.4971  0.0323  0.2433
 9803TIP3    H250901   0.245   5.651  13.163 -1.1457  0.0078 -0.0366
 9804TIP3   OH250902   5.619   0.943  14.482 -0.8247 -0.3188 -0.3046
 9804TIP3    H150903   5.571   1.008  14.534  0.3001  0.9439 -0.7772
 9804TIP3    H250904   5.585   0.859  14.511 -1.4399  0.4289  1.2546
 9805TIP3   OH250905   6.765   6.493  11.981  1.2313 -0.0638  0.2880
 9805TIP3    H150906   6.750   6.423  12.045 -0.1688  1.0028  1.1837
 9805TIP3    H250907   6.678   6.515  11.949  1.6243  1.4257  0.2088
 9806TIP3   OH250908   4.599   6.033   4.653 -0.1799  0.5405 -0.1509
 9806TIP3    H150909   4.567   5.993   4.734 -0.5512  1.2688  0.0681
 9806TIP3    H250910   4.527   6.088   4.624  0.1147  0.6146 -0.7569
 9807TIP3   OH250911   1.327   0.069  14.926  0.2883 -0.0448 -0.1642
 9807TIP3    H150912   1.320   0.004  14.995  0.0242  0.2866  0.1222
 9807TIP3    H250913   1.271   0.035  14.855  0.8311 -0.5548 -0.3595
 9808TIP3   OH250914   1.740   3.004   1.179 -0.0868 -0.4654 -0.5644
 9808TIP3    H150915   1.699   3.036   1.259  1.4053  1.3734 -0.4643
 9808TIP3    H250916   1.833   3.021   1.192  0.1189  0.7669 -3.0395
 9809TIP3   OH250917   3.323   2.579   1.924  0.2189  0.1797  0.4139
 9809TIP3    H150918   3.393   2.516   1.941 -0.7675 -0.8024  1.0127
 9809TIP3    H250919   3.325   2.593   1.829  0.7247 -0.4179  0.3301
 9810TIP3   OH250920   5.074   2.782  17.076  0.4323  0.2028 -0.2746
 9810TIP3    H150921   5.145   2.772  17.140 -0.7927  0.1622  1.1437
 9810TIP3    H250922   5.041   2.693  17.062 -0.8978  0.4532  0.9865
 9811TIP3   OH250923   5.088   0.520  16.222 -0.0342  0.1101  0.4966
 9811TIP3    H150924   5.052   0.596  16.176  0.2398  0.1412  0.3362
 9811TIP3    H250925   5.087   0.450  16.157 -0.8924 -0.2035  0.8282
 9812TIP3   OH250926   0.599   5.099   1.778  0.2188  0.1773 -0.2977
 9812TIP3    H150927   0.608   5.007   1.753 -0.1110 -0.1025  0.5666
 9812TIP3    H250928   0.688   5.128   1.797  0.4371  0.3060 -1.4345
 9813TIP3   OH250929   2.893   4.094  17.171  0.2759  0.1932 -0.1185
 9813TIP3    H150930   2.881   4.020  17.231  0.1827  0.4294  0.1581
 9813TIP3    H250931   2.863   4.062  17.086 -0.5427  0.1752  0.1739
 9814TIP3   OH250932   1.428   4.184  16.094  0.2287  0.3674  0.3319
 9814TIP3    H150933   1.511   4.157  16.053  0.1631  1.1393 -0.3276
 9814TIP3    H250934   1.440   4.276  16.114  0.8332 -0.3014  3.5405
 9815TIP3   OH250935   4.888   4.583   3.455  0.1515 -0.3712 -0.2453
 9815TIP3    H150936   4.928   4.574   3.368  0.6709  0.4061 -0.0936
 9815TIP3    H250937   4.962   4.590   3.515 -0.0579  3.7808 -0.2223
 9816TIP3   OH250938   4.932   3.973  17.128 -0.0207 -0.7076  0.8061
 9816TIP3    H150939   5.021   3.990  17.159  0.4249 -1.9724  0.2937
 9816TIP3    H250940   4.889   4.058  17.129  2.0493  0.4924 -1.6078
 9817TIP3   OH250941   6.162   4.410   2.640  0.3950 -0.2047 -0.1509
 9817TIP3    H150942   6.154   4.322   2.678  0.7377 -0.4905 -0.7231
 9817TIP3    H250943   6.101   4.464   2.691 -1.1732 -1.1550 -0.9401
 9818TIP3   OH250944   0.152   2.313  11.638  0.6726 -0.4207  0.4030
 9818TIP3    H150945   0.172   2.395  11.593 -0.8405  0.9780  2.1306
 9818TIP3    H250946   0.237   2.278  11.663  1.3773  0.2501 -0.9684
 9819TIP3   OH250947   5.308   0.764   4.095  0.1098 -0.0732 -0.4068
 9819TIP3    H150948   5.291   0.766   4.189 -2.2529 -0.4660 -0.7726
 9819TIP3    H250949   5.248   0.829   4.058 -0.5428 -1.4269 -1.8318
 9820TIP3   OH250950   5.000   5.541   5.571 -0.2944 -0.3342  0.0261
 9820TIP3    H150951   4.962   5.533   5.658  2.7573 -1.5021  1.3953
 9820TIP3    H250952   5.046   5.625   5.571 -0.5580 -0.1797 -0.6037
 9821TIP3   OH250953   3.671   5.017  15.774 -0.1802 -0.0779  0.3817
 9821TIP3    H150954   3.650   5.109  15.757 -0.7218 -0.1821  0.4610
 9821TIP3    H250955   3.657   4.973  15.691 -1.9278 -0.4289  0.8117
 9822TIP3   OH250956   5.935   5.345   5.750  0.1383  1.0251 -0.2161
 9822TIP3    H150957   6.005   5.404   5.721  1.5537 -0.6573 -0.3983
 9822TIP3    H250958   5.955   5.327   5.841  0.3725 -0.0235 -0.4617
 9823TIP3   OH250959   0.782   6.221  13.885 -0.5542 -0.0762  0.3644
 9823TIP3    H150960   0.821   6.210  13.799 -0.6938 -0.1309  0.3090
 9823TIP3    H250961   0.760   6.132  13.914 -2.2971  0.0802 -0.3653
 9824TIP3   OH250962   5.065   2.218  13.632 -0.1981 -0.1909 -0.0223
 9824TIP3    H150963   5.056   2.122  13.636 -0.9857 -0.1350 -0.2072
 9824TIP3    H250964   5.102   2.242  13.717  1.4105 -0.7864 -0.5198
 9825TIP3   OH250965   6.764   3.452   5.300 -0.2689 -0.2652 -0.0033
 9825TIP3    H150966   6.686   3.479   5.251 -0.0153 -0.6795 -0.6513
 9825TIP3    H250967   6.831   3.514   5.274 -0.5765  0.6043  1.1892
 9826TIP3   OH250968   0.388   3.068  13.346  0.6296 -0.5056 -0.8596
 9826TIP3    H150969   0.433   3.134  13.399  0.9573 -1.2599 -0.1763
 9826TIP3    H250970   0.298   3.101  13.339  0.6216 -0.3029  0.0290
 9827TIP3   OH250971   4.434   2.718   4.965 -0.6007 -0.0222  0.1288
 9827TIP3    H150972   4.458   2.646   4.907  0.8714  1.1933 -0.8635
 9827TIP3    H250973   4.391   2.781   4.908  1.4023  1.4582  0.1279
 9828TIP3   OH250974   1.699   4.939   4.744 -0.5127  0.1804  0.9509
 9828TIP3    H150975   1.638   4.865   4.739 -0.4371  0.1938 -2.4181
 9828TIP3    H250976   1.644   5.017   4.744 -0.6310  0.1673 -1.1851
 9829TIP3   OH250977   4.904   4.753  16.706 -0.1465 -1.0161 -0.3071
 9829TIP3    H150978   4.837   4.790  16.650 -0.8222  0.8408  1.5772
 9829TIP3    H250979   4.945   4.684  16.654 -2.4729 -1.1699 -2.0515
 9830TIP3   OH250980   4.042   0.166  14.766 -0.1368 -0.7353 -0.3957
 9830TIP3    H150981   3.949   0.174  14.789 -0.0987 -0.0116 -0.4550
 9830TIP3    H250982   4.088   0.193  14.845  0.0356 -1.6152 -0.1865
 9831TIP3   OH250983   5.649   3.428   0.024 -0.2971 -0.2634  0.2151
 9831TIP3    H150984   5.742   3.451   0.036 -0.0120 -1.2539 -0.0254
 9831TIP3    H250985   5.643   3.404  -0.068 -1.0367  0.8144 -0.0399
 9832TIP3   OH250986   4.953   1.624  11.468 -0.7337  0.2346  0.1619
 9832TIP3    H150987   5.002   1.666  11.397  0.1964  0.3909  0.8727
 9832TIP3    H250988   4.864   1.659  11.459 -0.4901  0.7107 -0.5622
 9833TIP3   OH250989   3.133   4.187   2.625 -0.0636 -0.4569  0.0178
 9833TIP3    H150990   3.161   4.218   2.539 -1.9904  0.7979 -0.2254
 9833TIP3    H250991   3.195   4.228   2.686  0.7085 -0.5416 -0.6881
 9834TIP3   OH250992   1.273   0.036   0.989 -0.0452 -0.0061 -0.6055
 9834TIP3    H150993   1.364   0.016   1.013 -0.7630 -0.4236  2.2069
 9834TIP3    H250994   1.274   0.130   0.971  1.0729 -0.1473 -1.3848
 9835TIP3   OH250995   1.200   3.386   4.964 -0.4335 -0.0658 -0.6981
 9835TIP3    H150996   1.163   3.443   5.031  1.4649 -0.0615  0.4313
 9835TIP3    H250997   1.280   3.431   4.937 -0.2157 -0.9783 -1.6378
 9836TIP3   OH250998   6.072   6.452  16.343 -0.4091 -0.2856 -0.1318
 9836TIP3    H150999   6.033   6.365  16.352 -0.6166 -0.0895  0.9244
 9836TIP3    H251000   6.107   6.472  16.429 -0.2946  0.6533 -0.3875
 9837TIP3   OH251001   1.270   6.666  11.361  0.0154  0.0058  0.3992
 9837TIP3    H151002   1.294   6.591  11.306 -0.6052 -1.3930  1.9159
 9837TIP3    H251003   1.213   6.628  11.428  1.1857  1.4843  2.3512
 9838TIP3   OH251004   3.147   1.281   0.272  0.5488 -0.3620 -0.0451
 9838TIP3    H151005   3.067   1.301   0.320  0.6458  0.4496 -0.2162
 9838TIP3    H251006   3.123   1.289   0.180  1.4491  2.5644 -0.1178
 9839TIP3   OH251007   0.592   3.804  13.138  0.1487  0.6080 -0.2384
 9839TIP3    H151008   0.546   3.833  13.060 -1.4351  2.5515  1.2996
 9839TIP3    H251009   0.567   3.868  13.206  0.9381 -1.3105  2.0034
 9840TIP3   OH251010   1.342   2.806   3.492 -0.7317 -0.2421 -0.1246
 9840TIP3    H151011   1.335   2.718   3.454  1.3618 -0.5220  0.0578
 9840TIP3    H251012   1.335   2.792   3.586  1.3628 -0.4883  0.0388
 9841TIP3   OH251013   5.417   2.807   0.018  0.1028  0.3282 -0.4530
 9841TIP3    H151014   5.428   2.865   0.093 -0.7857  1.4502 -1.1390
 9841TIP3    H251015   5.484   2.836  -0.044  1.1534 -0.9116  0.0586
 9842TIP3   OH251016   2.250   0.314   5.781  0.1300 -0.0706 -0.3202
 9842TIP3    H151017   2.195   0.379   5.737 -1.2623  0.4048  1.9755
 9842TIP3    H251018   2.202   0.232   5.773  0.4916 -0.2543 -0.7076
 9843TIP3   OH251019   5.869   4.811   3.891 -0.1906  0.4562  0.6571
 9843TIP3    H151020   5.811   4.780   3.961  0.4557  1.6170  1.7555
 9843TIP3    H251021   5.879   4.905   3.908  1.0899  0.4974 -0.1788
 9844TIP3   OH251022   3.955   4.221   5.921  0.2358  0.9535  0.5860
 9844TIP3    H151023   3.880   4.210   5.979 -1.2936 -0.1188 -1.4868
 9844TIP3    H251024   3.929   4.291   5.861  0.4920 -0.0490 -0.7226
 9845TIP3   OH251025   6.303   5.355  15.337 -0.4592  0.0265  0.2037
 9845TIP3    H151026   6.286   5.443  15.303  0.2951  1.0728  2.3311
 9845TIP3    H251027   6.216   5.315  15.345 -0.8310  0.6652 -0.5655
 9846TIP3   OH251028   3.136   1.695   0.855 -0.5797  0.0659  0.0803
 9846TIP3    H151029   3.067   1.660   0.799 -0.8239  0.8253 -0.1029
 9846TIP3    H251030   3.135   1.789   0.840  1.5283 -0.0241 -1.1070
 9847TIP3   OH251031   5.387   3.341  12.991  0.0228  0.7389  0.5180
 9847TIP3    H151032   5.363   3.341  12.898  0.2522 -1.7582  0.4001
 9847TIP3    H251033   5.310   3.305  13.035  0.9926 -1.0111  0.8892
 9848TIP3   OH251034   3.184   6.418  14.629 -0.1355  0.6447  0.0298
 9848TIP3    H151035   3.218   6.506  14.612 -0.4523  0.7283 -0.1644
 9848TIP3    H251036   3.236   6.387  14.704 -0.2334  1.1156  0.2958
 9849TIP3   OH251037   5.925   1.052   0.376 -0.2136  0.1037 -0.4778
 9849TIP3    H151038   5.911   1.144   0.397 -0.0012 -0.4212  2.3910
 9849TIP3    H251039   6.002   1.052   0.319 -0.5956  1.7128 -1.0454
 9850TIP3   OH251040   2.811   2.712   5.171 -0.1602  0.5055  0.0016
 9850TIP3    H151041   2.896   2.741   5.203  0.0432  0.5209 -0.5433
 9850TIP3    H251042   2.748   2.754   5.230  0.1805  1.0321 -0.0003
 9851TIP3   OH251043   1.824   5.908  10.871  0.2930  0.5069 -0.7091
 9851TIP3    H151044   1.803   5.891  10.779 -0.0154 -0.7734 -0.4204
 9851TIP3    H251045   1.858   5.998  10.872  0.2608  0.5496 -2.0613
 9852TIP3   OH251046   0.672   2.771  11.802  0.1069 -0.2790 -0.3450
 9852TIP3    H151047   0.655   2.865  11.811 -1.1130 -0.5586  0.5292
 9852TIP3    H251048   0.618   2.744  11.727 -0.1095 -0.4179 -0.1393
 9853TIP3   OH251049   1.433   4.448   0.384  0.1811 -0.6715  0.1052
 9853TIP3    H151050   1.355   4.502   0.399  0.4934  0.3190 -1.5946
 9853TIP3    H251051   1.487   4.462   0.461 -1.2969 -1.4099  1.3392
 9854TIP3   OH251052   5.643   5.328  11.966  0.1355 -0.0476  0.1199
 9854TIP3    H151053   5.590   5.290  12.035  1.5055  0.0872  1.2952
 9854TIP3    H251054   5.581   5.375  11.911 -1.6369 -3.6449 -1.2887
 9855TIP3   OH251055   5.608   6.462  13.162 -0.5398 -0.0151  0.5160
 9855TIP3    H151056   5.569   6.398  13.102  0.9572  0.3089 -0.8986
 9855TIP3    H251057   5.701   6.437  13.165  0.1948  2.3347 -0.4880
 9856TIP3   OH251058   2.492   3.601   2.329 -0.3435  0.3548  0.0237
 9856TIP3    H151059   2.571   3.549   2.343  1.2462  2.3880 -0.9691
 9856TIP3    H251060   2.460   3.621   2.417  1.2805  0.9894  0.4969
 9857TIP3   OH251061   5.677   6.154  11.464  0.0369  0.0849 -0.0759
 9857TIP3    H151062   5.761   6.130  11.427 -0.0722 -0.7943  0.2048
 9857TIP3    H251063   5.625   6.073  11.459 -1.5931  1.1619 -2.3646
 9858TIP3   OH251064   2.134   2.459   3.924 -0.1627  0.0690  0.2667
 9858TIP3    H151065   2.223   2.425   3.913  0.9585  3.5119 -3.8198
 9858TIP3    H251066   2.080   2.402   3.869  0.2274  0.2047 -0.2627
 9859TIP3   OH251067   4.618   4.144  14.681 -0.2637  0.4529 -0.3369
 9859TIP3    H151068   4.605   4.050  14.667  2.0613  0.0494 -0.1126
 9859TIP3    H251069   4.574   4.162  14.765 -0.6750 -0.4279 -0.3497
 9860TIP3   OH251070   3.187   3.945  12.865 -0.5381 -0.1043 -0.3013
 9860TIP3    H151071   3.116   3.935  12.928  0.1302 -2.1674  0.2260
 9860TIP3    H251072   3.145   3.931  12.780 -1.0579  0.4797 -0.1484
 9861TIP3   OH251073   5.599   1.203  13.817 -0.2560 -0.2664  0.0588
 9861TIP3    H151074   5.591   1.249  13.734  2.1254 -0.2534 -0.2332
 9861TIP3    H251075   5.605   1.111  13.793 -0.2392 -0.3233  0.2791
 9862TIP3   OH251076   0.905   2.512   4.725  0.0611  0.0614  0.2849
 9862TIP3    H151077   0.894   2.511   4.630  0.1587 -0.7367  0.2775
 9862TIP3    H251078   0.941   2.426   4.747 -0.3179  0.0919  1.0851
 9863TIP3   OH251079   2.797   2.152  15.144  0.6695  0.2848 -0.2135
 9863TIP3    H151080   2.864   2.135  15.211  0.0276 -0.3516  0.2854
 9863TIP3    H251081   2.769   2.242  15.161 -0.1402 -0.1584  1.0055
 9864TIP3   OH251082   3.354   3.887   5.664 -0.3964 -0.4181  0.1537
 9864TIP3    H151083   3.316   3.866   5.578 -0.7969  0.7170  0.0358
 9864TIP3    H251084   3.307   3.830   5.725 -1.5764  0.2178 -0.1276
 9865TIP3   OH251085   2.686   1.542  16.691 -0.0271 -0.1791 -0.5150
 9865TIP3    H151086   2.688   1.446  16.689 -2.3317 -0.3015 -0.2767
 9865TIP3    H251087   2.775   1.568  16.670  0.6234 -2.3709 -0.7868
 9866TIP3   OH251088   4.913   2.281   2.736 -0.0625 -0.2361  0.2358
 9866TIP3    H151089   4.861   2.200   2.741 -1.2428  0.2422 -2.5355
 9866TIP3    H251090   4.848   2.351   2.733  0.6725  0.4322 -2.4055
 9867TIP3   OH251091   6.219   2.087   4.773 -0.7898 -0.3863  0.0237
 9867TIP3    H151092   6.249   2.149   4.840  1.2704 -0.1630 -1.0409
 9867TIP3    H251093   6.247   2.002   4.807 -1.3718 -0.4779  0.2870
 9868TIP3   OH251094   4.712   0.277  13.456  0.3813 -0.0237  0.0026
 9868TIP3    H151095   4.623   0.311  13.459  0.0644 -0.5980 -1.6344
 9868TIP3    H251096   4.766   0.353  13.437  0.3099  0.3901  1.3417
 9869TIP3   OH251097   3.272   0.605   2.156 -0.1812  0.3498 -0.5667
 9869TIP3    H151098   3.274   0.516   2.191  4.0566  0.1005 -0.9595
 9869TIP3    H251099   3.281   0.594   2.062  4.0657  0.9942 -0.4355
 9870TIP3   OH251100   2.919   3.126  11.196 -0.5640 -0.9705  0.5002
 9870TIP3    H151101   2.855   3.059  11.173 -0.8178 -0.0444 -1.6952
 9870TIP3    H251102   3.002   3.079  11.200 -1.0984 -1.8763  1.7610
 9871TIP3   OH251103   1.924   0.896  16.702  0.6745  0.2742 -0.2257
 9871TIP3    H151104   1.987   0.853  16.760  1.1039  0.2855 -0.6716
 9871TIP3    H251105   1.840   0.885  16.745  1.0092  0.4282  0.4785
 9872TIP3   OH251106   3.727   6.146   6.094  0.5805 -0.1076 -0.3058
 9872TIP3    H151107   3.759   6.106   6.175 -0.4625 -0.6171 -0.1279
 9872TIP3    H251108   3.722   6.073   6.032  0.5361  0.1132 -0.5617
 9873TIP3   OH251109   3.996   2.554  11.104  0.1220 -0.3928 -0.8395
 9873TIP3    H151110   3.923   2.613  11.120 -0.4821 -0.8906 -1.6679
 9873TIP3    H251111   4.053   2.602  11.044  0.8012  0.2373  0.2839
 9874TIP3   OH251112   4.477   1.436   2.871  0.2215  0.6300 -0.5555
 9874TIP3    H151113   4.495   1.530   2.872  1.0478  0.5037 -1.4508
 9874TIP3    H251114   4.515   1.406   2.788 -0.9697 -0.3185 -0.7837
 9875TIP3   OH251115   4.996   5.347  17.091  0.3342  0.0814 -0.7523
 9875TIP3    H151116   4.960   5.269  17.051 -0.4500 -0.4622  0.9206
 9875TIP3    H251117   5.090   5.341  17.077  0.1824 -0.6706 -1.4611
 9876TIP3   OH251118   2.261   4.529   1.130  0.2110  0.7005  0.1284
 9876TIP3    H151119   2.274   4.491   1.043 -2.5150  1.3678 -0.6927
 9876TIP3    H251120   2.193   4.474   1.170 -1.5960  2.7844  0.1105
 9877TIP3   OH251121   6.693   1.332   2.675  0.0564  0.3474  1.0839
 9877TIP3    H151122   6.681   1.240   2.654  0.3000  0.3904  0.7595
 9877TIP3    H251123   6.613   1.356   2.722 -0.8055  0.4205 -0.3670
 9878TIP3   OH251124   2.886   0.722   2.014  0.4412  0.6646  0.1101
 9878TIP3    H151125   2.857   0.722   2.106  0.1785  0.7797  0.0291
 9878TIP3    H251126   2.950   0.794   2.010  1.1848  0.0411  0.4222
 9879TIP3   OH251127   0.039   4.989   5.072  0.4305 -0.4517  0.1751
 9879TIP3    H151128   0.134   4.993   5.061  0.4755  1.6125  0.7780
 9879TIP3    H251129   0.019   4.896   5.084  2.4519 -0.8454  0.7457
 9880TIP3   OH251130   4.529   2.075  14.424  0.5339  0.9687  0.3524
 9880TIP3    H151131   4.480   1.994  14.410  0.7313  0.9340 -0.1563
 9880TIP3    H251132   4.597   2.051  14.486  1.5214  0.3525 -0.9121
 9881TIP3   OH251133   0.094   6.081  11.647 -0.8219 -0.6658 -0.2992
 9881TIP3    H151134   0.134   6.017  11.707 -0.1041  2.3130  2.6941
 9881TIP3    H251135   0.168   6.133  11.615 -1.6775  1.6490  1.2201
 9882TIP3   OH251136   3.198   3.222  12.787 -0.0737  0.6509 -0.2664
 9882TIP3    H151137   3.223   3.303  12.744 -1.1865  1.3633  0.3953
 9882TIP3    H251138   3.107   3.235  12.813 -0.6772 -1.2619 -1.2027
 9883TIP3   OH251139   6.009   2.866  13.676  0.1206  0.4131  0.0041
 9883TIP3    H151140   6.040   2.892  13.763 -0.4310  0.8543  0.0744
 9883TIP3    H251141   6.089   2.853  13.625  0.4379  0.8077  0.3903
 9884TIP3   OH251142   5.095   2.416  15.616 -0.0220  0.1346  0.1025
 9884TIP3    H151143   5.126   2.463  15.694  0.0089 -0.3412  0.3821
 9884TIP3    H251144   5.175   2.390  15.570 -0.0470  1.2567 -0.6106
 9885TIP3   OH251145   5.962   1.116  13.913  0.4801 -0.1045  0.4962
 9885TIP3    H151146   5.930   1.071  13.835 -0.1756  1.0512  0.0637
 9885TIP3    H251147   5.980   1.205  13.883  1.0525  0.1264  1.4741
 9886TIP3   OH251148   6.155   0.797   3.740 -0.4867 -0.2959  0.4039
 9886TIP3    H151149   6.118   0.831   3.822 -0.6273  0.0598  0.1982
 9886TIP3    H251150   6.182   0.876   3.692 -1.4761 -0.4099 -0.3922
 9887TIP3   OH251151   3.546   5.386   5.599 -0.1547  0.0775 -0.3360
 9887TIP3    H151152   3.529   5.475   5.567 -0.5053  0.4327  0.7927
 9887TIP3    H251153   3.481   5.331   5.554  0.3775  0.2888 -1.4132
 9888TIP3   OH251154   2.585   5.090   1.892 -0.2717  0.2848  0.3009
 9888TIP3    H151155   2.628   5.110   1.809 -2.3520  1.4023 -0.5927
 9888TIP3    H251156   2.597   5.169   1.945  0.0715  0.0098  0.6407
 9889TIP3   OH251157   4.193   1.310  14.837  0.6995 -0.7836 -0.1240
 9889TIP3    H151158   4.190   1.393  14.791 -0.3187 -1.1286 -0.7385
 9889TIP3    H251159   4.171   1.245  14.770 -0.7271 -1.3092  0.8005
 9890TIP3   OH251160   6.526   3.356  15.637  0.3109 -0.1619 -0.5187
 9890TIP3    H151161   6.568   3.359  15.723 -2.2996  1.7413  0.8064
 9890TIP3    H251162   6.549   3.269  15.602  2.2553 -0.5923  1.6205
 9891TIP3   OH251163   2.879   6.192   1.658 -0.0701 -0.5181 -0.1242
 9891TIP3    H151164   2.969   6.169   1.680  0.0710 -0.9582 -1.0888
 9891TIP3    H251165   2.883   6.217   1.565 -1.1635 -1.8436 -0.5519
 9892TIP3   OH251166   1.646   1.266   3.755  0.4009  0.0460  0.3313
 9892TIP3    H151167   1.689   1.298   3.676  0.1205 -1.1315 -0.3213
 9892TIP3    H251168   1.594   1.191   3.726  2.1203 -1.9289  1.9735
 9893TIP3   OH251169   5.852   0.758   1.020 -0.3666 -0.0182 -0.1786
 9893TIP3    H151170   5.805   0.738   0.939 -2.8543 -0.8579  1.3502
 9893TIP3    H251171   5.851   0.676   1.069 -0.0935  0.7892  1.2301
 9894TIP3   OH251172   5.436   1.052  10.518 -0.0877  0.2709  0.4754
 9894TIP3    H151173   5.382   1.070  10.595  1.0653 -0.5753  1.5197
 9894TIP3    H251174   5.464   1.138  10.487  0.3274  0.5964  1.6846
 9895TIP3   OH251175   1.037   0.553  11.770 -0.1844  0.0623  0.1816
 9895TIP3    H151176   1.113   0.520  11.723  0.0672  0.1326  0.5357
 9895TIP3    H251177   1.051   0.526  11.861 -0.6600 -0.0661  0.2204
 9896TIP3   OH251178   3.238   1.494  10.501  0.2085 -0.3824  0.3755
 9896TIP3    H151179   3.203   1.582  10.509 -1.5111 -0.9951  0.1006
 9896TIP3    H251180   3.161   1.439  10.484  1.3437 -1.7989 -0.4588
 9897TIP3   OH251181   3.226   4.527  16.744  0.2398  0.1761 -0.1123
 9897TIP3    H151182   3.173   4.605  16.759 -0.1475  0.2533 -1.6539
 9897TIP3    H251183   3.298   4.557  16.688 -1.1596 -0.9148 -2.6815
 9898TIP3   OH251184   4.474   5.476  15.919  0.5686  0.4354  0.0605
 9898TIP3    H151185   4.470   5.525  15.838 -1.0558 -0.4529 -0.4323
 9898TIP3    H251186   4.431   5.532  15.984 -0.2752  0.1648 -0.2503
 9899TIP3   OH251187   1.478   4.924  14.001  0.5679  0.3439 -0.1202
 9899TIP3    H151188   1.438   5.004  14.036  1.4383  0.0101  1.7476
 9899TIP3    H251189   1.558   4.913  14.052  0.7671 -1.4037 -0.7500
 9900TIP3   OH251190   5.769   0.684   1.688  0.2727 -0.3461 -0.6546
 9900TIP3    H151191   5.692   0.680   1.744  1.9142 -1.5706  1.6923
 9900TIP3    H251192   5.790   0.777   1.683 -0.0321 -0.1895  0.6314
 9901TIP3   OH251193   3.070   6.683   5.567 -0.4693  0.3380 -0.2342
 9901TIP3    H151194   3.161   6.676   5.593 -0.5392 -2.7940 -0.5076
 9901TIP3    H251195   3.020   6.674   5.648 -0.6090  1.8740 -0.1092
 9902TIP3   OH251196   1.711   5.002   2.379 -0.2250 -0.0575 -0.4072
 9902TIP3    H151197   1.736   4.916   2.343 -1.3742 -0.6878  0.2484
 9902TIP3    H251198   1.794   5.043   2.402  0.3023 -1.5286  0.4604
 9903TIP3   OH251199   4.645   0.034   5.541 -0.7513 -0.6224  0.2029
 9903TIP3    H151200   4.596   0.117   5.533 -0.0417  0.1604  2.8877
 9903TIP3    H251201   4.578  -0.031   5.562 -1.2058 -0.6297 -1.1196
 9904TIP3   OH251202   0.456   4.209   2.439  0.5110 -0.4936  0.4369
 9904TIP3    H151203   0.455   4.203   2.343 -1.0016  1.7976  0.2299
 9904TIP3    H251204   0.520   4.278   2.458  1.3189 -1.4103  1.1569
 9905TIP3   OH251205   3.288   2.632   1.374  0.0928  0.3229 -0.7458
 9905TIP3    H151206   3.354   2.585   1.323 -0.2864 -0.0587 -0.8876
 9905TIP3    H251207   3.213   2.572   1.378  0.3760  0.0356  0.8873
 9906TIP3   OH251208   5.886   3.148  17.136 -0.4497  0.6493 -0.5226
 9906TIP3    H151209   5.855   3.201  17.210 -1.5417  0.4976 -0.8522
 9906TIP3    H251210   5.922   3.069  17.176 -1.4829  0.3488 -0.1631
 9907TIP3   OH251211   2.061   5.714  11.269  0.2673  0.1420  0.5635
 9907TIP3    H151212   2.102   5.660  11.201 -0.0515  2.0607 -1.2723
 9907TIP3    H251213   1.984   5.751  11.227  0.3625  1.8485  1.7767
 9908TIP3   OH251214   3.348   2.452  14.241  0.6742 -0.1235 -0.4789
 9908TIP3    H151215   3.327   2.450  14.147  1.4404  0.8534 -0.6907
 9908TIP3    H251216   3.396   2.534  14.253  1.9245 -0.9448  0.4834
 9909TIP3   OH251217   5.263   3.773   3.365  0.3549 -0.5700 -0.3744
 9909TIP3    H151218   5.258   3.813   3.278 -0.4728 -0.8727 -0.4711
 9909TIP3    H251219   5.228   3.685   3.354  0.2751 -0.6258  0.2611
 9910TIP3   OH251220   6.407   5.237   2.869 -0.3726 -0.1227  0.5453
 9910TIP3    H151221   6.382   5.250   2.961  0.7479  2.4936  0.5695
 9910TIP3    H251222   6.324   5.219   2.824 -0.8480 -2.3243  2.1119
 9911TIP3   OH251223   1.596   6.796   4.343  0.1372 -0.2856 -0.2073
 9911TIP3    H151224   1.503   6.818   4.344  0.2909  0.3680 -0.0693
 9911TIP3    H251225   1.608   6.746   4.262  0.0053  1.1504 -1.1528
 9912TIP3   OH251226   2.978   3.177   0.402 -0.0962 -0.2662  0.0805
 9912TIP3    H151227   2.936   3.225   0.472 -1.8134  0.7706 -1.5724
 9912TIP3    H251228   3.066   3.214   0.396 -0.3154  0.4107  0.9203
 9913TIP3   OH251229   0.049   2.751  12.828  0.1191  0.6845  0.5307
 9913TIP3    H151230   0.050   2.664  12.789 -0.4252  1.2672 -0.8572
 9913TIP3    H251231   0.139   2.782  12.819  0.2257  0.4212  0.6753
 9914TIP3   OH251232   2.724   4.504   3.710  0.5652  0.0737  0.4154
 9914TIP3    H151233   2.778   4.466   3.780 -0.9085 -0.6433  1.2113
 9914TIP3    H251234   2.727   4.438   3.640 -2.9031 -2.3148  2.2182
 9915TIP3   OH251235   6.634   3.982  14.109 -0.0538  0.3098  0.4126
 9915TIP3    H151236   6.674   3.953  14.191 -0.5853  0.4359  0.7222
 9915TIP3    H251237   6.688   4.055  14.080  1.4429 -1.0878 -0.4993
 9916TIP3   OH251238   5.153   5.042  16.184 -0.4694 -0.3245  0.1324
 9916TIP3    H151239   5.127   5.033  16.276 -0.9358 -0.7427 -0.0333
 9916TIP3    H251240   5.074   5.075  16.141 -0.0325  0.5561  0.0000
 9917TIP3   OH251241   4.345   5.889  13.802 -0.0031 -0.1745 -0.1392
 9917TIP3    H151242   4.347   5.809  13.855  0.3608 -0.2267 -0.2294
 9917TIP3    H251243   4.308   5.861  13.718  0.4509 -0.3244 -0.2928
 9918TIP3   OH251244   0.986   3.170   6.181 -0.0848  0.6088  0.3249
 9918TIP3    H151245   1.064   3.115   6.178 -0.5128  0.0011  0.2216
 9918TIP3    H251246   0.991   3.223   6.101 -0.3876 -0.2724 -0.2831
 9919TIP3   OH251247   2.585   1.001   6.592 -0.1902 -0.5485  0.1817
 9919TIP3    H151248   2.642   0.956   6.654 -0.4358  0.1035  0.8869
 9919TIP3    H251249   2.514   1.036   6.645 -0.7258 -0.4958 -0.5515
 9920TIP3   OH251250   3.839   0.592  11.386  0.4502 -0.0524  0.4893
 9920TIP3    H151251   3.850   0.570  11.293 -0.6231  0.3456  0.2546
 9920TIP3    H251252   3.928   0.598  11.419  0.8443 -0.5321 -0.4373
 9921TIP3   OH251253   3.701   6.313  15.000 -0.6958  0.3208 -0.0955
 9921TIP3    H151254   3.735   6.401  14.981 -0.3736  0.4682  1.1118
 9921TIP3    H251255   3.780   6.259  15.010 -0.8771  0.0783  0.0216
 9922TIP3   OH251256   4.697   3.277   0.756  0.4131 -0.8285  0.0189
 9922TIP3    H151257   4.659   3.333   0.824  2.1469 -0.5407  0.8101
 9922TIP3    H251258   4.625   3.221   0.728 -1.0922  1.0200  0.0157
 9923TIP3   OH251259   4.455   4.054   5.018 -0.9163  0.8189 -0.7287
 9923TIP3    H151260   4.534   4.104   5.038 -1.7403  0.8728  3.1128
 9923TIP3    H251261   4.485   3.963   5.013 -0.2035  1.1170 -2.5488
 9924TIP3   OH251262   5.725   1.594   0.866  0.3948  0.1937 -0.1339
 9924TIP3    H151263   5.715   1.534   0.792  0.4570  1.6305 -1.3536
 9924TIP3    H251264   5.700   1.680   0.832 -0.3120  0.7927  1.7331
 9925TIP3   OH251265   3.372   1.727   5.895 -0.3511 -0.0492  0.0841
 9925TIP3    H151266   3.319   1.778   5.833 -0.5048 -1.1418 -0.7073
 9925TIP3    H251267   3.439   1.789   5.925 -1.6710  1.1852  0.6244
 9926TIP3   OH251268   5.573   2.420   4.455 -0.0896 -0.1416 -0.0776
 9926TIP3    H151269   5.508   2.416   4.525  0.1360  1.9060  0.3220
 9926TIP3    H251270   5.607   2.331   4.448 -1.2185 -0.7173  1.3424
 9927TIP3   OH251271   4.452   2.395  15.188 -0.3063  0.2302  0.6343
 9927TIP3    H151272   4.446   2.440  15.272  0.8590  0.1959  0.7441
 9927TIP3    H251273   4.417   2.458  15.125 -0.4236  0.5697  1.0356
 9928TIP3   OH251274   2.939   2.550  10.165  0.1291 -0.2500 -0.2340
 9928TIP3    H151275   2.904   2.462  10.181 -0.8626  0.1358 -0.1933
 9928TIP3    H251276   3.022   2.535  10.120  0.5838 -1.2357  0.8766
 9929TIP3   OH251277   6.677   3.419   6.312 -0.5079 -0.0254  0.0595
 9929TIP3    H151278   6.710   3.508   6.326  0.7816 -0.7177  1.8443
 9929TIP3    H251279   6.630   3.423   6.229  1.5378  1.7694 -1.1091
 9930TIP3   OH251280   1.353   0.885   4.244 -0.0773  0.2264 -0.4276
 9930TIP3    H151281   1.287   0.858   4.180 -0.1424 -2.1489  0.5471
 9930TIP3    H251282   1.428   0.830   4.226 -0.0828 -0.4745  1.4755
 9931TIP3   OH251283   2.685   4.179   3.834 -0.5258  0.6138 -0.4102
 9931TIP3    H151284   2.749   4.229   3.784 -2.0399  3.0005 -0.1026
 9931TIP3    H251285   2.724   4.169   3.921  0.2785  0.2030 -0.8078
 9932TIP3   OH251286   3.208   5.440  11.893  0.6276  0.6432 -0.3261
 9932TIP3    H151287   3.235   5.532  11.887  0.3920  0.6705 -0.9653
 9932TIP3    H251288   3.112   5.443  11.887  0.6110  0.3638 -0.2198
 9933TIP3   OH251289   6.775   6.706  14.831  0.2258 -0.5890 -0.0244
 9933TIP3    H151290   6.706   6.685  14.893 -0.3831 -0.5149 -0.6741
 9933TIP3    H251291   6.789   6.626  14.782  0.6901 -0.6396  0.1803
 9934TIP3   OH251292   2.881   2.353   4.607  0.5215  0.2084 -0.4614
 9934TIP3    H151293   2.959   2.393   4.570  1.1341 -0.3980  0.1224
 9934TIP3    H251294   2.911   2.315   4.690 -0.5231  0.4629  0.0567
 9935TIP3   OH251295   1.602   0.747  13.451  0.2717  0.2827  0.4086
 9935TIP3    H151296   1.674   0.696  13.487 -0.9609 -1.0852  1.0567
 9935TIP3    H251297   1.523   0.705  13.486 -0.8779  1.0131 -1.1689
 9936TIP3   OH251298   1.337   4.691  16.488 -0.2580 -0.4304 -0.2364
 9936TIP3    H151299   1.282   4.699  16.566 -0.0275 -0.8940 -0.0205
 9936TIP3    H251300   1.371   4.601  16.492  0.8576 -0.0245 -0.1327
 9937TIP3   OH251301   1.993   4.366  17.031 -0.0696  0.3536  0.0840
 9937TIP3    H151302   1.940   4.443  17.052  0.5489  0.9977 -0.6827
 9937TIP3    H251303   1.974   4.349  16.939 -1.4887 -1.4443  0.6500
 9938TIP3   OH251304   1.946   0.648   4.323 -0.2992  0.4292 -0.3059
 9938TIP3    H151305   2.031   0.604   4.328 -0.3238  0.2965 -0.9539
 9938TIP3    H251306   1.892   0.591   4.268 -0.2475  1.3812 -1.3933
 9939TIP3   OH251307   0.247   0.872   6.279  0.1526  0.2083 -0.0554
 9939TIP3    H151308   0.162   0.879   6.323 -0.0824  1.4972 -0.6830
 9939TIP3    H251309   0.301   0.938   6.323  1.0292 -0.9864  0.7244
 9940TIP3   OH251310   5.146   3.699   0.653 -0.1085  0.4008 -0.5140
 9940TIP3    H151311   5.214   3.636   0.677 -0.8791 -0.6753 -1.0613
 9940TIP3    H251312   5.191   3.765   0.601  0.7421  0.3716  0.1782
 9941TIP3   OH251313   0.483   6.827  16.001 -0.2322 -0.1269  0.5708
 9941TIP3    H151314   0.494   6.764  16.072  0.8994 -1.0162 -0.3713
 9941TIP3    H251315   0.469   6.774  15.923 -0.1379  0.8166 -0.1020
 9942TIP3   OH251316   6.501   2.045   5.396 -0.0474  0.5141 -0.4636
 9942TIP3    H151317   6.579   2.024   5.446 -0.2628 -1.1671 -0.7897
 9942TIP3    H251318   6.436   1.980   5.423 -0.6180  0.4782 -1.8347
 9943TIP3   OH251319   2.133   5.367  13.372  0.1832  1.1839  0.2744
 9943TIP3    H151320   2.182   5.321  13.440  0.0559  0.0949 -0.3394
 9943TIP3    H251321   2.167   5.332  13.290 -1.4444  0.5569 -0.1824
 9944TIP3   OH251322   6.315   5.957   2.681  0.1059  0.4033 -0.3119
 9944TIP3    H151323   6.339   5.874   2.640  0.7941  0.5856 -0.2911
 9944TIP3    H251324   6.381   6.018   2.652 -0.2171  0.8742 -0.0693
 9945TIP3   OH251325   4.272   5.060   1.204  0.2429  0.5280 -0.6053
 9945TIP3    H151326   4.301   5.151   1.212  0.8537  0.3945 -1.1988
 9945TIP3    H251327   4.352   5.011   1.186 -0.1007 -0.1153 -0.4180
 9946TIP3   OH251328   1.059   1.817  16.244 -0.1083  0.1051 -0.1480
 9946TIP3    H151329   1.104   1.887  16.196 -0.2992  1.8588  2.0254
 9946TIP3    H251330   0.969   1.821  16.212 -0.0532  0.6882 -0.2525
 9947TIP3   OH251331   3.954   6.196  12.801  0.2158 -0.4152 -0.0538
 9947TIP3    H151332   3.886   6.220  12.863  0.4067  0.1189 -0.0514
 9947TIP3    H251333   3.933   6.245  12.721  0.7892  0.0171  0.0553
 9948TIP3   OH251334   0.441   2.073  12.219  0.3110  0.0692 -0.5906
 9948TIP3    H151335   0.536   2.063  12.229  0.5956  0.4681 -2.5071
 9948TIP3    H251336   0.424   2.163  12.244  0.0976 -0.5276  1.6303
 9949TIP3   OH251337   2.325   1.594   4.194  0.2874  0.6379  0.4196
 9949TIP3    H151338   2.277   1.513   4.210  0.6037  0.4294  0.3298
 9949TIP3    H251339   2.304   1.617   4.103  0.2810  0.6022  0.4121
 9950TIP3   OH251340   2.320   2.279   5.350 -0.0926  0.1130 -0.1187
 9950TIP3    H151341   2.326   2.273   5.255  1.6925 -0.4559  0.0019
 9950TIP3    H251342   2.309   2.189   5.379  0.6774  0.1442  0.2844
 9951TIP3   OH251343   3.860   6.458   5.950  0.1152  0.1131 -0.5483
 9951TIP3    H151344   3.876   6.364   5.945 -0.0199 -0.0523  1.2787
 9951TIP3    H251345   3.766   6.466   5.968 -0.0271  0.6521 -1.4447
 9952TIP3   OH251346   5.269   2.242   0.503 -0.1662  0.0241 -0.9899
 9952TIP3    H151347   5.202   2.265   0.568 -0.0538 -2.2757  0.0698
 9952TIP3    H251348   5.351   2.271   0.541 -0.3594  1.2515 -1.4684
 9953TIP3   OH251349   0.498   5.291   4.745  0.2191 -0.1455  0.1214
 9953TIP3    H151350   0.593   5.285   4.744  0.4266  2.1036 -1.4142
 9953TIP3    H251351   0.468   5.204   4.770  2.6846 -0.4488  2.3587
 9954TIP3   OH251352   3.944   2.850  15.549 -0.4164 -0.2731  0.2702
 9954TIP3    H151353   3.991   2.934  15.547 -1.5487  0.3602 -1.6204
 9954TIP3    H251354   3.973   2.809  15.631  1.0572  1.4331  0.6690
 9955TIP3   OH251355   5.648   0.121  11.377  0.2141  0.2615  0.5664
 9955TIP3    H151356   5.554   0.121  11.395  0.2977  0.3151  1.0323
 9955TIP3    H251357   5.685   0.065  11.446  0.0713 -3.4576 -2.1009
 9956TIP3   OH251358   2.597   4.456   3.293  0.1970 -0.3720  0.1768
 9956TIP3    H151359   2.566   4.379   3.246  0.2224 -0.8180  0.8822
 9956TIP3    H251360   2.658   4.422   3.359 -0.2432  0.1892  0.8929
 9957TIP3   OH251361   5.172   2.278   5.824 -0.2332  0.3064 -0.0634
 9957TIP3    H151362   5.090   2.278   5.775  0.7813 -1.2725 -1.9173
 9957TIP3    H251363   5.195   2.185   5.833  1.2314  0.6966  0.6080
 9958TIP3   OH251364   0.402   5.512   4.595 -0.7107  0.0782 -0.0496
 9958TIP3    H151365   0.315   5.471   4.591 -1.1332  0.6135  2.1654
 9958TIP3    H251366   0.459   5.444   4.631 -0.4500  0.1064 -0.3994
 9959TIP3   OH251367   2.042   1.064  11.402  0.0221 -0.2188  0.4583
 9959TIP3    H151368   1.996   0.995  11.450 -2.1698  0.5512 -0.3608
 9959TIP3    H251369   1.971   1.121  11.370  1.5033  0.3896 -1.9824
 9960TIP3   OH251370   3.901   4.965   0.644  0.2273  0.3326  0.7664
 9960TIP3    H151371   3.808   4.967   0.623  0.4732 -2.2545 -0.9286
 9960TIP3    H251372   3.909   4.897   0.711  1.0919 -0.8877 -0.5290
 9961TIP3   OH251373   2.433   3.084  12.553  0.3663 -0.2596  0.0639
 9961TIP3    H151374   2.454   3.011  12.610 -0.5748 -0.2317  0.4657
 9961TIP3    H251375   2.339   3.076  12.536 -0.6016  2.7362  2.9343
 9962TIP3   OH251376   2.791   1.437  12.570 -0.1483 -0.3061  0.5258
 9962TIP3    H151377   2.787   1.440  12.666  1.2829  4.2582  0.6681
 9962TIP3    H251378   2.723   1.498  12.541  0.3361 -0.5882 -1.3278
 9963TIP3   OH251379   5.146   3.577  14.811  1.1182 -0.2248  0.4509
 9963TIP3    H151380   5.119   3.564  14.720 -1.6671 -0.9521  1.2752
 9963TIP3    H251381   5.183   3.492  14.837  1.5192 -0.1477  0.1490
 9964TIP3   OH251382   0.338   4.784  11.787  0.0577 -0.4238 -0.2306
 9964TIP3    H151383   0.400   4.732  11.839  0.4154 -0.9888 -1.1940
 9964TIP3    H251384   0.353   4.874  11.815 -0.1721 -0.7676  1.0668
 9965TIP3   OH251385   1.822   5.285  14.245 -0.4986  0.1873  0.3583
 9965TIP3    H151386   1.902   5.336  14.232 -0.9041  0.6655 -0.3337
 9965TIP3    H251387   1.774   5.332  14.313 -0.4279  0.1933  0.4033
 9966TIP3   OH251388   5.275   1.215   1.777  0.0759 -0.0643  0.5641
 9966TIP3    H151389   5.242   1.207   1.866 -0.1794 -1.8071  0.3367
 9966TIP3    H251390   5.366   1.186   1.783 -0.3162 -1.4590  0.0437
 9967TIP3   OH251391   0.789   0.767  14.302 -0.8214 -0.2363  0.4619
 9967TIP3    H151392   0.864   0.733  14.351 -1.6352 -0.4483  1.5998
 9967TIP3    H251393   0.781   0.708  14.227  1.6541  1.2532 -1.1080
 9968TIP3   OH251394   4.208   1.328  12.540  0.3758 -0.2629  0.1893
 9968TIP3    H151395   4.249   1.334  12.627  1.0868  1.5578 -0.2191
 9968TIP3    H251396   4.115   1.317  12.559  0.1663  2.5088  1.3219
 9969TIP3   OH251397   5.591   5.817   1.275  0.4029 -0.0212 -0.4084
 9969TIP3    H151398   5.615   5.896   1.227  1.3682  0.0599  0.1773
 9969TIP3    H251399   5.510   5.839   1.320  0.2414  0.3628 -0.8861
 9970TIP3   OH251400   5.648   6.277   6.458 -0.3996 -0.9462  0.1849
 9970TIP3    H151401   5.603   6.198   6.429 -1.0132 -0.8660  0.8815
 9970TIP3    H251402   5.705   6.249   6.530  0.4240 -0.9853 -0.4652
 9971TIP3   OH251403   2.685   6.153   3.728 -0.6535  0.7205 -0.0576
 9971TIP3    H151404   2.738   6.215   3.678 -0.7212  1.5349  0.8304
 9971TIP3    H251405   2.705   6.173   3.820  1.3136 -2.3333  0.3128
 9972TIP3   OH251406   4.624   0.161   5.105  0.2390  0.1641  0.8654
 9972TIP3    H151407   4.690   0.130   5.167 -1.2340 -2.0352  1.4703
 9972TIP3    H251408   4.646   0.116   5.023 -0.0426  0.0309  0.8608
 9973TIP3   OH251409   1.154   4.364   3.544 -0.4956 -0.4338  0.3776
 9973TIP3    H151410   1.089   4.298   3.520 -0.2889 -0.0450 -1.3987
 9973TIP3    H251411   1.131   4.440   3.490  0.9619 -0.0193  0.2999
 9974TIP3   OH251412   3.559   1.839   5.022  0.0948 -0.0161 -0.0709
 9974TIP3    H151413   3.470   1.871   5.036  0.7959  1.0024  2.6935
 9974TIP3    H251414   3.553   1.744   5.033 -0.7631 -0.0447 -0.7182
 9975TIP3   OH251415   4.530   6.461   5.366  0.1307 -0.1527 -0.4348
 9975TIP3    H151416   4.516   6.394   5.432 -0.0212 -1.4236 -1.7035
 9975TIP3    H251417   4.489   6.540   5.402 -1.6621 -1.3097  0.1596
 9976TIP3   OH251418   1.764   1.894  12.218  0.1244 -0.1960  0.4114
 9976TIP3    H151419   1.734   1.871  12.306  0.3999  1.3941  0.9485
 9976TIP3    H251420   1.829   1.827  12.196 -0.4237 -0.9824  1.1378
 9977TIP3   OH251421   0.446   6.580  13.220  0.7253 -0.3788  0.0164
 9977TIP3    H151422   0.414   6.563  13.308 -4.3416 -1.3020 -1.6886
 9977TIP3    H251423   0.408   6.665  13.196  2.4353  0.1078 -1.1925
 9978TIP3   OH251424   1.857   6.641  16.502 -0.4442 -0.1662 -0.5002
 9978TIP3    H151425   1.910   6.630  16.581 -3.0338 -0.0509  1.4182
 9978TIP3    H251426   1.816   6.727  16.512 -1.7888 -0.6736 -1.2849
 9979TIP3   OH251427   4.656   4.723  13.808  0.0403  0.0978 -0.4647
 9979TIP3    H151428   4.573   4.676  13.815 -0.6203  1.3842  0.8862
 9979TIP3    H251429   4.697   4.713  13.893 -0.7247  2.9103  0.3588
 9980TIP3   OH251430   0.622   2.805  12.924 -0.1113  0.3918 -0.3621
 9980TIP3    H151431   0.562   2.825  12.996  0.0181 -0.3882 -0.0188
 9980TIP3    H251432   0.619   2.882  12.867 -1.5648  0.2884 -0.4484
 9981TIP3   OH251433   3.841   0.451   0.757  0.5932  0.2773 -0.0644
 9981TIP3    H151434   3.849   0.431   0.851 -1.8226  0.9804  0.3631
 9981TIP3    H251435   3.873   0.372   0.713  4.6575  1.0084  1.1786
 9982TIP3   OH251436   2.625   4.158   1.225  0.0002 -0.0290  0.0562
 9982TIP3    H151437   2.643   4.240   1.180  2.0085  0.2221  1.1916
 9982TIP3    H251438   2.601   4.097   1.155  1.2059  0.8293 -1.1557
 9983TIP3   OH251439   5.789   0.157   0.003  0.0416 -0.4473  0.3831
 9983TIP3    H151440   5.874   0.160  -0.040  0.0538 -1.4760  0.3100
 9983TIP3    H251441   5.734   0.107  -0.057 -0.8959  1.0114 -0.0288
 9984TIP3   OH251442   6.386   4.076   4.952 -0.1495 -0.3514 -0.5875
 9984TIP3    H151443   6.406   4.164   4.984  0.2647 -1.2569  1.8711
 9984TIP3    H251444   6.306   4.087   4.900 -2.4375  1.0202  2.8056
 9985TIP3   OH251445   2.779   3.287  15.866 -0.0493  0.4287  0.3867
 9985TIP3    H151446   2.714   3.229  15.906 -0.3419  1.2322  1.1141
 9985TIP3    H251447   2.822   3.233  15.800 -0.4709 -0.5420  0.8845
 9986TIP3   OH251448   3.502   2.770   4.980  0.0391  0.5103 -0.0527
 9986TIP3    H151449   3.567   2.716   4.937 -1.1711 -0.8311 -0.2665
 9986TIP3    H251450   3.487   2.843   4.919  1.5894  1.0796  0.1886
 9987TIP3   OH251451   4.642   0.503   1.578 -0.5443 -0.6562 -0.2007
 9987TIP3    H151452   4.607   0.415   1.591  0.1247 -1.1263 -1.3462
 9987TIP3    H251453   4.653   0.539   1.666 -1.2819 -1.5361  0.2593
 9988TIP3   OH251454   6.459   3.327  12.978 -0.0380  0.5666  0.0441
 9988TIP3    H151455   6.467   3.283  12.893  1.3377 -0.1277  0.5142
 9988TIP3    H251456   6.387   3.281  13.022 -0.5964  0.7712 -0.6451
 9989TIP3   OH251457   0.083   2.361  13.078  0.3125 -0.1669  0.0210
 9989TIP3    H151458   0.044   2.448  13.084  3.2581  1.1799  1.2237
 9989TIP3    H251459   0.029   2.307  13.137  0.6470  1.7961  2.2790
 9990TIP3   OH251460   3.979   2.191  10.701 -0.2507  0.0126  0.3876
 9990TIP3    H151461   4.064   2.182  10.745  0.6066 -0.2402 -1.2587
 9990TIP3    H251462   3.945   2.275  10.733 -0.1981 -0.6624  2.3652
 9991TIP3   OH251463   2.436   2.665  15.880  0.5602 -0.4319  0.0772
 9991TIP3    H151464   2.409   2.756  15.881  0.8059 -0.3416 -0.8846
 9991TIP3    H251465   2.419   2.635  15.791 -2.2039 -2.1675  1.0564
 9992TIP3   OH251466   3.403   4.839  13.837  0.0056  0.5491  0.1225
 9992TIP3    H151467   3.457   4.905  13.794  1.1864 -0.4979 -0.0653
 9992TIP3    H251468   3.347   4.805  13.767  1.4121 -0.6386 -0.4685
 9993TIP3   OH251469   3.454   6.767   1.899  0.3280 -0.5886 -0.5837
 9993TIP3    H151470   3.378   6.795   1.848 -0.7736  0.0444  1.2747
 9993TIP3    H251471   3.489   6.848   1.936  1.1553 -1.0098 -0.4285
 9994TIP3   OH251472   1.198   4.287   2.385 -0.2289 -0.0213 -0.2226
 9994TIP3    H151473   1.228   4.373   2.357 -0.5978 -0.3512 -1.6767
 9994TIP3    H251474   1.257   4.225   2.343 -2.0684 -0.6146 -2.0972
 9995TIP3   OH251475   3.180   1.295   4.849  0.4196  0.3136 -0.7907
 9995TIP3    H151476   3.270   1.294   4.882  0.7176  0.1000 -1.5873
 9995TIP3    H251477   3.187   1.262   4.759 -0.3661  0.9473 -1.0968
 9996TIP3   OH251478   0.952   6.431  12.352 -0.3098 -0.0735 -0.2082
 9996TIP3    H151479   0.954   6.503  12.290 -0.3561  0.4266  0.3605
 9996TIP3    H251480   0.864   6.393  12.343 -0.4200  0.1877 -0.2349
 9997TIP3   OH251481   2.626   2.794  16.710  0.3060 -0.8032  0.4191
 9997TIP3    H151482   2.594   2.713  16.750  2.0334 -1.6904  0.0919
 9997TIP3    H251483   2.547   2.837  16.676 -0.4654 -3.4810 -1.4976
 9998TIP3   OH251484   2.917   3.489   1.001  0.1738 -0.4288 -0.5349
 9998TIP3    H151485   2.913   3.516   1.093  0.5732 -1.9509 -0.0274
 9998TIP3    H251486   2.859   3.413   0.997  1.1244 -1.1460 -1.2377
 9999TIP3   OH251487   0.874   1.537  13.140 -0.3537  0.5279 -0.4282
 9999TIP3    H151488   0.882   1.567  13.050  3.0150 -0.1142 -0.4576
 9999TIP3    H251489   0.923   1.602  13.191 -1.3883  0.3481  0.8550
10000TIP3   OH251490   2.158   6.255   1.981 -0.2292  0.3272  0.4091
10000TIP3    H151491   2.178   6.204   2.060  0.3826 -0.9518 -0.5462
10000TIP3    H251492   2.238   6.305   1.964 -0.1872  0.2284  0.3167
10001TIP3   OH251493   4.314   5.875   0.441 -0.2004  0.2133  0.2684
10001TIP3    H151494   4.280   5.922   0.365 -0.9820 -0.5736  0.1133
10001TIP3    H251495   4.255   5.900   0.512 -0.3896 -0.2306  0.2688
10002TIP3   OH251496   5.603   0.165  10.644  0.0418  0.1784 -0.3715
10002TIP3    H151497   5.587   0.135  10.554  0.3758 -2.5263  0.3688
10002TIP3    H251498   5.637   0.087  10.689 -1.6215  0.9557  2.5040
10003TIP3   OH251499   0.580   4.793  14.803  0.1066  0.0296 -0.2079
10003TIP3    H151500   0.516   4.721  14.806  0.6444 -0.4323  1.7342
10003TIP3    H251501   0.664   4.749  14.791  0.4655  0.2762  1.2313
10004TIP3   OH251502   1.392   2.504  13.452  0.1025 -0.2062  0.0109
10004TIP3    H151503   1.327   2.502  13.381  1.1929  0.5876 -1.0484
10004TIP3    H251504   1.341   2.522  13.531 -1.2474 -1.8046 -0.4282
10005TIP3   OH251505   2.131   1.952   1.156  0.2256  0.3897 -0.4431
10005TIP3    H151506   2.146   1.897   1.233  0.8110  1.7780  0.4733
10005TIP3    H251507   2.216   1.954   1.112  0.0355  0.0449 -0.8314
10006TIP3   OH251508   0.339   2.981  10.957  0.2004  0.2907 -0.2005
10006TIP3    H151509   0.421   3.017  10.923  1.3023  0.4131  2.3681
10006TIP3    H251510   0.293   3.055  10.995  0.3958 -0.2511  1.1507
10007TIP3   OH251511   3.678   0.055   3.479 -0.2442  0.3906  0.0222
10007TIP3    H151512   3.674   0.139   3.431  0.1524  0.3678 -0.0533
10007TIP3    H251513   3.587   0.029   3.488 -0.7360  2.6197  3.2363
10008TIP3   OH251514   4.123   1.827  16.329  0.4128 -0.1988  0.0521
10008TIP3    H151515   4.102   1.805  16.239  2.3334 -0.6157 -0.3187
10008TIP3    H251516   4.141   1.921  16.328  0.5257 -0.2222  0.0029
10009TIP3   OH251517   0.479   4.300   4.040  0.1523  0.4103 -0.0822
10009TIP3    H151518   0.541   4.264   3.978  0.1821  0.3018  0.0101
10009TIP3    H251519   0.479   4.238   4.113  0.6864  0.9321  0.3623
10010TIP3   OH251520   0.598   2.287   3.706  0.2477 -0.6262 -0.0238
10010TIP3    H151521   0.564   2.365   3.662  0.8697 -0.5846 -0.4397
10010TIP3    H251522   0.677   2.318   3.751 -1.0351 -0.3635  2.1958
10011TIP3   OH251523   3.353   1.213  15.246  0.5358  0.3575 -0.5121
10011TIP3    H151524   3.278   1.268  15.222 -1.0410 -1.7881 -0.8452
10011TIP3    H251525   3.371   1.161  15.167  3.5229  1.9312 -1.0012
10012TIP3   OH251526   0.123   5.056   0.793  0.5229  0.0113 -0.4280
10012TIP3    H151527   0.028   5.064   0.801  0.6050  1.5100 -0.7325
10012TIP3    H251528   0.158   5.084   0.878  0.6688 -2.4638  0.4261
10013TIP3   OH251529   3.077   4.433  13.973 -0.4277  0.0184  0.1859
10013TIP3    H151530   2.996   4.395  13.937 -0.1742 -0.1548 -0.2050
10013TIP3    H251531   3.131   4.450  13.897 -0.7593  1.7229  0.2941
10014TIP3   OH251532   0.159   5.104   1.931 -0.3815 -0.3307 -0.1638
10014TIP3    H151533   0.254   5.101   1.917 -0.5542 -0.4070 -1.3642
10014TIP3    H251534   0.143   5.191   1.967  0.0095  0.1433 -1.1060
10015TIP3   OH251535   3.304   5.499  16.665  0.6120 -0.0786 -0.4484
10015TIP3    H151536   3.348   5.506  16.749  0.7344 -2.1600 -0.3042
10015TIP3    H251537   3.263   5.585  16.652  1.1613  0.4924  1.3890
10016TIP3   OH251538   4.480   0.846   3.424  0.3387  0.2214  0.6034
10016TIP3    H151539   4.497   0.833   3.330 -0.7053  0.3492  0.3840
10016TIP3    H251540   4.411   0.784   3.445 -0.1181  0.8680  1.0578
10017TIP3   OH251541   2.190   3.750   1.474  0.2937 -0.6798  0.1775
10017TIP3    H151542   2.274   3.730   1.432  0.7600  0.5036  0.5142
10017TIP3    H251543   2.198   3.716   1.563 -0.2107 -2.0191 -0.2611
10018TIP3   OH251544   2.699   3.935  12.560 -0.3184  0.0093 -0.0177
10018TIP3    H151545   2.630   3.869  12.567 -0.9228  0.6978  0.7171
10018TIP3    H251546   2.684   3.994  12.634  0.4399  0.7563 -0.4365
10019TIP3   OH251547   5.264   4.315   1.218 -0.2437  0.1537 -0.1610
10019TIP3    H151548   5.346   4.267   1.221 -0.2775  0.1445  2.2908
10019TIP3    H251549   5.290   4.408   1.218 -0.2388  0.1509  0.2452
10020TIP3   OH251550   0.100   1.601  12.829  0.3729  0.2800 -0.4239
10020TIP3    H151551   0.150   1.563  12.756 -2.1859 -0.7488 -1.7760
10020TIP3    H251552   0.067   1.684  12.794  1.0663  0.9277  0.4326
10021TIP3   OH251553   2.067   6.502   3.991 -0.4981  0.3482 -0.1147
10021TIP3    H151554   2.076   6.530   3.900  0.0134  1.1023  0.1598
10021TIP3    H251555   2.147   6.533   4.034 -1.6735  1.9432  1.0794
10022TIP3   OH251556   6.163   1.945  13.361  0.1651  0.1486 -0.7041
10022TIP3    H151557   6.156   2.018  13.301 -2.5418  1.0427  0.5538
10022TIP3    H251558   6.178   1.985  13.447 -0.1116 -0.8418 -0.1726
10023TIP3   OH251559   6.023   5.404  10.590  0.2728  0.2658  0.2718
10023TIP3    H151560   5.974   5.321  10.590  1.1395 -0.2508  0.1358
10023TIP3    H251561   5.967   5.464  10.541 -0.2743 -0.2932  0.1948
10024TIP3   OH251562   5.081   4.272   5.369  0.0466 -0.5229  0.0623
10024TIP3    H151563   5.045   4.193   5.410 -2.8958  0.7922  0.2937
10024TIP3    H251564   5.058   4.263   5.277  0.6535 -0.3822 -0.1079
10025TIP3   OH251565   5.794   3.887  16.458  0.5051 -0.5675  0.0972
10025TIP3    H151566   5.760   3.802  16.487  0.5802 -0.7902 -0.4487
10025TIP3    H251567   5.767   3.948  16.526 -0.9187 -0.7426 -0.2717
10026TIP3   OH251568   2.377   4.120  12.045  0.1142 -0.0517  0.2724
10026TIP3    H151569   2.451   4.065  12.067  0.2548 -0.4530 -1.1182
10026TIP3    H251570   2.415   4.202  12.014  0.0618 -0.7814 -1.8422
10027TIP3   OH251571   4.502   4.691   5.462 -0.0283 -0.1153  0.2700
10027TIP3    H151572   4.426   4.712   5.409 -0.3422  0.7621  1.0472
10027TIP3    H251573   4.509   4.595   5.458 -0.6692 -0.1339 -0.4774
10028TIP3   OH251574   0.727   5.290  16.591  0.2316  0.2009 -0.1265
10028TIP3    H151575   0.744   5.373  16.636 -0.5742  1.1828 -1.5664
10028TIP3    H251576   0.656   5.250  16.642  0.9335  0.1638  0.8419
10029TIP3   OH251577   1.955   2.584   5.954  0.1707  0.1662 -0.3804
10029TIP3    H151578   1.942   2.648   6.024 -1.0225  0.5956 -0.9759
10029TIP3    H251579   2.035   2.538   5.979  1.1481  1.9674  0.0147
10030TIP3   OH251580   3.093   6.207  13.420 -0.1623 -0.2414  0.0874
10030TIP3    H151581   3.093   6.276  13.487 -1.8886  0.1365 -0.2547
10030TIP3    H251582   3.152   6.140  13.455  0.0748  0.5664  1.3152
10031TIP3   OH251583   1.242   1.365  15.787  0.6157 -0.1523  0.4781
10031TIP3    H151584   1.167   1.312  15.812  0.9578 -0.8986 -0.0393
10031TIP3    H251585   1.312   1.335  15.845  1.0268 -0.8645 -0.3664
10032TIP3   OH251586   5.234   6.763   0.525 -0.1566 -0.0735  0.4012
10032TIP3    H151587   5.230   6.677   0.567  1.5874 -1.0186 -1.1996
10032TIP3    H251588   5.314   6.803   0.559 -0.1004  0.2267 -0.0765
10033TIP3   OH251589   3.072   2.313  14.739  0.1809 -0.2127 -0.3589
10033TIP3    H151590   3.011   2.257  14.787  1.6501 -1.2517  0.3647
10033TIP3    H251591   3.092   2.385  14.799 -1.2811  0.8715 -1.0876
10034TIP3   OH251592   2.901   1.176   5.517  0.2264  0.9976 -0.3515
10034TIP3    H151593   2.931   1.251   5.568  1.4578  1.6904 -1.9858
10034TIP3    H251594   2.813   1.199   5.489 -0.8757  0.1884  2.1506
10035TIP3   OH251595   5.772   2.567  13.130  0.2076  0.1917 -0.4041
10035TIP3    H151596   5.765   2.621  13.209 -0.7057 -0.5442  0.0429
10035TIP3    H251597   5.689   2.583  13.084  1.0200  1.1621 -1.5983
10036TIP3   OH251598   1.394   0.792  15.274 -0.4082 -0.2488  0.0830
10036TIP3    H151599   1.369   0.869  15.326 -3.4146 -0.7422 -0.4477
10036TIP3    H251600   1.363   0.811  15.186  1.7301 -0.7847 -0.8516
10037TIP3   OH251601   6.399   6.219   4.974 -0.4951  0.2520 -0.1054
10037TIP3    H151602   6.319   6.270   4.985  0.5086  2.1893 -1.1654
10037TIP3    H251603   6.417   6.183   5.061 -0.8061  2.4901  0.9659
10038TIP3   OH251604   0.792   3.201  13.587 -0.0910  0.4370  0.2215
10038TIP3    H151605   0.767   3.110  13.571  0.7050  0.5525 -2.0622
10038TIP3    H251606   0.843   3.198  13.668 -1.5445 -0.8432  1.1365
10039TIP3   OH251607   3.476   5.863  13.176 -0.2854  0.2887  0.4698
10039TIP3    H151608   3.536   5.919  13.126  0.3940  0.8426  1.8467
10039TIP3    H251609   3.447   5.797  13.113  0.0663  1.2927 -0.8041
10040TIP3   OH251610   4.562   6.135  16.842  0.1869 -0.0349 -0.6329
10040TIP3    H151611   4.533   6.130  16.751 -0.6252  1.7196 -0.5118
10040TIP3    H251612   4.604   6.050  16.858  0.5337 -0.3158 -2.6825
10041TIP3   OH251613   0.394   4.311  15.430  0.2978  0.0578 -0.3652
10041TIP3    H151614   0.410   4.378  15.364  1.0043 -1.9954 -2.4217
10041TIP3    H251615   0.479   4.270  15.443 -0.1069 -0.4111  0.8673
10042TIP3   OH251616   3.474   0.010   3.945 -0.1401  0.3007  0.3432
10042TIP3    H151617   3.463   0.003   4.040  0.2427 -1.4941  0.2863
10042TIP3    H251618   3.512   0.098   3.932  1.5204 -0.0865  2.0187
10043TIP3   OH251619   4.548   6.284  13.697 -0.6676 -0.4268  0.1896
10043TIP3    H151620   4.511   6.224  13.763  0.1471  0.5108  1.5425
10043TIP3    H251621   4.642   6.266  13.699 -0.6969 -0.8410 -1.2205
10044TIP3   OH251622   4.648   2.584  16.810  0.2826 -0.9182  0.1032
10044TIP3    H151623   4.734   2.585  16.767  0.5636 -2.1725  0.6004
10044TIP3    H251624   4.630   2.492  16.826 -1.0624 -0.6566  0.2341
10045TIP3   OH251625   5.184   3.431  15.441  0.5581  0.5670 -0.4051
10045TIP3    H151626   5.189   3.521  15.410  1.8676  0.2086 -1.3086
10045TIP3    H251627   5.124   3.388  15.381  1.8511  0.2639 -1.5296
10046TIP3   OH251628   4.921   5.375  10.162  0.3549 -0.0294 -0.3341
10046TIP3    H151629   5.010   5.380  10.127  0.6803 -1.1378  0.2724
10046TIP3    H251630   4.894   5.466  10.173  2.3082  0.3924  1.6454
10047TIP3   OH251631   0.955   1.405  16.779 -0.4100  0.5146 -0.3012
10047TIP3    H151632   0.924   1.490  16.747  0.2330  0.5171 -0.9436
10047TIP3    H251633   0.876   1.352  16.785 -0.5194  0.3166 -2.5373
10048TIP3   OH251634   1.740   6.039  13.972  0.3966 -0.7149 -0.2866
10048TIP3    H151635   1.835   6.026  13.971  0.4237 -1.1813  1.9437
10048TIP3    H251636   1.704   5.950  13.973 -0.1079 -0.5450 -1.4303
10049TIP3   OH251637   3.994   4.469  16.861 -0.2248  0.1235 -0.5280
10049TIP3    H151638   3.916   4.413  16.867 -1.2408  1.4962 -0.3669
10049TIP3    H251639   4.044   4.431  16.788 -1.9084  0.2104 -1.8138
10050TIP3   OH251640   2.926   6.519  10.817 -0.3528 -0.2336  0.2481
10050TIP3    H151641   3.017   6.548  10.811  0.2131 -1.6639  1.3435
10050TIP3    H251642   2.896   6.514  10.726  0.8677 -0.3432 -0.1592
10051TIP3   OH251643   0.849   5.176   1.837 -0.1914 -0.0571 -0.2665
10051TIP3    H151644   0.937   5.213   1.830  0.8044 -1.9964  1.0262
10051TIP3    H251645   0.823   5.192   1.928 -1.1167  0.3502 -0.5936
10052TIP3   OH251646   6.273   6.695   3.629  0.3637 -0.3647  0.4398
10052TIP3    H151647   6.283   6.764   3.694  1.0107  1.3084 -1.3511
10052TIP3    H251648   6.275   6.740   3.544  0.0517 -2.4976 -0.7902
10053TIP3   OH251649   1.728   1.622   4.641 -0.5106  0.0394 -0.1880
10053TIP3    H151650   1.809   1.649   4.597 -0.5068 -1.0889 -0.9048
10053TIP3    H251651   1.716   1.687   4.711  1.2259 -0.0156  0.2017
10054TIP3   OH251652   6.305   6.418   0.475 -0.0383  0.1239  0.1676
10054TIP3    H151653   6.354   6.340   0.501 -0.1702  0.8153  2.7829
10054TIP3    H251654   6.361   6.491   0.501 -0.4984  0.9248 -1.0126
10055TIP3   OH251655   4.129   6.584  15.505 -0.4663 -0.0650 -0.5874
10055TIP3    H151656   4.088   6.510  15.459  0.6609 -1.4721  0.5877
10055TIP3    H251657   4.191   6.620  15.441 -1.2150  0.0561 -1.2642
10056TIP3   OH251658   1.765   6.198   4.715  0.4723  0.2296  0.1648
10056TIP3    H151659   1.761   6.274   4.774 -0.2203  0.9993 -0.8270
10056TIP3    H251660   1.786   6.125   4.772 -0.7812  0.8387  1.5013
10057TIP3   OH251661   4.771   1.676   6.235 -0.4798 -0.0632  0.3676
10057TIP3    H151662   4.803   1.621   6.306  1.4163 -0.4021 -0.6724
10057TIP3    H251663   4.775   1.619   6.157 -0.2205  0.9869 -0.4073
10058TIP3   OH251664   0.747   4.402  12.168 -0.5660 -0.3856  0.3067
10058TIP3    H151665   0.678   4.447  12.217 -0.7769  0.2667 -0.5718
10058TIP3    H251666   0.782   4.469  12.110 -0.6849 -1.2956 -0.8349
10059TIP3   OH251667   2.637   1.932  16.828  0.5241  0.0211 -0.1000
10059TIP3    H151668   2.645   1.881  16.908 -0.2975 -0.8365 -0.5513
10059TIP3    H251669   2.617   2.021  16.858 -0.4286 -0.4294  0.6257
10060TIP3   OH251670   0.807   5.203   2.106 -0.4001 -0.2321 -0.2623
10060TIP3    H151671   0.860   5.218   2.184 -0.9636 -2.4042  0.6271
10060TIP3    H251672   0.739   5.270   2.109  0.3156  0.4819  0.4292
10061TIP3   OH251673   2.903   6.146   4.656  0.1350 -0.0975 -0.2550
10061TIP3    H151674   2.916   6.069   4.600 -0.4905 -0.0429 -0.4877
10061TIP3    H251675   2.972   6.140   4.722  0.1622 -0.8029 -0.3356
10062TIP3   OH251676   2.109   2.724   0.138  0.2934 -0.0402  0.1496
10062TIP3    H151677   2.160   2.643   0.140  0.0276 -0.3037 -1.7185
10062TIP3    H251678   2.157   2.785   0.194  0.3204 -1.5587  1.8809
10063TIP3   OH251679   2.882   2.191   3.363  0.1322 -0.7389  0.0345
10063TIP3    H151680   2.928   2.122   3.314  0.0998 -0.7014 -0.0474
10063TIP3    H251681   2.880   2.158   3.453  1.7516 -0.0352  0.3746
10064TIP3   OH251682   4.413   2.597  12.570 -0.1557 -0.3098 -0.3523
10064TIP3    H151683   4.379   2.529  12.629  1.3383 -0.2812  0.5943
10064TIP3    H251684   4.366   2.676  12.595  1.5439  0.0623  1.9509
10065TIP3   OH251685   6.486   6.738  16.697  0.5215  0.3560 -0.1519
10065TIP3    H151686   6.512   6.754  16.606 -0.5259  0.6133 -0.4273
10065TIP3    H251687   6.425   6.809  16.717  1.5619  0.9119  1.1183
10066TIP3   OH251688   6.504   2.620  11.057  0.2392  0.1215  0.3184
10066TIP3    H151689   6.437   2.554  11.075 -0.9772  0.9878 -0.7380
10066TIP3    H251690   6.521   2.612  10.963  1.4546  0.0873  0.5273
10067TIP3   OH251691   1.239   6.782   3.629 -0.7795  0.2484  0.3856
10067TIP3    H151692   1.283   6.795   3.713 -0.9828  0.8757  0.4007
10067TIP3    H251693   1.273   6.698   3.597 -1.1519 -0.2877  1.3636
10068TIP3   OH251694   2.864   6.102  17.055 -0.5467  0.1393 -0.5699
10068TIP3    H151695   2.787   6.153  17.081 -0.2432 -0.3239  1.4095
10068TIP3    H251696   2.938   6.158  17.076 -0.1053 -1.5510  3.2789
10069TIP3   OH251697   2.341   2.141  12.271 -0.0640 -0.5481 -0.1901
10069TIP3    H151698   2.416   2.186  12.234 -1.0648 -0.5286 -2.3379
10069TIP3    H251699   2.339   2.056  12.227 -1.8832 -0.1350 -1.0060
10070TIP3   OH251700   5.968   4.673   2.995  0.5877 -0.7200  0.0328
10070TIP3    H151701   5.914   4.749   3.012 -0.2840 -1.4756  0.7314
10070TIP3    H251702   6.056   4.699   3.022  0.5354  0.4174 -0.8324
10071TIP3   OH251703   6.070   0.414  14.949  0.2633  0.5098 -0.3814
10071TIP3    H151704   6.032   0.491  14.907 -1.8467  0.1488  0.7400
10071TIP3    H251705   6.103   0.446  15.033  0.4824  0.4063 -0.4265
10072TIP3   OH251706   0.112   6.447  15.473  0.1037  0.2431 -0.4045
10072TIP3    H151707   0.129   6.356  15.450 -0.8680 -0.1369  0.3290
10072TIP3    H251708   0.065   6.443  15.556  0.6662  1.4488  0.0001
10073TIP3   OH251709   1.769   2.421   4.363 -0.3552 -0.2170  0.3616
10073TIP3    H151710   1.847   2.374   4.333 -0.9898 -1.6637  0.9025
10073TIP3    H251711   1.778   2.423   4.459 -1.1528 -0.6925  0.4456
10074TIP3   OH251712   0.546   3.322  15.324  0.2839  0.2533 -0.2733
10074TIP3    H151713   0.490   3.377  15.268  0.1459  1.1582  0.7197
10074TIP3    H251714   0.586   3.259  15.264 -0.6977  0.5038 -1.2200
10075TIP3   OH251715   1.094   0.687  11.093  0.5847  0.1088  0.8817
10075TIP3    H151716   1.029   0.653  11.155 -0.2420 -0.7142 -0.4057
10075TIP3    H251717   1.055   0.768  11.060 -0.4857 -1.0472 -0.8866
10076TIP3   OH251718   2.072   4.470   4.339 -0.1584  0.1854  0.7782
10076TIP3    H151719   2.063   4.436   4.428  1.8901 -3.4658 -0.1923
10076TIP3    H251720   1.999   4.431   4.291 -0.9069  1.6585  0.6464
10077TIP3   OH251721   6.063   5.525  14.334  0.4723  0.0140  0.0041
10077TIP3    H151722   5.993   5.460  14.319  1.1854 -0.4380 -1.5246
10077TIP3    H251723   6.037   5.569  14.415 -0.7428 -1.2532  0.3483
10078TIP3   OH251724   0.058   6.558   1.515  0.0793  0.3487 -0.2522
10078TIP3    H151725  -0.029   6.520   1.522  0.3339 -0.2670 -0.3753
10078TIP3    H251726   0.053   6.639   1.567 -1.4836  2.0494 -2.8502
10079TIP3   OH251727   1.711   3.890  14.195  0.4120 -0.0468 -0.1020
10079TIP3    H151728   1.637   3.941  14.229 -0.3934  0.1230 -2.0102
10079TIP3    H251729   1.737   3.935  14.115  0.8740 -1.5856 -0.8667
10080TIP3   OH251730   3.679   1.393  13.728  0.3051 -0.0418 -0.0291
10080TIP3    H151731   3.692   1.332  13.801 -3.0034 -0.8021  0.0909
10080TIP3    H251732   3.737   1.361  13.659 -0.6720 -2.8638  0.3361
10081TIP3   OH251733   6.796   6.795  17.166  0.5579  0.5985  0.4015
10081TIP3    H151734   6.725   6.772  17.105 -0.9899  3.2462  1.0750
10081TIP3    H251735   6.875   6.796  17.111 -0.2613 -0.2615 -0.8477
10082TIP3   OH251736   0.793   1.733   0.946 -0.1442 -0.8227  0.1981
10082TIP3    H151737   0.834   1.689   1.020  0.4685 -1.1172 -0.3111
10082TIP3    H251738   0.760   1.815   0.982 -1.4876 -1.7600  1.2160
10083TIP3   OH251739   3.998   4.274   0.976  0.2437 -0.3463 -0.2942
10083TIP3    H151740   4.021   4.192   0.933 -3.3853 -0.6238 -2.1162
10083TIP3    H251741   3.959   4.249   1.060  0.2904 -0.4099 -0.2925
10084TIP3   OH251742   6.189   4.288   3.626 -0.2428 -0.0431  0.0433
10084TIP3    H151743   6.165   4.236   3.549  0.4987  0.1372 -0.3164
10084TIP3    H251744   6.106   4.323   3.658 -0.6486 -0.7594 -0.2074
10085TIP3   OH251745   6.734   0.875  15.527  0.1544  0.2479  0.0225
10085TIP3    H151746   6.767   0.960  15.497  0.2025  0.5252  0.8544
10085TIP3    H251747   6.809   0.832  15.566  0.1973 -0.3060 -0.6557
10086TIP3   OH251748   5.195   4.815  12.861  0.9145 -0.2637 -0.0352
10086TIP3    H151749   5.250   4.779  12.792 -0.3171 -1.7033 -0.3292
10086TIP3    H251750   5.176   4.741  12.919 -1.9555 -0.2963 -0.8261
10087TIP3   OH251751   5.425   6.346  13.770  0.0359 -0.4269  0.4313
10087TIP3    H151752   5.420   6.407  13.697 -1.7629 -1.3274 -0.2639
10087TIP3    H251753   5.405   6.399  13.847  0.0358  0.1728  0.0241
10088TIP3   OH251754   1.557   4.732   3.685  0.5337  0.1151 -0.2903
10088TIP3    H151755   1.553   4.649   3.637 -0.2887 -0.3757  0.5864
10088TIP3    H251756   1.603   4.792   3.626  2.3620 -1.3123 -0.3943
10089TIP3   OH251757   5.152   2.186  11.744 -0.0310 -0.1669  0.5893
10089TIP3    H151758   5.154   2.115  11.808 -0.9800 -0.4604  0.3102
10089TIP3    H251759   5.147   2.142  11.659  1.5480  0.2166  0.2684
10090TIP3   OH251760   5.540   3.642   2.811  0.1824  0.1064  0.3229
10090TIP3    H151761   5.601   3.579   2.850  1.3753 -1.0005 -2.9591
10090TIP3    H251762   5.455   3.600   2.818  0.7028 -1.0760 -0.1728
10091TIP3   OH251763   2.606   1.491   2.953  0.1542  0.3873 -0.1086
10091TIP3    H151764   2.589   1.585   2.963 -2.6564  0.0542 -0.7687
10091TIP3    H251765   2.525   1.449   2.984  1.0142 -1.7839 -0.6151
10092TIP3   OH251766   5.491   4.886  12.515 -0.0979  0.0221  0.0208
10092TIP3    H151767   5.515   4.958  12.572 -0.5920  0.3736 -0.2032
10092TIP3    H251768   5.571   4.834  12.506 -0.1527 -0.3463  1.4529
10093TIP3   OH251769   4.171   4.106   6.054  0.1203 -0.7123  0.4775
10093TIP3    H151770   4.090   4.151   6.032  1.1809  1.1574  0.1952
10093TIP3    H251771   4.240   4.163   6.021  1.5777 -2.1645  0.8624
10094TIP3   OH251772   0.325   6.473  16.930 -0.1077  0.0781  0.1954
10094TIP3    H151773   0.418   6.478  16.951 -0.3586  0.9669  1.1276
10094TIP3    H251774   0.320   6.406  16.861  1.0733 -0.8258  0.9524
10095TIP3   OH251775   3.585   2.017  11.241  0.3976  0.1527 -0.1167
10095TIP3    H151776   3.679   2.024  11.222  0.0853  0.6492 -1.5960
10095TIP3    H251777   3.578   2.042  11.333  1.7161  0.0635  0.0370
10096TIP3   OH251778   6.120   6.205   2.090 -0.6262  0.2039 -0.7277
10096TIP3    H151779   6.175   6.158   2.153  0.1412 -0.4811 -1.8892
10096TIP3    H251780   6.154   6.294   2.090 -0.9915  0.3646  0.2143
10097TIP3   OH251781   2.277   2.782   1.321  0.0992  0.3193  0.2847
10097TIP3    H151782   2.338   2.845   1.360 -0.5620  0.1660  1.6094
10097TIP3    H251783   2.330   2.703   1.308  0.3531  0.4030  0.7850
10098TIP3   OH251784   1.392   1.880  16.652 -0.0905  0.0482  0.4078
10098TIP3    H151785   1.349   1.871  16.737  0.4776 -0.9167  0.6141
10098TIP3    H251786   1.459   1.811  16.652  0.9141  0.9893 -0.2159
10099TIP3   OH251787   6.649   2.838   6.224 -0.2425  0.1780 -0.8945
10099TIP3    H151788   6.632   2.904   6.158  0.0733  1.7597  0.5451
10099TIP3    H251789   6.611   2.873   6.305  1.0180 -0.8071  0.1885
10100TIP3   OH251790   4.954   3.607  16.197 -0.2017 -0.3269 -0.0035
10100TIP3    H151791   4.985   3.678  16.253 -2.1710  1.1095 -0.6114
10100TIP3    H251792   4.999   3.529  16.229 -0.9521  0.4575  3.3333
10101TIP3   OH251793   2.526   2.834   5.063  0.0373 -0.2866  0.2257
10101TIP3    H151794   2.555   2.858   5.151 -0.5815 -2.1399  0.9744
10101TIP3    H251795   2.436   2.867   5.058 -0.9480 -2.5664  1.3932
10102TIP3   OH251796   0.078   6.683   4.014 -0.3017 -0.1016 -0.2866
10102TIP3    H151797   0.006   6.745   4.024  0.0351  0.2282  0.1415
10102TIP3    H251798   0.108   6.666   4.104  1.0454  0.8411 -0.5267
10103TIP3   OH251799   4.103   3.661  15.130 -0.0560  0.5697 -0.3269
10103TIP3    H151800   4.115   3.755  15.122 -0.5362  0.5635 -1.1778
10103TIP3    H251801   4.025   3.641  15.078 -0.6368 -0.1448  0.7568
10104TIP3   OH251802   0.487   5.295   5.016 -0.1951  0.6542 -0.4345
10104TIP3    H151803   0.433   5.216   5.020 -0.3375  0.7601 -0.2244
10104TIP3    H251804   0.524   5.294   4.928  0.3420 -0.0014 -0.2117
10105TIP3   OH251805   1.511   5.359  11.658 -0.0262 -0.5165  0.3101
10105TIP3    H151806   1.556   5.328  11.579  0.2042 -0.9189  0.5973
10105TIP3    H251807   1.425   5.316  11.654 -0.0750 -0.4119  0.2015
10106TIP3   OH251808   3.210   3.740   1.179  0.5929  0.0237  0.1109
10106TIP3    H151809   3.216   3.709   1.089 -1.4582  0.5176 -0.2522
10106TIP3    H251810   3.161   3.822   1.173 -0.8884 -0.6677  1.7783
10107TIP3   OH251811   4.043   4.691   1.682 -0.2957  0.6466 -0.1702
10107TIP3    H151812   4.105   4.699   1.610 -0.6392  0.8998 -0.4436
10107TIP3    H251813   4.046   4.777   1.725 -1.8491  1.3415 -1.3442
10108TIP3   OH251814   2.161   0.480   2.212 -0.2190  0.2016 -0.5549
10108TIP3    H151815   2.132   0.413   2.273  1.3953 -1.2569 -1.3060
10108TIP3    H251816   2.197   0.549   2.269  0.5884 -0.8011  0.1806
10109TIP3   OH251817   2.780   3.761  10.858  0.1301 -0.1424 -0.1200
10109TIP3    H151818   2.799   3.768  10.765  0.9186  0.1161  0.0507
10109TIP3    H251819   2.763   3.851  10.887 -0.5243 -0.2688 -0.0922
10110TIP3   OH251820   2.908   2.239  12.152  0.6277  0.1802  0.3323
10110TIP3    H151821   2.958   2.282  12.222 -0.2386 -1.0504  1.7648
10110TIP3    H251822   2.843   2.304  12.125  0.6200  0.4806  1.0576
10111TIP3   OH251823   0.506   0.211  12.144  0.3237  0.2918  0.1479
10111TIP3    H151824   0.446   0.145  12.112  1.3211 -1.4695  1.7267
10111TIP3    H251825   0.578   0.162  12.184  1.1336  2.3082  1.3569
10112TIP3   OH251826   5.277   6.129   4.851  0.0976  0.1462  0.1762
10112TIP3    H151827   5.253   6.146   4.942  2.0212  0.7003  0.6250
10112TIP3    H251828   5.196   6.098   4.810 -0.9019  0.2719  1.9641
10113TIP3   OH251829   4.161   1.842   1.862  0.3342  0.1016 -0.0653
10113TIP3    H151830   4.248   1.876   1.880  0.0318  0.5759  0.5348
10113TIP3    H251831   4.150   1.768   1.922  0.7650 -0.7202 -0.9621
10114TIP3   OH251832   5.538   0.445  12.513 -0.0112  0.4021  0.4815
10114TIP3    H151833   5.540   0.426  12.606  1.2691 -1.1422  0.1892
10114TIP3    H251834   5.521   0.361  12.471 -0.2543  1.0047 -0.6947
10115TIP3   OH251835   1.967   5.859   3.303 -0.2475  0.3128  0.3870
10115TIP3    H151836   2.037   5.849   3.368 -0.5149 -0.7338  0.5182
10115TIP3    H251837   2.008   5.835   3.220 -0.1493  0.7985  0.2902
10116TIP3   OH251838   3.900   4.066   2.366 -0.3370  0.6070  0.1816
10116TIP3    H151839   3.969   4.092   2.426 -1.1265  0.9281  0.9736
10116TIP3    H251840   3.818   4.085   2.413 -0.9726  0.6162 -0.8790
10117TIP3   OH251841   6.780   3.805   5.179  0.1866  0.2575 -0.2815
10117TIP3    H151842   6.866   3.776   5.211 -0.1684 -0.2223  0.2674
10117TIP3    H251843   6.772   3.764   5.093  0.2585 -0.1838 -0.0815
10118TIP3   OH251844   0.493   2.400   0.477  0.0184  0.0965  0.5343
10118TIP3    H151845   0.512   2.492   0.457  1.8501 -0.6570 -1.6279
10118TIP3    H251846   0.540   2.383   0.558 -1.5912  1.3821  1.8315
10119TIP3   OH251847   4.571   5.184   4.937  0.1752  0.3234 -0.6777
10119TIP3    H151848   4.628   5.252   4.902  1.2923 -0.1787  0.1315
10119TIP3    H251849   4.562   5.121   4.866  0.6032  0.4176 -0.8153
10120TIP3   OH251850   1.905   2.348   3.299 -0.2292  0.1869 -0.2065
10120TIP3    H151851   1.935   2.368   3.210 -0.6787  2.0442  0.0240
10120TIP3    H251852   1.860   2.264   3.290  2.2254 -1.1224 -1.1489
10121TIP3   OH251853   2.615   3.944  12.104  0.3036 -0.2095 -0.0146
10121TIP3    H151854   2.661   3.888  12.167  0.1170  0.3508  0.6427
10121TIP3    H251855   2.591   3.886  12.033  0.4033 -0.8969  0.5022
10122TIP3   OH251856   2.892   1.084  15.911 -0.6272 -0.8883 -0.0622
10122TIP3    H151857   2.973   1.090  15.860 -0.3241  0.1923  0.5192
10122TIP3    H251858   2.920   1.056  15.998 -0.5193  1.8477  0.8718
10123TIP3   OH251859   5.740   3.474   5.667 -0.1869 -0.2031 -0.3238
10123TIP3    H151860   5.812   3.536   5.672  1.5935 -2.1659  0.2367
10123TIP3    H251861   5.688   3.501   5.591  0.7378  1.6749 -0.3180
10124TIP3   OH251862   4.885   2.179  16.225 -0.0704 -0.1058 -0.4407
10124TIP3    H151863   4.851   2.195  16.313 -2.3098 -0.2666 -1.2146
10124TIP3    H251864   4.834   2.105  16.192  1.0214 -0.3280 -1.7293
10125TIP3   OH251865   0.543   2.849  15.768 -0.4929 -0.0225 -0.0018
10125TIP3    H151866   0.585   2.884  15.689  0.0841 -0.0839  0.2778
10125TIP3    H251867   0.551   2.918  15.833 -1.8506  0.4274 -0.2707
10126TIP3   OH251868   0.293   0.863   0.388  0.0322 -0.0723 -0.0350
10126TIP3    H151869   0.281   0.956   0.407  1.6725 -0.3782  3.3011
10126TIP3    H251870   0.204   0.829   0.376 -0.8232  1.4821  1.4258
10127TIP3   OH251871   3.862   6.668   3.410  0.0833  0.8363  0.3976
10127TIP3    H151872   3.891   6.759   3.397 -0.0849  1.5534  3.8633
10127TIP3    H251873   3.768   6.671   3.396  0.0146  1.3408  0.8904
10128TIP3   OH251874   5.902   4.680  14.673  0.3363  0.1957  0.1236
10128TIP3    H151875   5.966   4.751  14.665 -0.0450  0.7118  1.3291
10128TIP3    H251876   5.885   4.652  14.583  1.8745  0.3771 -0.2549
10129TIP3   OH251877   5.678   4.704   5.906  0.6421  0.1587  0.7372
10129TIP3    H151878   5.639   4.731   5.989 -0.0194  0.5746  0.2990
10129TIP3    H251879   5.611   4.649   5.864  0.6289  0.6322  0.1124
10130TIP3   OH251880   3.675   3.398   0.835 -0.0665 -0.4866  0.0370
10130TIP3    H151881   3.702   3.312   0.803  0.6727 -0.3526  0.2951
10130TIP3    H251882   3.601   3.422   0.779 -0.0363 -1.1192 -0.2845
10131TIP3   OH251883   6.622   3.736  10.439 -0.0736  0.4461 -0.5972
10131TIP3    H151884   6.708   3.717  10.475 -0.3578  0.6255  0.1889
10131TIP3    H251885   6.636   3.813  10.384  0.1687  0.8057 -0.0385
10132TIP3   OH251886   1.934   0.423   5.893 -0.2178 -0.0507 -0.0260
10132TIP3    H151887   1.933   0.333   5.860 -3.0273 -0.3720  0.6883
10132TIP3    H251888   1.974   0.473   5.822  2.2961 -1.9075 -0.0774
10133TIP3   OH251889   6.018   6.299   1.283  0.6210 -0.4830 -0.2736
10133TIP3    H151890   6.067   6.225   1.247 -0.4037 -0.4467 -1.7890
10133TIP3    H251891   6.057   6.376   1.242  0.2113 -0.3527 -0.4196
10134TIP3   OH251892   6.620   6.707  14.540  0.2239  0.0295 -0.4691
10134TIP3    H151893   6.696   6.737  14.589 -0.5349  1.4119 -0.0859
10134TIP3    H251894   6.604   6.776  14.475 -1.6061  0.5676  0.4729
10135TIP3   OH251895   2.743   4.616  15.166 -0.6495  0.1455  0.1448
10135TIP3    H151896   2.669   4.569  15.128 -0.4980  0.1262 -0.1273
10135TIP3    H251897   2.743   4.701  15.122 -0.6933  0.2607  0.3630
10136TIP3   OH251898   3.854   6.285   2.838  0.1823  0.1743 -0.1470
10136TIP3    H151899   3.829   6.198   2.808 -0.6621  0.7658 -1.2321
10136TIP3    H251900   3.843   6.281   2.933 -0.6426 -0.6676 -0.2592
10137TIP3   OH251901   1.596   2.246   0.089 -0.1196 -0.4663  0.4788
10137TIP3    H151902   1.602   2.310   0.018  0.1385  0.3812  1.2364
10137TIP3    H251903   1.571   2.165   0.046  0.4757 -0.0863 -0.6430
10138TIP3   OH251904   1.334   0.336  16.711  0.3997  0.0228 -0.1124
10138TIP3    H151905   1.412   0.391  16.712  1.2885 -1.1838  0.1336
10138TIP3    H251906   1.269   0.386  16.662  1.2737  1.1329 -0.1608
10139TIP3   OH251907   4.282   1.869   0.467 -0.1187  0.4728 -0.2839
10139TIP3    H151908   4.236   1.916   0.537 -0.8398 -0.1251 -0.3385
10139TIP3    H251909   4.260   1.777   0.481 -1.0660  0.4146 -1.8431
10140TIP3   OH251910   3.327   4.165  15.029 -0.4393  0.1033 -0.0627
10140TIP3    H151911   3.384   4.089  15.035  1.2709  1.0539 -2.3906
10140TIP3    H251912   3.379   4.237  15.065 -1.2989  0.5133  0.3991
10141TIP3   OH251913   2.643   6.536   2.963 -0.5281 -0.1067 -0.4596
10141TIP3    H151914   2.636   6.496   2.877  0.2501 -3.1757  0.7860
10141TIP3    H251915   2.723   6.588   2.960 -0.8749  0.3915 -1.7335
10142TIP3   OH251916   4.213   5.583  15.822  0.6026  0.2215  0.2767
10142TIP3    H151917   4.220   5.503  15.771  1.3495 -0.5562  1.5360
10142TIP3    H251918   4.220   5.653  15.758  0.3542 -0.7039 -0.8051
10143TIP3   OH251919   3.049   6.035   0.174 -0.0395 -0.0095 -0.2594
10143TIP3    H151920   3.039   6.130   0.179  0.4345  0.0189  0.2350
10143TIP3    H251921   2.982   6.000   0.232 -0.6885 -0.0077 -0.9953
10144TIP3   OH251922   2.455   4.793   2.513  0.4735  0.5098  0.3791
10144TIP3    H151923   2.514   4.752   2.449 -0.9199 -0.9839 -0.0173
10144TIP3    H251924   2.411   4.862   2.464  2.1371  1.9594  0.7980
10145TIP3   OH251925   5.008   5.930  16.999 -0.4265  0.1581 -0.2374
10145TIP3    H151926   4.966   5.850  16.966  0.2547 -0.8528  1.2315
10145TIP3    H251927   5.070   5.899  17.065 -0.6121  1.9548  0.8528
10146TIP3   OH251928   1.258   4.825   2.590 -0.0686  0.5605  0.8399
10146TIP3    H151929   1.200   4.787   2.524 -0.1456 -1.4460  1.9664
10146TIP3    H251930   1.346   4.813   2.554  0.2104 -3.6407  2.3076
10147TIP3   OH251931   4.308   5.679  14.566  0.0622  0.2086  0.2074
10147TIP3    H151932   4.328   5.719  14.651  2.3809 -0.7951  0.2055
10147TIP3    H251933   4.234   5.622  14.585  1.7658 -1.5611  2.1430
10148TIP3   OH251934   0.352   2.037  16.959  0.1150  0.3603 -0.1945
10148TIP3    H151935   0.389   1.970  16.901  0.3876  0.9168 -0.6830
10148TIP3    H251936   0.425   2.096  16.977 -0.5139  1.4899 -1.1894
10149TIP3   OH251937   4.155   2.626   3.855 -0.5424 -0.0119  0.0245
10149TIP3    H151938   4.219   2.689   3.889 -0.3906  0.1754 -0.6030
10149TIP3    H251939   4.207   2.565   3.803 -0.4725 -1.5144  1.7647
10150TIP3   OH251940   4.730   4.672   5.221 -0.8855  0.3738  0.6087
10150TIP3    H151941   4.740   4.605   5.289  0.9208  0.1848  0.2074
10150TIP3    H251942   4.715   4.753   5.269  1.7260  0.4941  1.3779
10151TIP3   OH251943   0.925   3.696   1.975  0.2677  0.1124  0.2202
10151TIP3    H151944   0.948   3.639   2.048 -1.4886 -1.2053 -0.2029
10151TIP3    H251945   0.882   3.771   2.015  0.3818 -0.0301  0.6104
10152TIP3   OH251946   2.425   2.001  10.472  0.2570 -0.0635  0.5876
10152TIP3    H151947   2.457   1.938  10.536 -2.1836  1.3938  3.5093
10152TIP3    H251948   2.350   1.957  10.431 -0.2961  0.2170  1.2762
10153TIP3   OH251949   0.397   0.984   5.430  0.0426 -0.1308 -0.2469
10153TIP3    H151950   0.361   0.903   5.394  0.9702 -0.4101 -0.5496
10153TIP3    H251951   0.333   1.051   5.405 -0.1106 -0.5651 -1.0632
10154TIP3   OH251952   1.227   4.184  15.810  0.1890  0.2521  0.1377
10154TIP3    H151953   1.211   4.274  15.782 -1.2767 -0.2874 -0.8865
10154TIP3    H251954   1.295   4.192  15.877 -0.8334  2.2626  1.0421
10155TIP3   OH251955   4.175   2.842   2.260 -0.2701  0.0637  0.8134
10155TIP3    H151956   4.212   2.809   2.342  0.3053 -2.0167 -0.2138
10155TIP3    H251957   4.250   2.854   2.202 -0.8825 -1.2916 -0.3162
10156TIP3   OH251958   5.246   3.302  14.543  0.5580  0.5336 -0.6825
10156TIP3    H151959   5.338   3.315  14.565  0.2847  0.4568  0.5438
10156TIP3    H251960   5.232   3.356  14.465  1.8276 -0.0777 -1.3512
10157TIP3   OH251961   5.093   0.104   2.037  0.1977 -0.4827  0.5146
10157TIP3    H151962   5.072   0.044   1.966 -1.1166  0.8456 -0.2486
10157TIP3    H251963   5.134   0.048   2.103  0.6811 -1.8920 -0.9100
10158TIP3   OH251964   1.274   2.675  11.541  0.5220  0.1942 -0.6332
10158TIP3    H151965   1.220   2.718  11.475 -1.7172 -0.1517  0.8591
10158TIP3    H251966   1.350   2.732  11.550 -0.3290  1.5780 -1.6924
10159TIP3   OH251967   0.124   5.731  11.734 -0.0623 -0.7047  0.1840
10159TIP3    H151968   0.162   5.782  11.662 -0.8411 -0.9194 -0.3979
10159TIP3    H251969   0.046   5.691  11.696  0.4717 -2.2495  0.6576
10160TIP3   OH251970   3.637   6.122  17.114  0.2821 -0.7638 -0.2011
10160TIP3    H151971   3.546   6.103  17.093 -0.0736 -0.1400  0.7089
10160TIP3    H251972   3.686   6.047  17.081 -0.6007 -1.2883 -0.3362
10161TIP3   OH251973   1.445   1.943  15.921 -0.0421  0.1430  0.1312
10161TIP3    H151974   1.451   2.023  15.973 -0.1252 -1.0147  2.0395
10161TIP3    H251975   1.490   1.964  15.839  1.1055  1.7290  1.1012
10162TIP3   OH251976   0.948   0.689   4.547  0.5812 -0.4150  0.4234
10162TIP3    H151977   0.950   0.755   4.478  0.0863 -0.6558  0.1750
10162TIP3    H251978   0.932   0.738   4.628  2.8337  0.0740  0.6388
10163TIP3   OH251979   2.483   0.645   4.643  0.1768 -0.0722  0.1646
10163TIP3    H151980   2.544   0.715   4.666  1.9233 -1.6331  0.4598
10163TIP3    H251981   2.407   0.660   4.699  0.0439  2.1717 -0.5196
10164TIP3   OH251982   2.876   2.557   3.721  0.1935  0.4613  0.4294
10164TIP3    H151983   2.966   2.582   3.699 -0.2898  0.4796 -1.7038
10164TIP3    H251984   2.822   2.627   3.683 -0.8323 -0.7275 -0.3713
10165TIP3   OH251985   4.835   2.796  10.333  0.5072 -0.4059  0.1261
10165TIP3    H151986   4.821   2.704  10.310  1.7259 -0.3300 -1.0563
10165TIP3    H251987   4.908   2.793  10.395 -1.3266 -0.4219  2.4314
10166TIP3   OH251988   1.903   6.449  15.162 -1.0501 -0.1250 -0.0092
10166TIP3    H151989   1.885   6.511  15.092 -1.4632  0.1352  0.3234
10166TIP3    H251990   1.893   6.500  15.242  1.0990  0.0386  0.2265
10167TIP3   OH251991   3.993   0.383  12.171  0.7938  0.1001 -0.6704
10167TIP3    H151992   4.033   0.451  12.225  0.0180  1.3457 -1.6208
10167TIP3    H251993   4.059   0.313  12.168  0.9773  0.1120  1.6062
10168TIP3   OH251994   5.636   5.962   2.824  0.3837 -0.2232  0.2477
10168TIP3    H151995   5.669   5.984   2.911  0.3812 -0.0081  0.1932
10168TIP3    H251996   5.654   6.039   2.770 -0.1325 -0.1333  0.1966
10169TIP3   OH251997   5.587   4.307  11.464  0.6869  0.4171 -0.7988
10169TIP3    H151998   5.599   4.233  11.523 -1.0323  0.1943 -0.6770
10169TIP3    H251999   5.645   4.375  11.499  2.2265 -0.8033 -0.8615
10170TIP3   OH252000   5.780   2.874  14.920 -0.2310  0.0909 -0.0550
10170TIP3    H152001   5.701   2.894  14.870 -0.8416 -0.9858  0.4358
10170TIP3    H252002   5.847   2.860  14.854 -0.8591 -0.6185 -0.5584
10171TIP3   OH252003   2.376   2.197  16.783  0.1494  0.7430  0.2466
10171TIP3    H152004   2.447   2.145  16.744  0.8714  1.5651  0.4268
10171TIP3    H252005   2.374   2.277  16.731 -2.0998 -0.1120 -1.1363
10172TIP3   OH252006   6.706   0.520  13.718 -0.0449 -0.1936  0.3669
10172TIP3    H152007   6.765   0.561  13.655  0.2438  0.5718  1.1080
10172TIP3    H252008   6.619   0.549  13.690 -0.2044 -2.0685 -1.2739
10173TIP3   OH252009   1.794   0.133   1.829 -0.8564 -0.9840 -0.2259
10173TIP3    H152010   1.804   0.218   1.786  0.4061 -0.5788  0.7982
10173TIP3    H252011   1.729   0.149   1.897 -0.0235 -0.5858  0.5052
10174TIP3   OH252012   6.475   3.061   2.263 -0.1278 -0.0283 -0.0256
10174TIP3    H152013   6.550   3.091   2.315  0.8909 -2.3972 -0.0261
10174TIP3    H252014   6.454   2.975   2.299 -2.0192  0.0312 -0.8997
10175TIP3   OH252015   6.661   6.450   3.131  0.1790 -0.4894 -0.4631
10175TIP3    H152016   6.674   6.529   3.183 -2.2956 -0.8851  0.9341
10175TIP3    H252017   6.732   6.391   3.157  1.3938  0.8375 -0.6948
10176TIP3   OH252018   3.531   4.363   1.313 -0.0331  0.6854 -0.2077
10176TIP3    H152019   3.606   4.388   1.367  0.6786  0.2076 -0.9526
10176TIP3    H252020   3.509   4.443   1.264  0.1635  0.7524 -0.1887
10177TIP3   OH252021   0.892   4.525  15.307 -0.2823  0.1778  0.7957
10177TIP3    H152022   0.846   4.471  15.371 -0.3985  0.2740  0.7955
10177TIP3    H252023   0.861   4.494  15.222  0.3980 -0.4177  0.7594
10178TIP3   OH252024   6.626   6.052   1.594  0.3657  0.3588 -0.6910
10178TIP3    H152025   6.572   6.072   1.670 -0.2333 -0.0608 -0.9998
10178TIP3    H252026   6.576   5.987   1.545  1.7308 -0.9966 -0.3476
10179TIP3   OH252027   0.974   4.981   2.879  0.0774 -0.3134 -0.3368
10179TIP3    H152028   1.000   5.073   2.877  0.3319 -0.3974 -1.4353
10179TIP3    H252029   1.048   4.935   2.917  0.7254 -0.2886 -1.5288
10180TIP3   OH252030   0.281   1.112  16.410 -0.3065  0.1041 -0.1362
10180TIP3    H152031   0.347   1.180  16.397 -0.6198  0.3720 -0.3238
10180TIP3    H252032   0.197   1.155  16.395 -0.4327 -0.7578 -2.2422
10181TIP3   OH252033   0.753   3.765  16.049  0.5951  0.4998 -0.2876
10181TIP3    H152034   0.660   3.766  16.070  0.3746 -1.4750 -1.0112
10181TIP3    H252035   0.778   3.672  16.051  2.3018  0.8894 -1.1647
10182TIP3   OH252036   2.215   6.477  13.923 -0.4982  0.0807 -0.0777
10182TIP3    H152037   2.197   6.536  13.996  0.8725 -0.0538  0.4011
10182TIP3    H252038   2.131   6.468  13.878 -0.8246  2.0888  0.0454
10183TIP3   OH252039   2.697   3.953  14.013 -0.3005  0.3122  0.0021
10183TIP3    H152040   2.758   3.965  14.086  0.9099 -3.3547 -0.2248
10183TIP3    H252041   2.687   3.858  14.005 -2.2963  0.6373 -3.1126
10184TIP3   OH252042   2.290   6.308   4.427  0.1826  0.8746 -0.0382
10184TIP3    H152043   2.373   6.274   4.461  0.7513  1.0554 -1.2244
10184TIP3    H252044   2.235   6.230   4.416  0.8060  0.5513 -0.9109
10185TIP3   OH252045   1.772   4.777  13.721  0.0117  0.1335  0.1662
10185TIP3    H152046   1.790   4.695  13.675  0.1524  0.9001 -1.2080
10185TIP3    H252047   1.688   4.806  13.685 -0.3389  0.3016  1.0942
10186TIP3   OH252048   1.956   3.097  15.582  0.2985  0.5525 -0.2637
10186TIP3    H152049   1.974   3.022  15.525  0.1002  1.7211 -1.9699
10186TIP3    H252050   1.884   3.143  15.538 -0.7660  0.8301  1.6502
10187TIP3   OH252051   1.862   1.293  14.448  0.0218 -0.0863 -0.2918
10187TIP3    H152052   1.885   1.202  14.468  1.2488  0.4020  0.6057
10187TIP3    H252053   1.919   1.346  14.504 -0.6431  1.2494 -0.8221
10188TIP3   OH252054   1.170   0.464   4.113 -0.3948  0.0792  0.4047
10188TIP3    H152055   1.206   0.505   4.035  1.4846 -0.0581  1.1536
10188TIP3    H252056   1.233   0.396   4.136  0.0258  1.1837  2.9537
10189TIP3   OH252057   3.735   4.053  10.695 -0.3367 -0.6214  0.5183
10189TIP3    H152058   3.654   4.013  10.663 -0.5401  0.4530 -0.4182
10189TIP3    H252059   3.706   4.125  10.751 -0.0806  0.1124 -0.2518
10190TIP3   OH252060   1.454   0.586  10.721  0.0921 -0.1110 -0.2030
10190TIP3    H152061   1.477   0.673  10.752  0.8078 -0.5829  0.6433
10190TIP3    H252062   1.360   0.590  10.705  0.0069  0.6283  0.4303
10191TIP3   OH252063   0.204   6.020  13.156 -0.5891  0.1042  0.3186
10191TIP3    H152064   0.150   6.095  13.178 -0.2784  0.4351 -0.0330
10191TIP3    H252065   0.292   6.044  13.188  0.1140  1.0391 -2.1328
10192TIP3   OH252066   3.087   3.885  11.296  0.0612  0.9405  0.1259
10192TIP3    H152067   3.046   3.907  11.380  1.8143  0.0194  1.2887
10192TIP3    H252068   3.030   3.817  11.259 -0.0733  0.4517  1.1793
10193TIP3   OH252069   5.111   2.708   3.247  0.2208  0.4912  0.3811
10193TIP3    H152070   5.160   2.627   3.258 -0.1618  0.1131 -0.5492
10193TIP3    H252071   5.168   2.764   3.194 -0.3513  0.0134 -0.7877
10194TIP3   OH252072   2.360   0.590   1.591 -0.1663  0.0979 -0.5359
10194TIP3    H152073   2.398   0.578   1.678 -1.1204 -2.3149 -0.3769
10194TIP3    H252074   2.275   0.632   1.608 -0.3498 -0.3625 -0.2768
10195TIP3   OH252075   0.088   4.674   4.612 -0.5785 -0.5796  0.5125
10195TIP3    H152076   0.144   4.693   4.688 -0.3679  0.7119  0.0619
10195TIP3    H252077   0.119   4.734   4.544 -1.2899 -1.1605 -0.3454
10196TIP3   OH252078   2.585   6.538   0.263 -0.4578  0.1291  0.1948
10196TIP3    H152079   2.545   6.533   0.350 -2.2300 -2.8642 -0.6325
10196TIP3    H252080   2.645   6.463   0.261  0.3279  0.7727 -0.8263
10197TIP3   OH252081   1.206   4.461   2.813  0.4788 -0.7288  0.1173
10197TIP3    H152082   1.268   4.389   2.806  1.4292  0.1146 -0.4329
10197TIP3    H252083   1.248   4.534   2.766 -0.0719  0.4387  1.3614
10198TIP3   OH252084   4.457   3.979  11.940 -0.4728  0.0677 -0.1931
10198TIP3    H152085   4.423   3.908  11.994 -0.0824  0.5070  0.6516
10198TIP3    H252086   4.534   3.942  11.897 -0.3717 -0.0795  0.1110
10199TIP3   OH252087   1.200   0.621  16.937 -0.2358  0.0405 -0.8394
10199TIP3    H152088   1.234   0.537  16.970  0.3220  0.9610  1.0702
10199TIP3    H252089   1.123   0.597  16.885 -0.3556 -1.6221  0.0357
10200TIP3   OH252090   3.567   0.869   4.335 -0.0259 -0.1222  0.3297
10200TIP3    H152091   3.635   0.814   4.374 -1.2281 -0.1878  2.4726
10200TIP3    H252092   3.615   0.928   4.278  1.5014 -2.1101 -0.5912
10201TIP3   OH252093   2.289   1.447   1.563 -0.0198 -0.4737  0.1777
10201TIP3    H152094   2.356   1.417   1.502 -0.1902  0.7883 -0.6882
10201TIP3    H252095   2.320   1.534   1.590 -0.5216 -0.5485  1.0080
10202TIP3   OH252096   5.827   2.924   3.768  0.3231  0.4691  0.4551
10202TIP3    H152097   5.777   2.892   3.692  2.0628  0.0995 -0.5985
10202TIP3    H252098   5.763   2.970   3.822 -0.9719  0.7663 -1.2583
10203TIP3   OH252099   5.919   0.371  16.381 -0.0247 -0.3689 -0.4989
10203TIP3    H152100   5.859   0.308  16.342 -0.8181  0.5508 -0.7857
10203TIP3    H252101   5.896   0.373  16.474  0.3114 -0.8345 -0.4015
10204TIP3   OH252102   2.327   3.780   4.292  0.0982 -0.3022 -0.3934
10204TIP3    H152103   2.247   3.767   4.343  0.6267 -1.2163  0.2391
10204TIP3    H252104   2.322   3.870   4.260 -1.7755 -0.7267 -1.4227
10205TIP3   OH252105   3.251   0.485  12.204  0.3646 -0.0680 -0.1224
10205TIP3    H152106   3.164   0.459  12.236  0.6924 -0.0101  0.8532
10205TIP3    H252107   3.282   0.410  12.155  1.1191 -1.4227  2.2770
10206TIP3   OH252108   3.373   2.468  16.439  0.1581 -0.1527  0.2232
10206TIP3    H152109   3.443   2.446  16.501 -0.4769  2.0637  1.8069
10206TIP3    H252110   3.389   2.559  16.416 -1.5975  0.0801 -0.2103
10207TIP3   OH252111   5.650   5.908  14.401  0.0431  0.3101  0.2147
10207TIP3    H152112   5.627   5.979  14.341  0.9744  0.1564 -0.3562
10207TIP3    H252113   5.713   5.947  14.461  2.4101 -0.5477 -1.5445
10208TIP3   OH252114   2.070   2.394  13.167  0.6936  0.2534  0.3478
10208TIP3    H152115   1.991   2.370  13.215  0.5318  0.3439  0.1301
10208TIP3    H252116   2.073   2.334  13.093 -0.2622  1.5116 -0.7696
10209TIP3   OH252117   4.383   1.158   6.003 -0.1569 -0.0374 -0.1055
10209TIP3    H152118   4.324   1.183   6.073 -0.5660 -1.4232  0.0756
10209TIP3    H252119   4.470   1.163   6.042 -0.4806 -2.5183  1.1176
10210TIP3   OH252120   5.215   4.300  12.931  0.3525  0.1738 -0.1427
10210TIP3    H152121   5.206   4.269  13.022 -0.8116 -0.7054 -0.5385
10210TIP3    H252122   5.298   4.263  12.902 -0.2924 -1.3568 -0.1116
10211TIP3   OH252123   0.893   2.110  15.452  1.0000  0.4167  0.0166
10211TIP3    H152124   0.887   2.184  15.512  0.8909  1.3245 -1.0933
10211TIP3    H252125   0.909   2.149  15.366 -0.7750 -0.7426 -0.8932
10212TIP3   OH252126   3.194   2.560  14.455  1.1677  0.5018  0.0209
10212TIP3    H152127   3.256   2.513  14.399  2.6133  2.5332 -0.2317
10212TIP3    H252128   3.211   2.653  14.436 -2.7376  1.2210 -0.8652
10213TIP3   OH252129   5.239   1.137  14.129 -0.1482 -0.0840  0.0143
10213TIP3    H152130   5.243   1.226  14.166  0.5643 -0.8158  1.8139
10213TIP3    H252131   5.329   1.118  14.103 -0.3378 -0.2278 -0.5505
10214TIP3   OH252132   0.529   0.618  13.442 -0.2997  0.3078 -0.8084
10214TIP3    H152133   0.566   0.684  13.384  1.1324 -0.3722 -0.7110
10214TIP3    H252134   0.483   0.668  13.510  1.3481  1.2669 -0.3391
10215TIP3   OH252135   0.737   4.789   4.236  0.3529 -0.2875 -0.4757
10215TIP3    H152136   0.800   4.793   4.164  1.3596 -1.4522  0.3028
10215TIP3    H252137   0.651   4.792   4.193  0.9284 -0.5966 -1.6918
10216TIP3   OH252138   1.572   3.993  16.382 -0.4185 -0.0896 -0.3481
10216TIP3    H152139   1.653   3.982  16.431  1.2149 -0.7167 -2.9596
10216TIP3    H252140   1.595   4.050  16.309 -3.1972  2.3698  0.4816
10217TIP3   OH252141   5.953   3.944  15.503 -0.4107  0.5836  0.5188
10217TIP3    H152142   5.873   3.932  15.452 -0.7940  1.4585  0.8944
10217TIP3    H252143   5.941   3.888  15.580  0.2632 -0.9146 -0.3942
10218TIP3   OH252144   5.050   5.313   0.585  0.5102  0.5851 -0.3527
10218TIP3    H152145   4.992   5.333   0.657  1.2958  1.5287  0.0339
10218TIP3    H252146   5.012   5.358   0.509  0.1045  0.2251 -0.3662
10219TIP3   OH252147   3.689   6.781   1.436 -0.5550  0.6983  0.1911
10219TIP3    H152148   3.655   6.853   1.383 -1.2492  0.9143  0.9227
10219TIP3    H252149   3.698   6.818   1.524  0.8854  0.4392  0.1787
10220TIP3   OH252150   5.123   6.559  11.440 -0.1920 -0.3575  0.0801
10220TIP3    H152151   5.074   6.491  11.393 -1.1330  0.6898 -0.4940
10220TIP3    H252152   5.209   6.520  11.455 -0.9659 -1.9863  0.5065
10221TIP3   OH252153   0.297   6.528  13.484  0.5133  0.3781  0.7277
10221TIP3    H152154   0.228   6.462  13.486  1.3234 -0.4802  1.0845
10221TIP3    H252155   0.282   6.582  13.561  0.7866 -0.3948  1.3368
10222TIP3   OH252156   3.657   5.845  11.671 -0.5442 -0.0735  0.4366
10222TIP3    H152157   3.602   5.792  11.613 -0.4228  0.0939  0.1667
10222TIP3    H252158   3.687   5.785  11.739 -0.2014 -0.4016 -0.0100
10223TIP3   OH252159   4.329   4.409  13.917  0.3609 -0.0883  0.3097
10223TIP3    H152160   4.298   4.437  14.004  0.2579  1.2154 -0.1166
10223TIP3    H252161   4.409   4.460  13.903  1.8263 -2.1689  0.6779
10224TIP3   OH252162   1.186   5.376   2.687 -0.1147 -0.0254  0.3756
10224TIP3    H152163   1.149   5.318   2.620  1.0473 -0.6550  0.2629
10224TIP3    H252164   1.117   5.382   2.753  0.3081 -2.9115  1.2293
10225TIP3   OH252165   5.532   2.608  12.992 -0.0316 -0.1898  0.2110
10225TIP3    H152166   5.472   2.658  13.048 -0.5036  1.1430 -1.4083
10225TIP3    H252167   5.474   2.558  12.934  0.4201  0.2387 -0.6177
10226TIP3   OH252168   4.847   6.687  14.003 -0.0004  0.4558 -0.8665
10226TIP3    H152169   4.912   6.637  13.953 -0.3756  0.6925 -1.6162
10226TIP3    H252170   4.842   6.643  14.088 -1.0287 -1.4157 -1.8163
10227TIP3   OH252171   0.368   5.179   4.110 -0.1277 -0.3593  0.0107
10227TIP3    H152172   0.313   5.251   4.079 -0.7417 -0.7938  0.0834
10227TIP3    H252173   0.387   5.127   4.032  0.0759 -0.2843  0.0088
10228TIP3   OH252174   6.235   3.032   1.592 -0.2507 -0.5682  0.6210
10228TIP3    H152175   6.220   3.060   1.502  0.5653 -0.3183  0.5497
10228TIP3    H252176   6.281   3.105   1.633  0.8928 -1.3210  0.7490
10229TIP3   OH252177   6.628   3.749  17.132  0.4099  0.1037 -0.2296
10229TIP3    H152178   6.673   3.665  17.122 -0.0822 -0.0040 -1.9264
10229TIP3    H252179   6.684   3.799  17.191  1.2976 -1.0148 -0.0804
10230TIP3   OH252180   1.410   0.628  15.482  0.4258 -0.4443 -0.0002
10230TIP3    H152181   1.400   0.703  15.423  1.3723  0.9247  1.4809
10230TIP3    H252182   1.472   0.571  15.438 -0.3562 -0.4238 -1.1856
10231TIP3   OH252183   0.110   0.793   4.393 -0.0735  0.3888 -0.0731
10231TIP3    H152184   0.048   0.765   4.326  1.0147 -0.8435 -0.6035
10231TIP3    H252185   0.171   0.851   4.347  0.3755 -0.0545 -0.0508
10232TIP3   OH252186   4.536   2.541   0.757  0.2417  0.3289 -1.0734
10232TIP3    H152187   4.575   2.608   0.814 -4.0406  0.7574  1.7637
10232TIP3    H252188   4.495   2.591   0.687 -0.5215  0.4529 -0.5453
10233TIP3   OH252189   3.711   3.420  12.457 -0.1055 -0.1618  0.1920
10233TIP3    H152190   3.656   3.342  12.460  0.7893 -0.7781  1.4031
10233TIP3    H252191   3.765   3.415  12.535 -0.6905  2.1973  0.8406
10234TIP3   OH252192   6.441   5.254   5.380  0.1792 -0.1886  0.0972
10234TIP3    H152193   6.421   5.164   5.355 -1.6132 -0.4123  1.9881
10234TIP3    H252194   6.404   5.308   5.310  1.6469 -0.8823 -1.2690
10235TIP3   OH252195   2.661   2.252  13.044 -0.0682  0.0275  0.1149
10235TIP3    H152196   2.599   2.318  13.013  0.3481  0.3576 -0.0093
10235TIP3    H252197   2.608   2.173  13.053 -0.5740  0.3832  0.3000
10236TIP3   OH252198   3.136   4.191  14.621  0.7474  0.7134  0.0368
10236TIP3    H152199   3.135   4.105  14.663 -1.5151  0.4106 -0.4792
10236TIP3    H252200   3.104   4.252  14.688 -1.2143  0.4997 -0.6276
10237TIP3   OH252201   5.361   6.217   5.550  0.1264 -0.1847  0.0023
10237TIP3    H152202   5.371   6.131   5.589  0.2178 -0.3925 -0.4763
10237TIP3    H252203   5.383   6.278   5.620 -1.5380 -0.5070  0.8394
10238TIP3   OH252204   6.709   0.994   5.423  0.0313  0.1079  0.7129
10238TIP3    H152205   6.626   0.992   5.471  0.1797 -0.0549  0.9617
10238TIP3    H252206   6.684   1.023   5.335 -0.1743  0.8343  1.0061
10239TIP3   OH252207   1.198   0.932  16.178  0.2885  0.6557  0.6214
10239TIP3    H152208   1.222   0.840  16.170 -1.1562  0.3028 -0.0392
10239TIP3    H252209   1.251   0.965  16.251  3.1571  0.1676 -1.1157
10240TIP3   OH252210   4.697   3.432   5.849  0.1266  0.5859 -0.0609
10240TIP3    H152211   4.607   3.450   5.820 -0.3593 -0.4861  0.7081
10240TIP3    H252212   4.717   3.346   5.812 -0.5730 -0.9110  2.7639
10241TIP3   OH252213   3.256   6.683   3.935  0.1258 -0.3860  0.0971
10241TIP3    H152214   3.342   6.725   3.926 -0.7984  1.5921  0.1363
10241TIP3    H252215   3.257   6.614   3.868  1.6536 -0.2539 -0.0604
10242TIP3   OH252216   0.985   4.198   3.416 -1.1409 -0.4176 -0.3666
10242TIP3    H152217   0.999   4.117   3.367  1.1541 -0.3975  0.1495
10242TIP3    H252218   0.959   4.262   3.349 -3.6593 -1.6579 -0.6895
10243TIP3   OH252219   0.621   0.918   6.431  0.1469  0.5985 -0.3665
10243TIP3    H152220   0.688   0.984   6.415 -0.0598  0.5252 -1.5944
10243TIP3    H252221   0.538   0.964   6.413 -0.0681  0.3677  0.0286
10244TIP3   OH252222   5.937   1.929  12.186  0.7101  0.6068  0.1247
10244TIP3    H152223   5.997   1.952  12.258  1.3680  2.1285 -0.8594
10244TIP3    H252224   5.994   1.887  12.121  0.3531  0.3798 -0.0406
10245TIP3   OH252225   6.370   2.663  12.640  0.4303 -0.9504 -0.0903
10245TIP3    H152226   6.430   2.720  12.687  0.0609 -0.3650 -0.3128
10245TIP3    H252227   6.392   2.574  12.669  0.5247 -0.6374  0.8215
10246TIP3   OH252228   5.544   6.468   0.269 -0.0809 -0.1727 -0.1082
10246TIP3    H152229   5.502   6.446   0.352  1.0407 -1.1517  0.2359
10246TIP3    H252230   5.632   6.430   0.277  0.5228  0.9464 -1.1823
10247TIP3   OH252231   1.097   3.911  12.729 -0.0699  0.1048 -0.7646
10247TIP3    H152232   1.043   3.886  12.654  0.1398  1.3813 -1.3744
10247TIP3    H252233   1.176   3.858  12.720 -0.1566  0.0579 -1.2973
10248TIP3   OH252234   2.138   1.278  11.714 -0.4832 -0.5525  0.3442
10248TIP3    H152235   2.135   1.294  11.808  2.2885  0.3850  0.3641
10248TIP3    H252236   2.151   1.184  11.706  2.3465 -0.3414  1.1519
10249TIP3   OH252237   5.146   3.739   1.416  0.1640  0.0344  0.7148
10249TIP3    H152238   5.148   3.671   1.349  0.2800 -0.3239  1.0809
10249TIP3    H252239   5.139   3.821   1.366 -3.1003 -0.3520  0.3081
10250TIP3   OH252240   6.505   3.340   0.951 -0.8653 -0.0660  0.0078
10250TIP3    H152241   6.441   3.388   0.899 -0.5344  0.2094 -0.1512
10250TIP3    H252242   6.531   3.267   0.896  0.6060  1.0586 -0.8640
10251TIP3   OH252243   2.348   0.587  15.023  0.0182 -0.2907  0.3100
10251TIP3    H152244   2.424   0.602  15.078  1.2571 -1.7991 -0.8872
10251TIP3    H252245   2.325   0.495  15.037 -0.0059 -0.5466 -1.1872
10252TIP3   OH252246   6.551   0.830   5.610 -0.2972 -0.7301  0.1119
10252TIP3    H152247   6.476   0.867   5.657 -0.2818  0.9273 -1.0560
10252TIP3    H252248   6.623   0.890   5.629 -0.4733  0.4832 -2.5358
10253TIP3   OH252249   4.673   5.693   4.951 -0.7004 -0.1701  0.3904
10253TIP3    H152250   4.619   5.765   4.983  1.7037  1.0090  2.1435
10253TIP3    H252251   4.660   5.623   5.014 -1.7775 -0.7139 -0.4025
10254TIP3   OH252252   5.972   0.257  15.817 -0.0026 -0.0527  0.2107
10254TIP3    H152253   6.003   0.274  15.728  4.0089 -0.0732  1.4132
10254TIP3    H252254   5.934   0.340  15.845 -0.6549  0.1664 -1.2206
10255TIP3   OH252255   0.533   5.958  14.274 -0.1719  0.3188  0.0462
10255TIP3    H152256   0.622   5.940  14.244 -0.4754  0.0039 -0.6869
10255TIP3    H252257   0.482   5.967  14.194 -0.5989  1.5671  0.4465
10256TIP3   OH252258   0.144   1.097  15.979  0.0408  0.3199 -0.3450
10256TIP3    H152259   0.087   1.026  15.948  0.0179 -0.2280  0.9087
10256TIP3    H252260   0.098   1.177  15.953  0.1963 -0.0863 -2.0166
10257TIP3   OH252261   3.451   0.597   5.373  0.1876  0.4433 -0.1202
10257TIP3    H152262   3.364   0.559   5.383  0.2361  0.2217 -0.5098
10257TIP3    H252263   3.436   0.681   5.329  0.2990 -0.3815 -1.8367
10258TIP3   OH252264   1.164   3.120   4.931 -0.3251  0.1984 -0.0729
10258TIP3    H152265   1.137   3.115   4.839  0.1209 -0.1239 -0.1899
10258TIP3    H252266   1.174   3.214   4.948 -2.6560  0.4348  0.3212
10259TIP3   OH252267   2.386   3.868  13.669 -0.0267  1.1594  0.4233
10259TIP3    H152268   2.313   3.891  13.726 -0.6490 -1.2742  0.7231
10259TIP3    H252269   2.457   3.926  13.696 -0.4129  0.3914  3.4284
10260TIP3   OH252270   4.829   1.832  15.109 -0.1821 -0.1552  0.5143
10260TIP3    H152271   4.758   1.809  15.049  0.9106  2.4517 -2.0100
10260TIP3    H252272   4.880   1.751  15.117 -0.6725 -0.7702 -1.6957
10261TIP3   OH252273   5.914   3.131  15.063  0.9278  0.0155  0.4708
10261TIP3    H152274   5.846   3.066  15.081  0.3424 -0.1313 -1.9434
10261TIP3    H252275   5.978   3.085  15.010 -0.8216  1.8563 -3.7026
10262TIP3   OH252276   5.748   0.531  14.292 -0.0756  0.7771  0.6767
10262TIP3    H152277   5.684   0.483  14.240  1.2869 -2.3291  1.6666
10262TIP3    H252278   5.711   0.620  14.298 -2.6040  0.0268 -1.4876
10263TIP3   OH252279   0.656   6.817  12.198  0.6797 -0.1784 -0.5104
10263TIP3    H152280   0.734   6.788  12.245 -0.3523  0.2935  1.6269
10263TIP3    H252281   0.585   6.768  12.237 -0.0803 -1.1101 -2.8961
10264TIP3   OH252282   0.193   0.733  15.092 -0.2727 -0.7377  0.5747
10264TIP3    H152283   0.197   0.767  15.182  0.0388  0.1117  0.2564
10264TIP3    H252284   0.224   0.643  15.099  1.9452 -0.0017  1.0078
10265TIP3   OH252285   3.176   1.231   1.711 -0.5397  0.1378 -0.3581
10265TIP3    H152286   3.258   1.188   1.734 -0.1166  1.1592  0.0781
10265TIP3    H252287   3.169   1.305   1.772 -2.5714 -0.8280  0.6659
10266TIP3   OH252288   2.637   4.897   0.734 -0.4100  0.0427 -0.0303
10266TIP3    H152289   2.603   4.902   0.645  2.2270 -0.0360 -1.1407
10266TIP3    H252290   2.606   4.812   0.767 -0.6662 -0.3405 -1.2230
10267TIP3   OH252291   6.127   4.605  13.914 -0.3222  0.0269 -0.2995
10267TIP3    H152292   6.136   4.700  13.919 -1.5326  0.2178 -1.2763
10267TIP3    H252293   6.119   4.577  14.006 -0.2210  0.8951 -0.0208
10268TIP3   OH252294   0.539   4.495  12.901  0.6584  0.2857  0.8696
10268TIP3    H152295   0.527   4.406  12.868  0.5803  0.4171  0.5422
10268TIP3    H252296   0.496   4.495  12.987  1.0445 -0.1155  1.0644
10269TIP3   OH252297   3.344   0.826  12.569  0.1148  0.0522 -0.1163
10269TIP3    H152298   3.305   0.858  12.650  2.8526  2.2937  0.4720
10269TIP3    H252299   3.337   0.899  12.508  1.7434 -0.0736 -0.5050
10270TIP3   OH252300   2.809   2.816   2.768  0.2574  0.6113  0.2590
10270TIP3    H152301   2.792   2.742   2.826  0.0736 -0.0768 -0.6482
10270TIP3    H252302   2.756   2.887   2.803 -0.9777 -0.2049  0.1089
10271TIP3   OH252303   4.087   1.166  13.837  0.7296 -0.7868 -0.3206
10271TIP3    H152304   4.042   1.249  13.818  0.8166 -0.6235  0.1846
10271TIP3    H252305   4.053   1.139  13.923  2.2513 -0.2132  0.4970
10272TIP3   OH252306   0.132   1.921  13.903 -0.1315  0.6228  0.0521
10272TIP3    H152307   0.127   1.917  13.807  0.1195 -1.6368  0.0762
10272TIP3    H252308   0.043   1.898  13.932 -0.3138  1.6923  0.3883
10273TIP3   OH252309   2.078   5.473  12.974  0.3788 -0.1906 -0.3552
10273TIP3    H152310   2.013   5.511  12.915  1.2122  0.8139 -0.6539
10273TIP3    H252311   2.048   5.384  12.988 -0.6220  0.0036 -1.1432
10274TIP3   OH252312   5.141   2.564   4.506 -0.1171  0.1708  0.5818
10274TIP3    H152313   5.128   2.626   4.577  2.0310  1.3688  0.0069
10274TIP3    H252314   5.231   2.532   4.518  0.0430 -0.1351 -1.1766
10275TIP3   OH252315   5.630   5.600   0.861  0.0990  0.0567  0.0966
10275TIP3    H152316   5.687   5.524   0.868 -0.2585 -0.3793 -1.3368
10275TIP3    H252317   5.568   5.591   0.934 -0.8757 -1.8670 -0.9007
10276TIP3   OH252318   1.342   3.714   0.657 -0.1095 -0.4730 -0.5014
10276TIP3    H152319   1.357   3.619   0.658  1.6377 -0.2394 -0.5298
10276TIP3    H252320   1.310   3.734   0.745 -0.0414 -1.0384 -0.3416
10277TIP3   OH252321   2.866   3.308   1.947 -0.0437  0.0927  0.4898
10277TIP3    H152322   2.903   3.311   2.036 -0.5604  0.9608  0.6879
10277TIP3    H252323   2.811   3.230   1.946  2.0928 -1.5146  0.0470
10278TIP3   OH252324   5.469   3.794  17.192  0.0983  0.3732 -0.0821
10278TIP3    H152325   5.420   3.713  17.182 -1.5938  1.5380 -2.0165
10278TIP3    H252326   5.557   3.774  17.159 -0.5134 -0.4905 -1.2556
10279TIP3   OH252327   3.954   0.750  14.789 -0.3040  0.0127  0.0063
10279TIP3    H152328   3.996   0.692  14.852  0.6995  1.0264  0.3039
10279TIP3    H252329   3.911   0.816  14.842 -0.8673 -0.0705 -0.3413
10280TIP3   OH252330   4.736   1.392  17.047 -0.7653 -0.5556  0.6840
10280TIP3    H152331   4.792   1.318  17.074  2.0780  0.0033 -2.8904
10280TIP3    H252332   4.658   1.350  17.011  0.7921 -2.0072 -1.3004
10281TIP3   OH252333   0.012   3.242   0.652  0.1320 -0.0011  0.1144
10281TIP3    H152334   0.025   3.158   0.608  1.7781  1.0013 -1.4469
10281TIP3    H252335   0.031   3.308   0.584  1.5411  1.6281  1.9634
10282TIP3   OH252336   1.723   5.448   2.402 -0.2127  0.4429  0.2509
10282TIP3    H152337   1.787   5.411   2.463 -1.9825 -0.9928  1.3573
10282TIP3    H252338   1.689   5.526   2.447 -0.0236  0.5955  0.1343
10283TIP3   OH252339   5.821   4.505   5.030  0.1043 -0.1771 -0.4656
10283TIP3    H152340   5.834   4.525   5.122  0.0046 -0.9444 -0.2769
10283TIP3    H252341   5.771   4.578   4.996 -1.5930 -0.8223  0.5534
10284TIP3   OH252342   3.487   4.469  14.095  0.1594  0.1733 -0.5466
10284TIP3    H152343   3.455   4.457  14.184  1.2850 -1.4454 -0.3016
10284TIP3    H252344   3.491   4.564  14.083 -3.3382  0.5131 -0.1674
10285TIP3   OH252345   3.897   0.806   5.643 -0.1914 -0.3577 -0.3052
10285TIP3    H152346   3.936   0.813   5.556  1.2284  2.5630  0.4396
10285TIP3    H252347   3.964   0.764   5.697  0.1543  0.5360 -0.0167
10286TIP3   OH252348   1.852   4.002   0.972  0.5235  0.2691 -0.0182
10286TIP3    H152349   1.769   3.975   1.009 -0.6229  2.3979 -0.8770
10286TIP3    H252350   1.843   3.988   0.878  0.9921  0.8201 -0.1556
10287TIP3   OH252351   0.682   3.920  16.694 -0.0790  0.1836  0.1544
10287TIP3    H152352   0.704   4.009  16.664  1.0737 -0.0249  0.3709
10287TIP3    H252353   0.594   3.905  16.658 -0.5006  1.5932  0.5296
10288TIP3   OH252354   4.163   1.188  12.943 -1.0109 -0.0869  0.0206
10288TIP3    H152355   4.229   1.181  13.012 -1.6931  1.4466  0.8675
10288TIP3    H252356   4.106   1.112  12.957 -2.7548  1.5873  2.9530
10289TIP3   OH252357   0.868   3.960  13.468 -0.1997 -0.4401 -0.0103
10289TIP3    H152358   0.875   3.887  13.529  0.6294  0.4457  0.9940
10289TIP3    H252359   0.947   4.012  13.484 -1.4211  1.4121  0.3027
10290TIP3   OH252360   3.120   4.368   1.510  0.0826  0.8835 -0.7707
10290TIP3    H152361   3.213   4.387   1.518  0.3849 -0.4525 -0.8327
10290TIP3    H252362   3.111   4.278   1.541 -0.8233  0.2222 -2.7235
10291TIP3   OH252363   5.031   1.545   0.289  0.2802 -0.8254 -0.2096
10291TIP3    H152364   5.033   1.626   0.340  2.7967 -0.3332 -0.9443
10291TIP3    H252365   4.991   1.570   0.206  2.1607  0.0771 -0.9167
10292TIP3   OH252366   6.126   1.012   4.401  0.3468  0.4227 -0.1184
10292TIP3    H152367   6.097   0.922   4.412  0.6365  0.4880  1.3093
10292TIP3    H252368   6.053   1.065   4.431  0.5711  0.6521  0.0285
10293TIP3   OH252369   6.576   2.498  14.499 -0.3770 -0.1477  0.0466
10293TIP3    H152370   6.603   2.407  14.490 -0.9117 -0.2142 -1.0768
10293TIP3    H252371   6.520   2.514  14.423  1.8100  1.8613 -1.3276
10294TIP3   OH252372   4.927   1.331  14.413  0.9756  0.1501  0.2231
10294TIP3    H152373   4.935   1.325  14.508  1.9051 -0.1819  0.1395
10294TIP3    H252374   4.869   1.405  14.398 -2.0081 -1.8292  1.0957
10295TIP3   OH252375   6.837   4.896   2.005 -0.7223 -0.2753 -0.1652
10295TIP3    H152376   6.761   4.941   1.968  0.0418  1.7223  0.5551
10295TIP3    H252377   6.907   4.961   2.001  0.0156 -0.7919  2.4866
10296TIP3   OH252378   2.810   2.689  13.740  0.3396  0.3812  0.3894
10296TIP3    H152379   2.869   2.684  13.815  0.9154  1.0737 -0.0065
10296TIP3    H252380   2.868   2.685  13.664 -0.2722 -0.7440 -0.0370
10297TIP3   OH252381   4.920   1.471   2.164 -0.0879  0.4780 -0.1009
10297TIP3    H152382   4.837   1.500   2.126 -0.1766  2.2936  1.2947
10297TIP3    H252383   4.981   1.469   2.091 -1.1887 -0.2558 -1.0371
10298TIP3   OH252384   3.451   1.926  13.327  0.7400  0.0552  0.0348
10298TIP3    H152385   3.538   1.965  13.335  0.7548 -0.3225  2.7226
10298TIP3    H252386   3.413   1.934  13.415 -1.3578 -1.1134 -0.6953
10299TIP3   OH252387   1.982   3.913   3.297 -0.1974  0.2262 -0.7294
10299TIP3    H152388   2.074   3.920   3.274  0.1182 -0.1268  0.3480
10299TIP3    H252389   1.936   3.967   3.232  0.9859  2.4726  0.1846
10300TIP3   OH252390   5.028   6.737  13.035  0.0313 -0.3201  0.1014
10300TIP3    H152391   4.985   6.773  12.957 -0.4285 -0.2174  0.3965
10300TIP3    H252392   5.027   6.809  13.098 -0.7770 -0.8015  0.6505
10301TIP3   OH252393   2.677   2.968  16.486 -0.2899 -0.1113  0.3240
10301TIP3    H152394   2.589   2.957  16.449 -0.3336  1.3870 -0.0919
10301TIP3    H252395   2.715   2.881  16.483 -1.6329 -0.7237  0.1818
10302TIP3   OH252396   1.227   4.451  14.184  0.2240 -0.0498  0.0582
10302TIP3    H152397   1.295   4.518  14.192  1.9359 -1.7061  0.1140
10302TIP3    H252398   1.264   4.374  14.227  0.1089 -2.3077 -3.5131
10303TIP3   OH252399   3.052   2.228  16.203 -0.2215 -0.3040  0.3629
10303TIP3    H152400   2.972   2.273  16.230 -0.2827 -1.5072  2.3876
10303TIP3    H252401   3.110   2.233  16.279  0.7848 -1.3144 -0.2943
10304TIP3   OH252402   3.926   2.176   5.061 -0.8990 -0.0766 -0.2920
10304TIP3    H152403   3.956   2.106   5.003 -0.6763  0.5793 -0.9858
10304TIP3    H252404   3.937   2.256   5.009 -0.4164  0.5566  0.7597
10305TIP3   OH252405   4.893   3.492   0.237 -0.2881  0.1493  0.4741
10305TIP3    H152406   4.980   3.456   0.252 -1.0600 -0.9142  3.0393
10305TIP3    H252407   4.850   3.426   0.182  0.1156 -0.0150  0.3510
10306TIP3   OH252408   6.791   0.155   5.721 -0.3942  0.0465  0.1190
10306TIP3    H152409   6.720   0.210   5.755  0.5510  1.8444 -0.6773
10306TIP3    H252410   6.800   0.182   5.630  0.5687 -0.9713 -0.0992
10307TIP3   OH252411   4.179   0.921   3.937 -0.5759 -0.2460 -0.5070
10307TIP3    H152412   4.122   0.964   3.873  0.5851  0.4897 -1.0874
10307TIP3    H252413   4.253   0.890   3.884  1.2027  1.7642  0.6484
10308TIP3   OH252414   6.332   3.570  15.207  0.4217 -0.4738  0.5080
10308TIP3    H152415   6.318   3.626  15.131 -1.8553 -0.5828  0.7697
10308TIP3    H252416   6.261   3.593  15.267 -0.3613 -3.2693  0.8024
10309TIP3   OH252417   6.353   0.770   2.667  0.4302 -0.2076 -0.2275
10309TIP3    H152418   6.424   0.765   2.731  0.5440 -3.3624 -0.4303
10309TIP3    H252419   6.396   0.797   2.586  0.7277  1.3255  0.4110
10310TIP3   OH252420   5.943   0.053   4.561 -0.3886  0.0663  0.4504
10310TIP3    H152421   6.027   0.075   4.601  0.7674 -0.8359 -1.3765
10310TIP3    H252422   5.934  -0.042   4.574 -0.9678  0.0997  0.3262
10311TIP3   OH252423   2.108   5.273  15.044  0.1046  0.4827 -0.3587
10311TIP3    H152424   2.065   5.233  14.968  0.8450 -2.2463  0.5421
10311TIP3    H252425   2.037   5.286  15.107  0.1539 -2.1129  0.3567
10312TIP3   OH252426   0.538   6.079  12.892  0.2343  0.3253 -0.5880
10312TIP3    H152427   0.576   6.014  12.833 -1.5516 -0.2235 -1.1879
10312TIP3    H252428   0.462   6.113  12.845 -0.3253  1.0260  0.7619
10313TIP3   OH252429   1.213   5.439   1.663 -0.1874 -0.0487 -0.4458
10313TIP3    H152430   1.169   5.367   1.707 -0.1148  0.4460  0.4716
10313TIP3    H252431   1.158   5.459   1.587 -1.2045  0.1392  0.3188
10314TIP3   OH252432   2.443   4.344   0.372 -0.5425 -0.4036  0.5223
10314TIP3    H152433   2.472   4.279   0.437 -1.6269 -0.6691  0.7586
10314TIP3    H252434   2.400   4.412   0.424  1.4468  1.0619  0.3866
10315TIP3   OH252435   6.346   0.502  17.036 -0.2880 -0.5816 -0.0767
10315TIP3    H152436   6.316   0.577  16.984  2.8438  1.4941  0.8824
10315TIP3    H252437   6.311   0.518  17.124  0.5564 -0.0806  0.1794
10316TIP3   OH252438   0.359   6.562  14.562  0.1507 -0.6912 -0.3353
10316TIP3    H152439   0.386   6.611  14.485 -0.2492 -1.5302 -1.0260
10316TIP3    H252440   0.332   6.628  14.625  1.5032  0.0639 -0.5030
10317TIP3   OH252441   5.207   0.038   4.572  0.2629 -0.1601 -0.3458
10317TIP3    H152442   5.164  -0.038   4.610 -0.6875  0.0986 -0.8681
10317TIP3    H252443   5.163   0.113   4.613  0.3351  0.1106 -0.7570
10318TIP3   OH252444   0.635   0.784   4.853 -0.1870 -0.1037 -0.3846
10318TIP3    H152445   0.579   0.769   4.930 -1.1050  1.0385 -0.8141
10318TIP3    H252446   0.612   0.712   4.794 -0.9662  0.1619 -0.4202
10319TIP3   OH252447   4.871   6.068  15.345  0.5045  0.5746 -0.3173
10319TIP3    H152448   4.949   6.106  15.304  1.1068 -0.3589 -0.0649
10319TIP3    H252449   4.905   6.002  15.405 -0.5241 -0.8508 -1.2548
10320TIP3   OH252450   1.451   5.666   4.303  0.0297  0.1923 -0.1186
10320TIP3    H152451   1.539   5.666   4.341  0.5757  4.1117 -0.9183
10320TIP3    H252452   1.465   5.644   4.211  0.1542  0.5123 -0.1785
10321TIP3   OH252453   5.457   3.314  13.780  0.0391  0.4478 -0.3144
10321TIP3    H152454   5.429   3.402  13.807 -2.9364 -0.3898 -0.3011
10321TIP3    H252455   5.381   3.259  13.796  0.9660 -1.6996 -2.6100
10322TIP3   OH252456   1.951   1.627  10.960 -0.2686  0.6875 -0.5205
10322TIP3    H152457   2.031   1.575  10.961 -0.8261 -0.2244  1.4823
10322TIP3    H252458   1.957   1.683  11.038 -1.5314  0.6693 -0.3906
10323TIP3   OH252459   1.733   6.490  16.909 -0.0208  0.2358 -0.4674
10323TIP3    H152460   1.764   6.581  16.917 -0.9601  0.4342  1.5196
10323TIP3    H252461   1.703   6.483  16.818  0.5532  1.7523 -0.8068
10324TIP3   OH252462   3.098   4.782  14.767  0.1413  0.2166 -0.2798
10324TIP3    H152463   3.123   4.874  14.760  1.7496 -0.0211  1.5674
10324TIP3    H252464   3.143   4.739  14.695 -0.5708  0.8450 -1.1195
10325TIP3   OH252465   2.335   3.219   5.524  0.3701 -0.3262 -0.0352
10325TIP3    H152466   2.298   3.179   5.604 -0.1063 -2.9147 -1.4455
10325TIP3    H252467   2.429   3.222   5.540  0.2234 -0.2697  0.8696
10326TIP3   OH252468   0.587   1.675   4.684  0.8697 -0.7297 -0.3023
10326TIP3    H152469   0.668   1.688   4.733  0.2581 -1.8957  1.0716
10326TIP3    H252470   0.598   1.591   4.640  0.4708 -0.8092 -0.2521
10327TIP3   OH252471   0.768   6.743  15.706  0.1469  0.1242  0.1876
10327TIP3    H152472   0.705   6.693  15.759 -0.5163  0.5321 -0.1932
10327TIP3    H252473   0.851   6.735  15.753 -0.0943 -0.7660  0.4946
10328TIP3   OH252474   6.516   4.313   6.224 -1.0457 -0.3122  0.6464
10328TIP3    H152475   6.577   4.239   6.216 -1.6921 -0.7005 -1.2876
10328TIP3    H252476   6.565   4.388   6.190 -1.4040 -0.4945 -0.2991
10329TIP3   OH252477   3.853   4.850  17.157  0.5283  0.0503 -0.2529
10329TIP3    H152478   3.945   4.868  17.140  0.5992  0.6178  0.7261
10329TIP3    H252479   3.806   4.917  17.108  0.6742  0.5130  0.2367
10330TIP3   OH252480   1.193   4.388   4.123  0.4593 -0.2549  0.0023
10330TIP3    H152481   1.176   4.328   4.051 -1.4235  0.0695  0.1127
10330TIP3    H252482   1.248   4.338   4.184 -0.3930 -1.5985 -0.2839
10331TIP3   OH252483   5.713   3.452   1.437 -0.3169  0.2815  0.2487
10331TIP3    H152484   5.751   3.375   1.394  0.4268  0.7857 -0.0320
10331TIP3    H252485   5.626   3.424   1.465  1.4654 -2.1804  4.2644
10332TIP3   OH252486   1.050   6.840  15.483 -0.0170 -0.3830  0.2955
10332TIP3    H152487   1.141   6.828  15.509  0.5704  1.2915 -0.8031
10332TIP3    H252488   1.009   6.755  15.497  1.8082 -1.2801  0.4412
10333TIP3   OH252489   0.535   6.767  16.676 -0.5340  0.7142 -0.2216
10333TIP3    H152490   0.630   6.762  16.669 -0.1921  3.3894  1.3070
10333TIP3    H252491   0.518   6.779  16.770 -2.2892  1.4444 -0.5762
10334TIP3   OH252492   0.461   0.558  12.640 -0.3142  0.2501  0.0027
10334TIP3    H152493   0.498   0.525  12.722 -2.3570 -0.5771  0.6417
10334TIP3    H252494   0.434   0.480  12.592 -0.0447  0.7763 -1.0333
10335TIP3   OH252495   6.140   1.212  10.904 -0.2018  0.2130 -0.1810
10335TIP3    H152496   6.201   1.170  10.964 -1.7432 -0.4942  0.9485
10335TIP3    H252497   6.165   1.304  10.905  0.1972  0.1112  1.0841
10336TIP3   OH252498   5.571   5.435   2.221  0.5249 -0.9440 -0.5624
10336TIP3    H152499   5.655   5.390   2.213  0.4749 -0.9462 -1.0906
10336TIP3    H252500   5.595   5.527   2.232  0.6377 -1.1186  0.8634
10337TIP3   OH252501   5.421   4.783   5.683 -0.0843  0.6284 -0.2824
10337TIP3    H152502   5.490   4.846   5.661  2.1333 -0.9240  1.6888
10337TIP3    H252503   5.406   4.796   5.776  2.0797 -3.0206  0.7918
10338TIP3   OH252504   3.038   0.947  14.218 -0.3719  0.3312  0.0816
10338TIP3    H152505   3.105   1.014  14.227  0.4028 -0.5787  1.5248
10338TIP3    H252506   2.966   0.990  14.172  0.0652  2.1728  1.0437
10339TIP3   OH252507   3.456   2.465   0.764  0.7222 -0.0533  0.1086
10339TIP3    H152508   3.365   2.461   0.794  1.1214 -0.1241  1.3993
10339TIP3    H252509   3.470   2.381   0.720  0.2025 -0.1014  0.0260
10340TIP3   OH252510   0.989   0.582  13.130 -0.7499  0.3736  0.1146
10340TIP3    H152511   1.054   0.641  13.091 -2.0138 -0.3613 -3.4879
10340TIP3    H252512   0.912   0.637  13.144 -1.4100  0.0076 -1.7788
10341TIP3   OH252513   6.767   5.919   2.280  0.2262  0.4721 -0.0300
10341TIP3    H152514   6.779   5.824   2.273  0.8081  0.5299  0.0904
10341TIP3    H252515   6.760   5.949   2.190  2.2288  0.5648 -0.2092
10342TIP3   OH252516   3.657   2.498   4.939 -0.9926  0.1868 -0.2019
10342TIP3    H152517   3.732   2.485   4.997 -1.1005  0.5083  0.0123
10342TIP3    H252518   3.604   2.419   4.952  0.5288 -1.2579 -2.2540
10343TIP3   OH252519   3.555   1.891  12.800  0.0793  0.3454 -0.5141
10343TIP3    H152520   3.605   1.842  12.735  0.4870 -1.2220  0.8885
10343TIP3    H252521   3.495   1.945  12.749  2.1069  1.1292 -2.2255
10344TIP3   OH252522   2.402   1.529  14.324 -0.1516 -0.3223 -0.0393
10344TIP3    H152523   2.454   1.457  14.290  0.5550 -0.5255  1.3899
10344TIP3    H252524   2.452   1.608  14.303  0.1473 -0.4247  0.2820
10345TIP3   OH252525   3.970   3.586   6.020 -0.3713 -0.2961  0.1862
10345TIP3    H152526   4.043   3.647   6.013 -1.3853  0.8391 -0.8866
10345TIP3    H252527   3.984   3.523   5.949  0.9280 -1.6892  1.5737
10346TIP3   OH252528   5.467   2.612  15.466  0.3883  0.3362  0.5358
10346TIP3    H152529   5.549   2.634  15.421  0.8733 -2.4472 -0.1189
10346TIP3    H252530   5.443   2.526  15.431 -1.7363  0.1583  2.2368
10347TIP3   OH252531   4.126   1.827  15.314 -0.0699  0.3404 -0.1936
10347TIP3    H152532   4.120   1.875  15.396 -1.5301  2.5698 -1.5047
10347TIP3    H252533   4.171   1.886  15.254 -0.4511 -0.5706 -1.4363
10348TIP3   OH252534   1.726   2.645   1.436 -0.8211  0.3830  0.0932
10348TIP3    H152535   1.746   2.736   1.456 -0.4414  0.1759  0.6702
10348TIP3    H252536   1.648   2.650   1.379 -0.6320  1.0699 -0.1172
10349TIP3   OH252537   5.167   2.768   6.149 -0.3388  0.1026  0.0888
10349TIP3    H152538   5.177   2.850   6.101 -0.1315  0.2133  0.3217
10349TIP3    H252539   5.257   2.734   6.156  0.1091  1.6105  3.1263
10350TIP3   OH252540   3.645   6.200  15.347  0.8787 -0.3261 -0.2250
10350TIP3    H152541   3.682   6.157  15.270  0.8388  0.4069 -0.6599
10350TIP3    H252542   3.721   6.234  15.394  0.7804  1.2582 -1.1653
10351TIP3   OH252543   6.454   5.384   4.910 -0.1006  0.0049  0.4145
10351TIP3    H152544   6.422   5.296   4.929 -0.2916  0.4336  2.1960
10351TIP3    H252545   6.548   5.380   4.927  0.1971 -0.2771 -1.1746
10352TIP3   OH252546   3.479   0.896   5.550 -0.7680 -0.0559  0.1660
10352TIP3    H152547   3.466   0.815   5.599  1.3866 -0.1553  0.6771
10352TIP3    H252548   3.421   0.887   5.475 -0.2545 -2.3228 -0.0559
10353TIP3   OH252549   0.544   6.709   1.087  0.5585  0.5437  0.3796
10353TIP3    H152550   0.521   6.742   1.000  0.8770 -0.0910  0.0500
10353TIP3    H252551   0.466   6.663   1.116  1.2098 -1.2241 -0.5514
10354TIP3   OH252552   2.975   1.600  13.265  0.5625  0.4629 -0.0458
10354TIP3    H152553   2.935   1.608  13.351 -3.3098 -3.4537 -1.1029
10354TIP3    H252554   2.936   1.669  13.213  1.0705  1.3337  0.6987
10355TIP3   OH252555   4.257   2.335  11.218  0.3538  0.9234 -0.8829
10355TIP3    H152556   4.252   2.431  11.217  1.2214  0.9808 -0.9010
10355TIP3    H252557   4.286   2.312  11.130 -0.7383  0.5789 -1.1540
10356TIP3   OH252558   4.263   1.791  13.775  0.1517 -0.1284 -0.0110
10356TIP3    H152559   4.203   1.840  13.719  1.1621 -1.6157 -2.5223
10356TIP3    H252560   4.319   1.858  13.815 -0.8618  1.0026 -0.4285
10357TIP3   OH252561   1.765   2.387  12.742  0.7540 -0.1585  0.0436
10357TIP3    H152562   1.723   2.468  12.715 -1.1933 -0.8442  0.8568
10357TIP3    H252563   1.806   2.409  12.826  0.0224 -0.0868  0.3823
10358TIP3   OH252564   1.118   3.679   6.488 -0.0875 -0.4542 -0.4132
10358TIP3    H152565   1.167   3.599   6.472 -1.7150 -1.3187 -1.4178
10358TIP3    H252566   1.041   3.672   6.430 -1.6857  0.5418  1.4550
10359TIP3   OH252567   2.614   5.906   1.217  0.2642  0.0268 -0.0959
10359TIP3    H152568   2.677   5.946   1.277 -1.7414  0.0454  2.1178
10359TIP3    H252569   2.630   5.812   1.224  1.5453  0.1078 -1.3704
10360TIP3   OH252570   4.094   3.468  17.181  0.3950  0.4651 -0.0890
10360TIP3    H152571   4.039   3.398  17.146  2.6926 -1.2651 -0.4581
10360TIP3    H252572   4.088   3.457  17.276  0.2747  0.1620 -0.1317
10361TIP3   OH252573   4.212   2.053   5.881 -0.1552 -0.3471  0.1804
10361TIP3    H152574   4.223   1.988   5.950  0.6166 -0.8886 -0.4276
10361TIP3    H252575   4.146   2.016   5.823 -0.7341  0.0647  0.5617
10362TIP3   OH252576   2.086   2.336   2.347 -0.0348  0.3612  0.2919
10362TIP3    H152577   2.082   2.344   2.252 -0.2177  2.1090  0.4162
10362TIP3    H252578   2.064   2.423   2.379  1.2433  0.1251  1.9132
10363TIP3   OH252579   6.360   0.055   5.751 -0.5008 -0.2293 -0.0136
10363TIP3    H152580   6.378   0.134   5.700 -1.4502 -0.1086 -0.1703
10363TIP3    H252581   6.430  -0.006   5.726 -0.9200 -0.1579 -1.4275
10364TIP3   OH252582   5.349   2.647   3.910  0.1397 -0.2493 -0.0889
10364TIP3    H152583   5.405   2.724   3.913 -0.8458  0.6129 -1.8438
10364TIP3    H252584   5.397   2.584   3.857  0.1706 -0.1349 -0.1976
10365TIP3   OH252585   0.945   3.719  12.551  0.0508  0.0414 -0.1804
10365TIP3    H152586   0.898   3.690  12.630  2.5118 -0.6024  1.1652
10365TIP3    H252587   0.981   3.638  12.514  0.2142  0.5197 -1.0820
10366TIP3   OH252588   5.803   2.302  13.369  0.1112 -0.0189  0.2103
10366TIP3    H152589   5.732   2.356  13.404  0.3585  0.2787  0.2448
10366TIP3    H252590   5.825   2.342  13.285 -0.6073 -0.8396 -0.3864
10367TIP3   OH252591   4.792   2.408  14.998 -0.0033  0.1001  0.0586
10367TIP3    H152592   4.814   2.355  15.075 -2.4666 -1.2002 -0.0327
10367TIP3    H252593   4.738   2.480  15.033 -1.0621 -0.4505 -0.4111
10368TIP3   OH252594   3.052   4.115  16.046 -0.4591 -0.1530 -0.0940
10368TIP3    H152595   2.963   4.136  16.074 -0.1202  0.8210  0.3074
10368TIP3    H252596   3.090   4.069  16.120 -0.1624  0.7503  0.3217
10369TIP3   OH252597   2.396   4.338   3.142 -0.8681 -0.4676 -0.0954
10369TIP3    H152598   2.366   4.357   3.053 -0.8635 -1.0059 -0.2143
10369TIP3    H252599   2.353   4.256   3.165 -1.4412  0.0359  0.6765
10370TIP3   OH252600   3.535   2.155  11.881  0.3059 -0.1552  0.3743
10370TIP3    H152601   3.550   2.062  11.900  0.0612  0.1036  1.9351
10370TIP3    H252602   3.610   2.200  11.919  0.0907  0.3557  0.2109
10371TIP3   OH252603   1.670   1.828   6.556 -0.2815  0.3339  0.0835
10371TIP3    H152604   1.613   1.838   6.480 -3.4470  3.0045  2.4804
10371TIP3    H252605   1.621   1.772   6.617  0.4212  1.1821  1.5037
10372TIP3   OH252606   4.324   5.181   3.672  0.7744  0.3270 -0.1034
10372TIP3    H152607   4.338   5.148   3.583 -0.7673 -0.3961 -0.1171
10372TIP3    H252608   4.367   5.116   3.728  0.5310  0.0134 -0.2725
10373TIP3   OH252609   5.663   6.745  13.404  0.1620  0.2170  0.7782
10373TIP3    H152610   5.756   6.765  13.394  0.2266 -0.3973  0.1125
10373TIP3    H252611   5.661   6.666  13.459  0.1032 -0.6093 -0.3853
10374TIP3   OH252612   4.694   0.747   6.100 -0.0433  0.4665 -0.3879
10374TIP3    H152613   4.758   0.676   6.093 -0.3943  0.2823 -2.2224
10374TIP3    H252614   4.631   0.717   6.166 -0.5710 -1.2707 -1.6253
10375TIP3   OH252615   3.952   5.545  10.802  0.0460 -0.0824 -0.1226
10375TIP3    H152616   4.026   5.493  10.834  0.0576  0.1639  0.2470
10375TIP3    H252617   3.894   5.481  10.762  0.6619 -0.2369 -0.8080
10376TIP3   OH252618   5.432   4.187  17.081 -0.3468  0.6898  0.2560
10376TIP3    H152619   5.520   4.167  17.113  0.5401  1.7364 -1.3758
10376TIP3    H252620   5.400   4.104  17.045 -0.0648  0.2908  0.9071
10377TIP3   OH252621   3.029   0.316   2.714  0.3261 -0.2621  0.3974
10377TIP3    H152622   3.018   0.373   2.790  0.0333  1.8408 -1.1343
10377TIP3    H252623   2.943   0.314   2.673  0.8477 -0.0839 -0.7298
10378TIP3   OH252624   3.748   6.560  15.853  0.4664  0.2931 -0.3071
10378TIP3    H152625   3.767   6.635  15.908  1.0005  0.4164 -0.6518
10378TIP3    H252626   3.792   6.579  15.770  0.8675 -0.5313 -0.2980
10379TIP3   OH252627   3.947   4.627  11.119  0.1752 -0.0492 -0.1499
10379TIP3    H152628   4.038   4.619  11.088  0.0791  0.6643 -0.6302
10379TIP3    H252629   3.908   4.542  11.100  0.9865 -0.6776  0.8903
10380TIP3   OH252630   0.171   5.685   0.660 -0.1196  0.3558  0.5285
10380TIP3    H152631   0.222   5.731   0.594  0.5154 -1.2519 -0.1459
10380TIP3    H252632   0.235   5.632   0.707 -0.9880 -0.7806  0.4648
10381TIP3   OH252633   4.991   4.771   3.063 -0.3344  0.3049 -0.3003
10381TIP3    H152634   5.027   4.776   3.151 -1.4438 -0.7350  0.2391
10381TIP3    H252635   5.051   4.715   3.014  1.1501  2.1431 -0.6925
10382TIP3   OH252636   5.676   2.014   1.155 -0.4273  0.0424 -0.4070
10382TIP3    H152637   5.751   2.018   1.214 -0.7549 -1.8803  0.2166
10382TIP3    H252638   5.695   1.941   1.097 -1.3314  0.2039 -0.9324
10383TIP3   OH252639   1.175   2.813   4.210  0.0553 -0.1855 -0.0417
10383TIP3    H152640   1.110   2.881   4.229  2.6387  2.5337 -0.1527
10383TIP3    H252641   1.240   2.822   4.279  1.4539 -1.2403 -1.1608
10384TIP3   OH252642   5.491   0.230  16.086 -0.3463 -0.6036  0.0067
10384TIP3    H152643   5.440   0.310  16.102 -1.1497 -1.3777  1.5855
10384TIP3    H252644   5.495   0.223  15.991 -2.4372 -0.0096 -0.1805
10385TIP3   OH252645   0.753   0.965   2.281  0.3686 -0.3485 -0.4740
10385TIP3    H152646   0.736   1.057   2.259 -1.8300 -0.3738  0.8673
10385TIP3    H252647   0.798   0.968   2.365 -2.1799 -0.5038  0.9613
10386TIP3   OH252648   5.385   0.234  11.739 -0.0701 -0.3847  0.0490
10386TIP3    H152649   5.450   0.172  11.773 -0.6903 -0.6868  0.7141
10386TIP3    H252650   5.404   0.316  11.784  0.9674  0.0299 -1.0812
10387TIP3   OH252651   2.787   0.954  12.555 -0.3452 -0.1016 -0.9359
10387TIP3    H152652   2.811   0.871  12.513 -1.4204 -1.1728  0.4487
10387TIP3    H252653   2.866   1.007  12.550  0.6994 -1.5887 -0.9771
10388TIP3   OH252654   5.070   4.070  15.797  0.2905 -0.1541 -0.0923
10388TIP3    H152655   4.991   4.016  15.805  1.2907 -1.6685  0.1141
10388TIP3    H252656   5.065   4.108  15.710  0.6412 -2.4870 -1.2051
10389TIP3   OH252657   6.786   2.143  13.973 -0.2342  0.4010  0.0166
10389TIP3    H152658   6.824   2.226  13.999 -0.3216  0.7038 -0.7868
10389TIP3    H252659   6.842   2.113  13.901 -1.6058  0.9643 -1.3433
10390TIP3   OH252660   6.650   5.960   2.902 -0.0023 -0.0980 -0.0206
10390TIP3    H152661   6.558   5.965   2.927  0.1609  2.4342  0.3117
10390TIP3    H252662   6.698   5.969   2.985  0.5182  1.3258 -0.4516
10391TIP3   OH252663   5.509   0.641   6.165  0.3190  0.2995  0.0635
10391TIP3    H152664   5.582   0.653   6.105 -0.2830 -2.0323 -1.2749
10391TIP3    H252665   5.536   0.568   6.221 -1.5080 -1.7119 -1.5194
10392TIP3   OH252666   3.976   1.783  15.071  0.0653  0.4262 -0.5933
10392TIP3    H152667   4.037   1.853  15.093  0.0839  0.0801  0.5146
10392TIP3    H252668   3.928   1.815  14.995  1.1364  0.9945 -1.0482
10393TIP3   OH252669   3.219   4.786  13.613  0.5952 -0.3432 -0.0175
10393TIP3    H152670   3.191   4.743  13.532 -0.9449  0.7407 -0.1034
10393TIP3    H252671   3.256   4.870  13.584 -0.1515  0.1400  0.3939
10394TIP3   OH252672   6.796   4.624  13.455 -0.0580  0.0218 -0.2426
10394TIP3    H152673   6.856   4.681  13.503  0.4132 -0.8141  0.1832
10394TIP3    H252674   6.714   4.629  13.504 -0.1168  0.5850 -0.3968
10395TIP3   OH252675   6.227   3.483  14.306 -0.0915  0.7333 -0.3584
10395TIP3    H152676   6.168   3.409  14.321 -0.8812  1.2789 -0.7360
10395TIP3    H252677   6.218   3.537  14.384  0.2615  0.5805 -0.2118
10396TIP3   OH252678   6.331   5.402  14.335  0.2506 -0.2076 -0.0664
10396TIP3    H152679   6.242   5.414  14.301 -0.5551 -0.5293  1.8338
10396TIP3    H252680   6.370   5.337  14.276  0.1835  1.8112 -2.5058
10397TIP3   OH252681   5.187   0.555   3.392  0.1563  0.0820  0.1742
10397TIP3    H152682   5.133   0.561   3.470 -0.7731  3.4706 -0.5714
10397TIP3    H252683   5.277   0.553   3.424 -0.2412 -0.1523  1.3208
10398TIP3   OH252684   5.064   1.069  16.891 -0.5252 -0.0823  0.3313
10398TIP3    H152685   5.052   0.981  16.927 -1.7540  0.3306  0.9833
10398TIP3    H252686   5.121   1.113  16.954  0.2191 -0.4409 -0.0752
10399TIP3   OH252687   3.288   0.215  14.234  0.2202 -0.1636 -0.1831
10399TIP3    H152688   3.212   0.167  14.265 -0.4540 -0.1854 -1.7648
10399TIP3    H252689   3.360   0.152  14.237 -0.0567 -0.4524  0.3273
10400TIP3   OH252690   6.591   3.162  16.545 -0.0754  0.0647  0.3575
10400TIP3    H152691   6.611   3.110  16.623  0.4620  0.8553  0.7594
10400TIP3    H252692   6.495   3.159  16.538 -0.0841 -0.5371  0.6735
10401TIP3   OH252693   3.513   5.198   6.543  0.5925 -0.6555 -0.3039
10401TIP3    H152694   3.571   5.128   6.573  1.9386  1.0455  1.2434
10401TIP3    H252695   3.563   5.245   6.477 -0.2217 -0.9927 -1.1815
10402TIP3   OH252696   0.985   1.539  16.193 -0.5789  0.0654  0.2780
10402TIP3    H152697   0.961   1.477  16.263  0.7434 -0.5514  0.2206
10402TIP3    H252698   0.968   1.625  16.231 -3.2822 -0.2846  0.0564
10403TIP3   OH252699   4.890   4.857  10.308  0.2927  0.0283 -0.9399
10403TIP3    H152700   4.876   4.942  10.351 -0.5089 -0.0195 -1.1083
10403TIP3    H252701   4.985   4.855  10.292  0.6830 -0.1100  1.1447
10404TIP3   OH252702   5.914   1.835   6.490  0.0147  0.1724 -0.6009
10404TIP3    H152703   5.920   1.766   6.556  0.8458  1.3052  0.5484
10404TIP3    H252704   5.934   1.916   6.537 -3.4399  1.6251 -1.3000
10405TIP3   OH252705   1.010   4.094   1.141 -0.4060  0.4271  0.8804
10405TIP3    H152706   1.087   4.142   1.109 -0.3926 -0.6187 -0.7080
10405TIP3    H252707   1.035   4.066   1.229  1.5211 -0.8492 -0.0008
10406TIP3   OH252708   1.045   1.963   2.192  0.6450 -0.4709 -0.0975
10406TIP3    H152709   1.099   1.889   2.219  0.8765 -1.1318 -2.2477
10406TIP3    H252710   1.088   2.039   2.231  1.8048 -1.2161  0.1289
10407TIP3   OH252711   3.705   3.091  16.509  0.6632 -0.0420  0.2021
10407TIP3    H152712   3.610   3.099  16.498  0.9797 -0.1443 -3.7889
10407TIP3    H252713   3.715   3.030  16.583 -2.4790 -2.3390 -1.0318
10408TIP3   OH252714   0.821   3.980   2.417 -0.0385  0.2769  0.6366
10408TIP3    H152715   0.891   3.947   2.474 -0.6393  0.5135  1.5358
10408TIP3    H252716   0.844   4.071   2.400  0.3380  0.1009  0.1784
10409TIP3   OH252717   2.824   2.537  13.075 -0.9674 -0.0849 -0.4407
10409TIP3    H152718   2.876   2.497  13.145 -0.0670  1.8106  0.0629
10409TIP3    H252719   2.747   2.481  13.066 -0.5098 -1.0461  1.2327
10410TIP3   OH252720   4.006   0.048  11.102  0.4581 -0.2373  0.9665
10410TIP3    H152721   3.947  -0.020  11.134 -0.1464 -0.3806 -0.4240
10410TIP3    H252722   4.075   0.001  11.056 -0.0118  0.0731 -0.0859
10411TIP3   OH252723   2.812   0.482  15.637  0.4168  0.5658 -0.0644
10411TIP3    H152724   2.721   0.469  15.610  0.1560  0.7100  0.7170
10411TIP3    H252725   2.841   0.559  15.588  0.3968  0.0069 -0.9680
10412TIP3   OH252726   2.717   5.781   3.137 -0.0399  0.6192 -0.2267
10412TIP3    H152727   2.632   5.808   3.172 -0.3969  0.4596 -0.9359
10412TIP3    H252728   2.696   5.711   3.075  0.7541 -0.5110  0.7262
10413TIP3   OH252729   1.012   3.228  12.724 -0.8468 -0.5721  0.2438
10413TIP3    H152730   1.002   3.189  12.637 -2.2876 -0.1108  0.1789
10413TIP3    H252731   0.985   3.158  12.784  1.9772 -1.5689  0.4922
10414TIP3   OH252732   1.674   4.866  14.249  0.1287 -0.1672 -0.6244
10414TIP3    H152733   1.706   4.894  14.335 -1.2794  0.2425 -0.2127
10414TIP3    H252734   1.747   4.883  14.190  1.1182 -0.4375  0.4749
10415TIP3   OH252735   3.776   2.211   1.762  0.1313  0.1539  0.1186
10415TIP3    H152736   3.716   2.218   1.836  0.2970  0.0411  0.2635
10415TIP3    H252737   3.854   2.259   1.789  0.1692  0.1644 -0.0065
10416TIP3   OH252738   6.274   2.666  14.056  0.4677 -0.1134  0.6164
10416TIP3    H152739   6.180   2.651  14.065  0.4218  0.2740  0.7923
10416TIP3    H252740   6.281   2.734  13.989  0.5807  0.5131  1.2612
10417TIP3   OH252741   2.946   3.027   1.361  0.1400  0.4396  0.2604
10417TIP3    H152742   3.024   2.973   1.359 -0.0265  0.1898  0.4201
10417TIP3    H252743   2.974   3.112   1.328  0.1889 -0.0111 -0.8954
10418TIP3   OH252744   3.827   3.094  11.292  0.0082  0.4429 -0.3531
10418TIP3    H152745   3.831   3.133  11.380 -0.5230  1.9293 -0.9693
10418TIP3    H252746   3.820   3.000  11.309  0.3864  0.6577  1.1924
10419TIP3   OH252747   5.193   5.443   4.912  0.8564  0.1317 -0.2234
10419TIP3    H152748   5.270   5.465   4.860  0.4289 -0.7449 -1.2828
10419TIP3    H252749   5.227   5.399   4.990  1.4081 -0.9009 -1.0276
10420TIP3   OH252750   1.595   5.894   1.242 -0.0636 -0.3222  0.0533
10420TIP3    H152751   1.565   5.803   1.240 -0.1376 -0.2971  0.0282
10420TIP3    H252752   1.530   5.942   1.190 -1.2841  0.1420  1.9231
10421TIP3   OH252753   0.814   0.643   5.146  0.3877  0.0696 -0.2911
10421TIP3    H152754   0.818   0.728   5.104 -0.2504  0.6558  0.7994
10421TIP3    H252755   0.861   0.654   5.229  0.3560 -0.6528 -0.1686
10422TIP3   OH252756   6.030   4.686   3.581  0.4331 -0.2627  0.1132
10422TIP3    H152757   6.003   4.618   3.642 -1.5979  1.8572  1.7580
10422TIP3    H252758   6.126   4.684   3.583  0.4235 -0.9374  2.5975
10423TIP3   OH252759   0.287   6.632  15.546 -0.7770 -0.2668  0.1913
10423TIP3    H152760   0.233   6.562  15.509  0.2436 -1.4546  0.8771
10423TIP3    H252761   0.351   6.651  15.477 -0.6481 -0.4789  0.2510
10424TIP3   OH252762   3.450   5.428  15.278 -0.1952 -0.0961  0.0811
10424TIP3    H152763   3.370   5.377  15.261 -0.4303  0.2979  0.0107
10424TIP3    H252764   3.494   5.380  15.348 -0.2729 -0.5604 -0.1833
10425TIP3   OH252765   4.850   0.380   3.606 -0.2112 -0.1150  0.3719
10425TIP3    H152766   4.836   0.472   3.631 -0.8877 -0.1923  0.2936
10425TIP3    H252767   4.859   0.333   3.689  1.2779  0.1803  0.4062
10426TIP3   OH252768   6.071   2.987  15.850 -0.3754  0.0326 -0.2443
10426TIP3    H152769   6.113   3.022  15.928 -1.7966  1.4730 -0.0816
10426TIP3    H252770   6.123   3.022  15.777 -0.6535  0.9367 -0.0152
10427TIP3   OH252771   0.653   0.412   3.677 -0.3061  0.2134  0.1960
10427TIP3    H152772   0.679   0.492   3.633  1.0643 -0.6191 -0.5756
10427TIP3    H252773   0.635   0.350   3.606  0.8840 -0.8229  0.7552
10428TIP3   OH252774   1.775   5.934  12.215 -0.2261  0.3517 -0.0748
10428TIP3    H152775   1.714   5.920  12.287 -0.5994  2.2305  0.0289
10428TIP3    H252776   1.852   5.881  12.238 -0.0605  1.4091  2.1042
10429TIP3   OH252777   1.148   0.467   3.228  0.0606 -0.4123 -0.3235
10429TIP3    H152778   1.142   0.459   3.133 -1.1911  1.1266 -0.4163
10429TIP3    H252779   1.145   0.561   3.244  0.6851 -0.6325  1.2216
10430TIP3   OH252780   4.327   0.845   6.245  0.5028  0.2874  0.1052
10430TIP3    H152781   4.294   0.923   6.289 -0.3340  0.7755 -1.3097
10430TIP3    H252782   4.370   0.878   6.167 -0.1766 -0.6717 -0.7086
10431TIP3   OH252783   5.438   5.007  11.883 -0.5646  0.4004  0.1720
10431TIP3    H152784   5.509   5.070  11.873  1.0049 -1.0856  1.3299
10431TIP3    H252785   5.364   5.047  11.837  0.4760  2.8352  0.4401
10432TIP3   OH252786   3.855   4.455  15.590  0.5180  1.0457  0.1387
10432TIP3    H152787   3.864   4.383  15.528  3.8281 -1.2632  2.9517
10432TIP3    H252788   3.890   4.531  15.543 -0.4768  0.3186 -1.9449
10433TIP3   OH252789   2.085   3.038   1.617 -0.4616  0.9055  0.1933
10433TIP3    H152790   2.177   3.064   1.611 -0.3639  0.2759 -1.8491
10433TIP3    H252791   2.040   3.118   1.641  0.6187  1.1931  1.3862
10434TIP3   OH252792   0.839   5.553   0.183 -0.1103 -0.6485  0.2180
10434TIP3    H152793   0.839   5.471   0.134 -0.8788 -1.1202  0.9909
10434TIP3    H252794   0.747   5.571   0.202  0.1051 -0.0253  0.7341
10435TIP3   OH252795   2.351   0.517   0.187  0.6966 -0.2852  0.1092
10435TIP3    H152796   2.315   0.484   0.269 -1.5965 -1.6877 -1.3715
10435TIP3    H252797   2.419   0.453   0.163  1.1001 -0.0811  0.6811
10436TIP3   OH252798   3.338   0.101  16.883 -0.7364  0.7369 -0.5819
10436TIP3    H152799   3.404   0.048  16.838  0.4664  1.3568  0.3938
10436TIP3    H252800   3.270   0.116  16.817  0.3033  0.4467 -1.7537
10437TIP3   OH252801   4.521   4.218   0.794  0.5027  0.7466  0.4334
10437TIP3    H152802   4.452   4.282   0.811  0.0377 -0.4029  3.7277
10437TIP3    H252803   4.593   4.245   0.852  0.0828 -1.8306  2.3394
10438TIP3   OH252804   0.373   6.247   6.784 -0.3156  0.2796 -0.2522
10438TIP3    H152805   0.347   6.182   6.849 -3.0953  0.5457 -0.9607
10438TIP3    H252806   0.373   6.200   6.701  0.9575  0.4731 -0.3898
10439TIP3   OH252807   3.768   1.512  12.595  0.1378 -0.4392  0.4943
10439TIP3    H152808   3.690   1.456  12.603 -0.4812  0.4442  0.8758
10439TIP3    H252809   3.806   1.488  12.511  0.1410 -1.7394  0.8581
10440TIP3   OH252810   0.391   0.441   4.452  0.4700  0.6932 -0.0763
10440TIP3    H152811   0.345   0.469   4.373 -2.8057  0.5828  1.6442
10440TIP3    H252812   0.405   0.347   4.441 -0.1780  0.6387 -0.4542
10441TIP3   OH252813   6.013   3.446  15.477  0.7743  0.0495  0.2411
10441TIP3    H152814   5.933   3.491  15.504  1.4035  0.7559  0.9677
10441TIP3    H252815   5.996   3.420  15.387 -0.2691  0.1940  0.3757
10442TIP3   OH252816   5.002   0.518  15.761 -0.0975  0.3739 -0.8927
10442TIP3    H152817   4.937   0.582  15.790 -2.1666 -2.4677  1.3465
10442TIP3    H252818   4.953   0.457  15.705  0.2891 -2.2885  1.4604
10443TIP3   OH252819   3.604   4.923  10.550 -0.4378  0.2027 -0.1112
10443TIP3    H152820   3.647   4.849  10.594 -0.8104  0.0042 -0.0687
10443TIP3    H252821   3.599   4.991  10.617 -1.6168 -0.3388  0.3828
10444TIP3   OH252822   6.840   1.959  15.662 -0.2103  0.1249 -0.3245
10444TIP3    H152823   6.795   1.890  15.614  0.8665  0.1068 -1.3473
10444TIP3    H252824   6.802   2.040  15.628  0.1703  0.0947 -0.8376
10445TIP3   OH252825   6.304   5.537  10.849 -0.4646  0.1977  0.5245
10445TIP3    H152826   6.340   5.462  10.802  0.6071  0.4033  0.9972
10445TIP3    H252827   6.211   5.516  10.860 -0.5702 -0.2056 -0.9765
10446TIP3   OH252828   0.060   3.446  13.432  0.3928  0.0418 -0.2705
10446TIP3    H152829  -0.002   3.394  13.380  1.6622 -0.3329 -1.4795
10446TIP3    H252830   0.123   3.478  13.368  2.0845 -0.4942  1.0592
10447TIP3   OH252831   6.820   1.311  15.936 -0.2594  0.4674 -0.4868
10447TIP3    H152832   6.725   1.323  15.938 -0.3305 -0.0949 -0.3218
10447TIP3    H252833   6.856   1.398  15.955 -0.7422  0.6212 -0.2691
10448TIP3   OH252834   5.725   2.557   1.552 -0.3032 -0.0648 -0.1895
10448TIP3    H152835   5.789   2.542   1.621  1.0366 -0.4250 -1.4750
10448TIP3    H252836   5.642   2.570   1.599  0.4301 -0.9942  1.4377
10449TIP3   OH252837   5.951   5.053   0.905 -0.5782 -0.2224 -0.9699
10449TIP3    H152838   5.949   5.108   0.827 -0.8292 -0.1526 -0.9143
10449TIP3    H252839   6.031   5.001   0.895  0.3603  1.0437 -0.4209
10450TIP3   OH252840   1.586   5.900  12.449 -0.1966 -0.3919  0.0543
10450TIP3    H152841   1.519   5.961  12.481  0.5227  1.0946 -1.1666
10450TIP3    H252842   1.614   5.853  12.528 -0.2074  1.4166  1.2042
10451TIP3   OH252843   5.075   0.992   3.292 -0.1365  0.2793  0.2083
10451TIP3    H152844   5.089   1.024   3.203 -1.0227  0.5815  0.1633
10451TIP3    H252845   5.162   0.973   3.325  0.3287  1.5753 -0.2069
10452TIP3   OH252846   1.902   6.338   1.901  0.8694 -0.3549  0.2148
10452TIP3    H152847   1.911   6.251   1.863  0.5581 -0.7576  1.0413
10452TIP3    H252848   1.967   6.341   1.971  0.0680 -0.3702  0.9765
10453TIP3   OH252849   6.250   0.213  13.192  0.4298  0.7826 -0.3400
10453TIP3    H152850   6.218   0.219  13.101 -1.7199  1.2661  0.3877
10453TIP3    H252851   6.213   0.290  13.235  0.9161  0.2363  1.0942
10454TIP3   OH252852   1.896   1.085  11.903  0.1809 -0.5724  0.0021
10454TIP3    H152853   1.853   1.112  11.983 -1.1739  1.1834 -1.2317
10454TIP3    H252854   1.952   1.012  11.929 -1.0677 -0.8067  2.2896
10455TIP3   OH252855   4.783   5.402   0.057 -0.6988  0.0440  0.3988
10455TIP3    H152856   4.720   5.422  -0.013 -0.9913  1.9244  1.1419
10455TIP3    H252857   4.863   5.378   0.011 -1.1086  0.4831 -0.5841
10456TIP3   OH252858   1.415   2.385  12.783  0.8959  0.0798  0.2534
10456TIP3    H152859   1.453   2.318  12.840 -0.7223 -1.7562 -0.7354
10456TIP3    H252860   1.442   2.359  12.694  0.3679  0.8312 -0.1374
10457TIP3   OH252861   5.256   2.284  11.472 -0.4768  0.6997  0.1667
10457TIP3    H152862   5.297   2.205  11.507 -2.1837  0.0446  0.8310
10457TIP3    H252863   5.162   2.267  11.479 -0.8974  2.7258  0.1745
10458TIP3   OH252864   6.703   6.715  15.161 -0.7114  0.2185  0.0239
10458TIP3    H152865   6.653   6.779  15.211 -2.7438  0.2127 -1.8369
10458TIP3    H252866   6.781   6.762  15.132 -0.9812  1.1036  0.7031
10459TIP3   OH252867   2.019   3.117  17.035  0.2345  0.1161 -0.1125
10459TIP3    H152868   2.046   3.205  17.007  0.3546 -0.3475 -1.5285
10459TIP3    H252869   1.937   3.132  17.082 -0.8353  0.8229 -2.0814
10460TIP3   OH252870   2.272   4.833  15.073 -0.8126 -0.5860  0.5863
10460TIP3    H152871   2.217   4.834  14.995  0.0239 -1.9135 -0.0489
10460TIP3    H252872   2.243   4.909  15.123 -1.8124 -0.0781 -0.6998
10461TIP3   OH252873   5.970   0.262  13.793  0.1399  0.0817 -0.0654
10461TIP3    H152874   5.977   0.261  13.888  2.6686  2.0729 -0.1219
10461TIP3    H252875   5.976   0.170  13.768  2.3144 -0.3043  1.6076
10462TIP3   OH252876   2.768   5.254   5.111  0.0692  0.7975 -0.3867
10462TIP3    H152877   2.714   5.307   5.171  1.2733  1.5238  0.0871
10462TIP3    H252878   2.727   5.267   5.026 -2.0838 -0.7757  0.3078
10463TIP3   OH252879   2.248   6.085   4.961 -0.5268  0.1756 -0.4629
10463TIP3    H152880   2.313   6.086   4.890  0.2041 -2.8864  0.0128
10463TIP3    H252881   2.271   6.008   5.013 -1.4757  1.8885  2.7678
10464TIP3   OH252882   6.709   4.969   2.920  0.1943  0.1129 -0.2053
10464TIP3    H152883   6.726   4.899   2.856  0.1051 -2.0596  2.0048
10464TIP3    H252884   6.669   4.924   2.995 -0.5304  2.6782  1.0572
10465TIP3   OH252885   3.554   2.611  13.324  0.5750  0.3353 -0.1658
10465TIP3    H152886   3.637   2.652  13.301  0.4695 -0.0270 -1.2579
10465TIP3    H252887   3.487   2.666  13.282  0.3466 -0.0870 -0.3683
10466TIP3   OH252888   3.035   3.930   5.648  0.6049 -0.1999 -0.3900
10466TIP3    H152889   3.081   3.914   5.730  0.4116 -1.8951 -0.5888
10466TIP3    H252890   2.964   3.866   5.647  1.2262 -0.9379 -2.3336
10467TIP3   OH252891   4.705   6.250  11.976  0.4641 -0.5235  0.0870
10467TIP3    H152892   4.791   6.217  11.948  0.3509  0.1681 -1.1482
10467TIP3    H252893   4.689   6.325  11.920 -1.0231 -0.7273  0.2061
10468TIP3   OH252894   2.703   3.623   3.301  0.7235  0.5999 -0.4643
10468TIP3    H152895   2.708   3.631   3.206  0.0492 -0.7735 -0.6359
10468TIP3    H252896   2.658   3.703   3.329 -1.1365 -0.0010 -1.5580
10469TIP3   OH252897   1.432   3.161  10.805  0.0637  0.2303  0.4124
10469TIP3    H152898   1.365   3.118  10.859  1.0697 -0.2646  1.2958
10469TIP3    H252899   1.443   3.247  10.846  1.3086 -0.3908  1.4572
10470TIP3   OH252900   4.953   4.848   5.725  0.4972 -0.4532 -0.1347
10470TIP3    H152901   4.989   4.936   5.731 -0.6990  0.1304 -0.9626
10470TIP3    H252902   4.948   4.831   5.631 -0.9637 -0.6448 -0.0532
10471TIP3   OH252903   5.913   6.567  16.846 -0.3454 -0.1889  0.2580
10471TIP3    H152904   5.999   6.608  16.856 -0.4693  0.7495 -1.8685
10471TIP3    H252905   5.852   6.631  16.882 -0.2878  0.0833 -0.1151
10472TIP3   OH252906   2.767   6.278  13.645 -0.1937 -0.5757  0.1452
10472TIP3    H152907   2.820   6.198  13.655 -0.7311 -1.0722 -0.7570
10472TIP3    H252908   2.685   6.258  13.689  0.8999  0.8218  3.0652
10473TIP3   OH252909   5.900   3.987  11.326 -0.0040 -0.1129 -0.3602
10473TIP3    H152910   5.866   3.948  11.406  1.1444  0.9799  0.7144
10473TIP3    H252911   5.857   4.072  11.320  0.7959  0.3096 -0.2349
10474TIP3   OH252912   4.998   0.798   0.744 -0.6098 -0.5724  0.1171
10474TIP3    H152913   5.060   0.805   0.817 -0.1471 -1.0317 -0.2292
10474TIP3    H252914   4.913   0.788   0.786 -0.1324 -2.9605  0.6372
10475TIP3   OH252915   4.497   4.115   0.546 -0.6511  0.3858 -0.5171
10475TIP3    H152916   4.464   4.200   0.519 -1.2078  0.0213 -1.0131
10475TIP3    H252917   4.527   4.128   0.636 -0.2745  1.2206 -0.7578
10476TIP3   OH252918   6.681   6.326  12.195  0.3597  0.2465 -0.9687
10476TIP3    H152919   6.740   6.329  12.270  1.8391 -1.8472 -1.9415
10476TIP3    H252920   6.596   6.301  12.232  1.1414 -1.1083  0.0003
10477TIP3   OH252921   2.452   0.412   5.003  0.4811  0.5268  0.8012
10477TIP3    H152922   2.474   0.337   5.058  1.5598  1.0313  1.0822
10477TIP3    H252923   2.396   0.376   4.934  0.6192 -0.4455  1.1891
10478TIP3   OH252924   5.586   1.884   2.491 -0.0877 -0.4004 -0.2524
10478TIP3    H152925   5.551   1.962   2.447  1.4292 -0.4450 -1.6092
10478TIP3    H252926   5.557   1.893   2.582 -0.7348  1.2635 -0.5853
10479TIP3   OH252927   4.598   3.691   5.699  0.0349 -0.0817 -0.4387
10479TIP3    H152928   4.679   3.641   5.711 -0.1017 -0.0085  0.9706
10479TIP3    H252929   4.545   3.668   5.775 -0.3582  1.5813 -0.1851
10480TIP3   OH252930   4.455   0.242  13.241  0.7332  0.2693  0.1714
10480TIP3    H152931   4.507   0.321  13.230 -1.1234  1.4138 -0.8304
10480TIP3    H252932   4.364   0.272  13.244 -0.1100 -1.8737 -1.1186
10481TIP3   OH252933   0.902   1.994  16.771 -0.3521 -0.5136  0.1729
10481TIP3    H152934   0.963   2.057  16.810 -0.4025  0.0694 -0.6650
10481TIP3    H252935   0.821   2.006  16.821 -0.1992 -0.3150  0.3783
10482TIP3   OH252936   0.354   1.495  16.597  0.6380 -0.3151  0.3587
10482TIP3    H152937   0.273   1.468  16.640 -0.1373 -0.2146 -0.9959
10482TIP3    H252938   0.358   1.589  16.609  1.6411 -0.5370  2.1944
10483TIP3   OH252939   6.490   3.019   5.265  0.8846  0.6576 -0.2768
10483TIP3    H152940   6.401   2.985   5.252 -0.0306  2.0475  1.7837
10483TIP3    H252941   6.521   3.038   5.176 -0.2267 -1.3537 -1.1497
10484TIP3   OH252942   5.483   0.103   4.735 -0.3707  0.7642  0.2679
10484TIP3    H152943   5.417   0.095   4.666 -0.0284  0.8373 -0.0713
10484TIP3    H252944   5.540   0.027   4.724 -0.5355  0.5700  0.7138
10485TIP3   OH252945   0.387   1.956  12.968  0.1705 -0.2644  1.2589
10485TIP3    H152946   0.395   1.871  12.925 -1.4954  1.2201 -2.4355
10485TIP3    H252947   0.458   2.008  12.932 -1.1991  0.9968  0.2422
10486TIP3   OH252948   0.869   6.489   2.278  0.4160 -0.3716  0.1079
10486TIP3    H152949   0.805   6.424   2.306 -0.1945  0.3989  0.5453
10486TIP3    H252950   0.821   6.572   2.278  1.4382  0.2408  0.5784
10487TIP3   OH252951   5.477   6.561   3.936 -0.0868  0.1079  0.0308
10487TIP3    H152952   5.403   6.621   3.923 -0.7653 -0.4627  1.0611
10487TIP3    H252953   5.494   6.525   3.849  0.7644  2.2390 -0.7498
10488TIP3   OH252954   3.502   0.893   3.307  0.0513  0.1448  0.3122
10488TIP3    H152955   3.422   0.915   3.355 -0.4263 -3.1311  1.2695
10488TIP3    H252956   3.473   0.876   3.218  0.2370  1.9253 -0.1247
10489TIP3   OH252957   4.566   6.071   5.668 -0.0865 -0.1421 -0.6087
10489TIP3    H152958   4.504   6.033   5.730 -0.6567 -0.9876 -1.6605
10489TIP3    H252959   4.547   6.026   5.585  2.2842 -0.8230 -0.8453
10490TIP3   OH252960   2.661   2.253  16.912 -0.4095 -0.4015 -0.0858
10490TIP3    H152961   2.668   2.303  16.993  0.5149 -0.6868  0.0267
10490TIP3    H252962   2.747   2.261  16.872 -0.2629 -1.7964 -0.1114
10491TIP3   OH252963   0.617   2.775  13.273 -0.1522 -0.4499 -0.5056
10491TIP3    H152964   0.563   2.820  13.208  1.4818  0.3756 -1.3451
10491TIP3    H252965   0.676   2.720  13.221  1.2196  0.2538  0.2638
10492TIP3   OH252966   4.580   6.424  11.824  0.0148 -0.3675 -0.0971
10492TIP3    H152967   4.508   6.425  11.887  0.5731 -3.7127  0.7975
10492TIP3    H252968   4.547   6.373  11.750  0.8759 -0.4435 -0.4453
10493TIP3   OH252969   0.931   0.184  15.111 -0.3073 -0.2136  0.3592
10493TIP3    H152970   0.848   0.231  15.115 -1.4937 -2.2750  0.6534
10493TIP3    H252971   0.936   0.151  15.021 -0.6812 -1.5886  0.8242
10494TIP3   OH252972   5.384   0.947  14.294 -0.5725  0.2934  0.0293
10494TIP3    H152973   5.329   0.872  14.314 -1.3770  0.8794  0.0720
10494TIP3    H252974   5.325   1.022  14.299  0.7052  1.2492  2.4166
10495TIP3   OH252975   2.892   2.007   4.078  0.2173  0.4402 -0.5269
10495TIP3    H152976   2.863   2.095   4.100  2.4491  0.3467  4.1054
10495TIP3    H252977   2.841   1.950   4.135  1.5804 -0.7638 -0.4509
10496TIP3   OH252978   6.822   1.491   0.920 -0.4366  0.5973 -0.1039
10496TIP3    H152979   6.783   1.412   0.957 -0.9697  0.5455 -0.7467
10496TIP3    H252980   6.798   1.561   0.980 -0.2844  0.3332  0.2679
10497TIP3   OH252981   3.421   2.809   4.272  0.0883  0.0215 -0.1708
10497TIP3    H152982   3.480   2.883   4.258  0.2995 -0.0338  0.3779
10497TIP3    H252983   3.336   2.849   4.290 -0.0244  0.1043 -0.8805
10498TIP3   OH252984   4.025   1.687   5.614  0.2210 -0.2248 -0.3137
10498TIP3    H152985   3.971   1.663   5.689  2.5085 -0.1280  1.4665
10498TIP3    H252986   4.096   1.622   5.613  2.2128  1.8065 -0.1298
10499TIP3   OH252987   4.409   6.590  11.491 -0.4643 -0.0361  0.5548
10499TIP3    H152988   4.457   6.595  11.573 -0.4621 -1.7744  0.7118
10499TIP3    H252989   4.392   6.681  11.466 -1.5539  0.5348  3.1082
10500TIP3   OH252990   4.914   4.343   0.715  0.0901 -0.3210 -0.0946
10500TIP3    H152991   4.880   4.387   0.793  1.4665 -0.1812  0.4467
10500TIP3    H252992   4.902   4.249   0.734  0.7777 -0.3030  0.4646
10501TIP3   OH252993   1.925   5.469   3.077  0.2495  0.8215  0.5605
10501TIP3    H152994   1.839   5.428   3.069  0.5269  0.4286 -0.4893
10501TIP3    H252995   1.984   5.413   3.027  1.3417  0.4810  2.1404
10502TIP3   OH252996   5.331   2.514  16.431  0.0623  0.1657  0.5957
10502TIP3    H152997   5.265   2.549  16.371  2.0430  3.3100  0.0652
10502TIP3    H252998   5.335   2.577  16.503  1.3521 -0.8452  1.4558
10503TIP3   OH252999   2.776   2.293  14.025 -0.0638 -1.1459 -0.3881
10503TIP3    H153000   2.781   2.267  14.117  1.2146  0.4625  0.0402
10503TIP3    H253001   2.683   2.299  14.006 -0.3821 -3.4462  0.1875
10504TIP3   OH253002   0.106   0.072  14.755  0.1260  0.7613  0.4487
10504TIP3    H153003   0.029   0.015  14.763  1.0526 -0.4495  0.9572
10504TIP3    H253004   0.181   0.013  14.765  1.1468  1.8336 -0.5832
10505TIP3   OH253005   6.417   3.471  16.932  0.1009 -0.6261 -0.2938
10505TIP3    H153006   6.345   3.480  16.869  0.7148  0.1779 -0.8937
10505TIP3    H253007   6.381   3.415  17.000 -1.4975  0.6672 -0.0022
10506TIP3   OH253008   0.206   1.876  11.811 -0.1083 -0.3530 -0.0431
10506TIP3    H153009   0.225   1.832  11.728 -2.0970 -0.4127 -0.5161
10506TIP3    H253010   0.291   1.886  11.853  0.6803 -2.5699 -0.9611
10507TIP3   OH253011   6.214   3.250  15.709  0.4602 -0.0392 -0.4495
10507TIP3    H153012   6.178   3.338  15.720 -0.2090 -0.5118  1.6569
10507TIP3    H253013   6.283   3.245  15.776 -2.1217 -2.3459  2.3270
10508TIP3   OH253014   5.367   0.484  16.216 -0.5197  0.1412  0.2046
10508TIP3    H153015   5.278   0.516  16.232 -0.4799 -0.9143  3.1360
10508TIP3    H253016   5.421   0.528  16.282  0.8758 -0.3837 -0.5466
10509TIP3   OH253017   1.792   2.156  12.324 -0.5827 -0.2824 -0.0934
10509TIP3    H153018   1.727   2.209  12.278  1.4909  1.5223 -1.1297
10509TIP3    H253019   1.789   2.071  12.279 -2.0353 -0.1847 -0.2432
10510TIP3   OH253020   3.024   5.609   3.737  0.1080 -0.1858  0.2833
10510TIP3    H153021   3.083   5.657   3.678  2.6430 -2.4002  0.8239
10510TIP3    H253022   3.078   5.539   3.773 -2.3442 -1.0955  2.5058
10511TIP3   OH253023   1.806   3.096   4.983  0.2681 -0.0571 -0.0840
10511TIP3    H153024   1.773   3.045   5.058 -0.1501  0.2811 -0.0348
10511TIP3    H253025   1.767   3.053   4.907 -0.2235  0.2919 -0.0310
10512TIP3   OH253026   6.585   5.911   0.269 -0.1443 -0.2168 -0.4091
10512TIP3    H153027   6.510   5.862   0.235 -2.4358  1.7061  1.4919
10512TIP3    H253028   6.573   5.999   0.234  0.1307  0.5809  1.4188
10513TIP3   OH253029   5.635   0.154  13.000  0.1181 -0.1674 -0.0292
10513TIP3    H153030   5.594   0.090  13.057 -0.6120  1.2298  1.0764
10513TIP3    H253031   5.591   0.143  12.916  0.2155 -1.2909  0.0568
10514TIP3   OH253032   5.471   2.597   1.654  0.3357  0.7540  0.0837
10514TIP3    H153033   5.504   2.656   1.721  1.8659 -0.0439  0.0906
10514TIP3    H253034   5.384   2.630   1.633  0.7689  2.4172  0.7576
10515TIP3   OH253035   2.012   3.359  14.480 -0.1051  0.2824  0.2730
10515TIP3    H153036   2.021   3.305  14.558 -1.7584  0.5601  0.6902
10515TIP3    H253037   2.023   3.449  14.511  0.6380  0.3165 -0.0687
10516TIP3   OH253038   6.561   6.377  17.016 -0.6085 -0.2064  0.0092
10516TIP3    H153039   6.528   6.295  16.980 -1.6568  1.0389 -2.0114
10516TIP3    H253040   6.505   6.395  17.091 -0.1789 -1.4451  0.6562
10517TIP3   OH253041   2.753   3.141  15.390  0.0465  0.9830  0.7203
10517TIP3    H153042   2.673   3.145  15.338  1.5214  0.5682 -1.7297
10517TIP3    H253043   2.797   3.224  15.374  1.2845  0.2146 -0.0541
10518TIP3   OH253044   6.539   4.285  14.067  0.1811  0.6073  0.5200
10518TIP3    H153045   6.629   4.262  14.044  0.5718  1.4594  1.1621
10518TIP3    H253046   6.489   4.269  13.987  1.0624  1.0084 -0.1266
10519TIP3   OH253047   2.360   1.083   1.348 -0.1298  0.6478  0.5775
10519TIP3    H153048   2.279   1.109   1.392  0.1910 -1.1206  2.3263
10519TIP3    H253049   2.397   1.015   1.404  1.1048 -0.6342 -1.6803
10520TIP3   OH253050   2.876   0.079  15.635 -0.2953  0.3995 -0.4159
10520TIP3    H153051   2.796   0.131  15.626  0.3340  1.4141 -0.3342
10520TIP3    H253052   2.943   0.142  15.662  0.5416 -0.4280 -0.4867
10521TIP3   OH253053   3.927   1.483   0.523  0.4502  0.8952  0.2508
10521TIP3    H153054   3.986   1.489   0.598 -0.7628 -1.2077  1.4401
10521TIP3    H253055   3.957   1.406   0.475 -2.0928 -1.1069  1.6675
10522TIP3   OH253056   4.090   6.394   3.906 -0.4201  0.6253  0.4794
10522TIP3    H153057   4.011   6.341   3.900  0.4671 -0.7996  0.8502
10522TIP3    H253058   4.128   6.391   3.818  0.5570 -0.9178  0.9055
10523TIP3   OH253059   4.648   4.487  10.645 -0.5169 -0.2542  0.3815
10523TIP3    H153060   4.587   4.558  10.666  0.8130  1.4076 -1.0613
10523TIP3    H253061   4.620   4.456  10.559  0.4718  0.3424 -0.1733
10524TIP3   OH253062   0.094   4.516   0.206 -0.0890  0.1027 -0.2170
10524TIP3    H153063   0.034   4.547   0.138  0.0564 -0.4492 -0.6040
10524TIP3    H253064   0.173   4.492   0.158 -0.0160 -0.3733  0.1399
10525TIP3   OH253065   3.152   4.606  10.205 -0.0390  0.1768 -0.4587
10525TIP3    H153066   3.080   4.608  10.268  0.2757 -1.7033  0.0313
10525TIP3    H253067   3.111   4.624  10.121 -1.3533 -2.0310 -0.3670
10526TIP3   OH253068   6.579   1.292   2.064  0.4352  0.2189 -0.1036
10526TIP3    H153069   6.590   1.361   2.129 -1.9954 -0.3603  1.0498
10526TIP3    H253070   6.555   1.338   1.984 -1.7462  0.7720  0.7971
10527TIP3   OH253071   0.943   5.479  16.660 -0.3669  0.4375  0.1150
10527TIP3    H153072   0.971   5.570  16.672  1.0072 -0.1239  1.6629
10527TIP3    H253073   0.939   5.466  16.566 -2.5093  2.6280 -0.1807
10528TIP3   OH253074   3.407   6.429   5.830  0.0433  0.1471  0.0723
10528TIP3    H153075   3.455   6.507   5.802 -1.6898  0.7192 -1.4642
10528TIP3    H253076   3.396   6.377   5.750  0.2338 -1.1832  0.8715
10529TIP3   OH253077   0.174   0.111   2.279 -0.1608  0.0678 -0.1200
10529TIP3    H153078   0.123   0.192   2.272 -1.5461 -0.5880  1.7303
10529TIP3    H253079   0.175   0.091   2.372  1.4648 -1.2602 -0.3851
10530TIP3   OH253080   5.041   0.450  11.919 -0.1300 -0.7354 -0.2901
10530TIP3    H153081   5.009   0.360  11.928  1.6335 -1.2662  1.1740
10530TIP3    H253082   5.126   0.451  11.963  1.0613  1.0592 -2.3843
10531TIP3   OH253083   1.379   5.784  16.555 -0.1990  0.3309  0.2300
10531TIP3    H153084   1.322   5.784  16.479  0.5080  0.5215 -0.3102
10531TIP3    H253085   1.413   5.695  16.562 -1.1408  0.0173  1.0054
10532TIP3   OH253086   4.139   4.980   1.850 -0.3128 -0.1397  0.6127
10532TIP3    H153087   4.161   5.059   1.802 -2.1275 -0.8719 -1.5959
10532TIP3    H253088   4.212   4.921   1.835  0.3518  0.5583  1.0256
10533TIP3   OH253089   4.631   0.462   4.141 -0.0275  0.2736  0.3202
10533TIP3    H153090   4.616   0.533   4.204  0.6822  1.1157 -0.4375
10533TIP3    H253091   4.625   0.504   4.055  0.7021 -0.5255 -0.1398
10534TIP3   OH253092   3.566   4.436   4.314 -0.2229 -0.1085 -0.5399
10534TIP3    H153093   3.554   4.520   4.357  1.0558 -0.3327  0.3105
10534TIP3    H253094   3.650   4.404   4.346 -0.6341 -1.6683 -0.9102
10535TIP3   OH253095   1.240   1.083   1.055 -0.2876 -0.1925  0.0029
10535TIP3    H153096   1.250   1.179   1.056 -1.2539 -0.0729 -0.6418
10535TIP3    H253097   1.147   1.068   1.070 -0.3004 -0.9969 -0.7867
10536TIP3   OH253098   3.890   1.490  15.893  0.0218  0.2346  0.2585
10536TIP3    H153099   3.874   1.581  15.916  3.0896  0.3985  2.4070
10536TIP3    H253100   3.872   1.441  15.973  2.3268 -0.4381  0.4354
10537TIP3   OH253101   0.884   5.844  15.628 -0.0855  0.7430 -0.1508
10537TIP3    H153102   0.959   5.901  15.644 -0.2332  1.2636 -1.2000
10537TIP3    H253103   0.922   5.756  15.619  0.1851  0.7178  1.0898
10538TIP3   OH253104   2.822   3.919   2.931  0.0010 -0.1561  0.0729
10538TIP3    H153105   2.866   3.960   2.857 -1.3176 -0.2646 -0.8111
10538TIP3    H253106   2.734   3.900   2.899 -0.3298 -1.0088  1.3990
10539TIP3   OH253107   2.967   6.653  14.893  0.1538  1.5516  0.1470
10539TIP3    H153108   2.973   6.566  14.933  1.5402  0.9818 -1.1811
10539TIP3    H253109   2.885   6.690  14.927 -0.3806 -0.1998  0.8685
10540TIP3   OH253110   1.828   5.159   2.987  0.0794  0.4514  0.2781
10540TIP3    H153111   1.781   5.081   3.019  0.4052 -0.0789 -0.5147
10540TIP3    H253112   1.778   5.188   2.911 -0.7651  1.7944  1.2769
10541TIP3   OH253113   1.944   1.169  14.783 -0.3853  0.0479  0.0888
10541TIP3    H153114   1.852   1.187  14.768 -0.6415 -0.5995  0.8105
10541TIP3    H253115   1.945   1.085  14.829  0.6286 -0.5274 -0.9234
10542TIP3   OH253116   4.983   2.130  11.986  0.1209  0.0491 -0.2851
10542TIP3    H153117   4.909   2.079  12.021 -0.6819  0.2041 -1.6957
10542TIP3    H253118   4.966   2.219  12.015  0.1797 -0.0376  0.0306
10543TIP3   OH253119   1.297   6.684  15.675  0.2424  0.4034 -0.0446
10543TIP3    H153120   1.290   6.590  15.691 -1.4236  0.8175  2.0576
10543TIP3    H253121   1.348   6.717  15.749  0.5288  1.2200 -0.5909
10544TIP3   OH253122   2.162   3.385  12.405 -0.3865 -0.8364  0.2904
10544TIP3    H153123   2.080   3.392  12.356  0.2470 -0.8523 -0.8082
10544TIP3    H253124   2.136   3.359  12.493 -1.3365 -4.7829 -0.9696
10545TIP3   OH253125   3.065   4.142  14.369 -0.2871  0.5020 -0.2696
10545TIP3    H153126   3.108   4.162  14.452 -1.0934 -1.7813  0.7945
10545TIP3    H253127   3.108   4.063  14.338 -2.1603 -0.5575 -0.3048
10546TIP3   OH253128   5.704   2.937  14.482  0.2163  0.2851 -0.0604
10546TIP3    H153129   5.734   2.985  14.560 -0.2290 -0.1288  0.3741
10546TIP3    H253130   5.762   2.860  14.478 -0.3134 -0.1463  0.3721
10547TIP3   OH253131   5.684   0.949   2.796  0.0906  0.2786 -0.2529
10547TIP3    H153132   5.777   0.964   2.813  0.8593 -2.8353 -0.9144
10547TIP3    H253133   5.679   0.938   2.701 -1.0077  0.6260 -0.2490
10548TIP3   OH253134   4.193   4.732   2.468 -0.1283 -0.0143  1.0608
10548TIP3    H153135   4.131   4.800   2.443  0.0227  0.1408  1.1033
10548TIP3    H253136   4.151   4.650   2.443  0.5194  0.1804 -0.8034
10549TIP3   OH253137   5.136   6.418  12.089 -0.3745  0.2617  0.7884
10549TIP3    H153138   5.067   6.484  12.096  0.9635  1.8560 -0.3260
10549TIP3    H253139   5.148   6.386  12.179 -0.6258  2.0386  1.4942
10550TIP3   OH253140   6.798   2.097   2.555 -0.9036 -0.2168  0.2097
10550TIP3    H153141   6.714   2.116   2.598 -1.6254  0.8449 -1.5696
10550TIP3    H253142   6.841   2.182   2.547 -0.7616 -0.4020 -1.0992
10551TIP3   OH253143   5.587   1.316  15.803  0.4557 -0.1623  0.3876
10551TIP3    H153144   5.586   1.396  15.751  2.7173 -0.9709 -1.0025
10551TIP3    H253145   5.509   1.268  15.775 -0.4520  1.1268  0.6222
10552TIP3   OH253146   2.717   1.426  12.854  0.6378  0.6455  0.1091
10552TIP3    H153147   2.743   1.350  12.906 -0.2335 -0.7699 -1.4264
10552TIP3    H253148   2.668   1.482  12.915 -0.4547 -1.0120  0.8252
10553TIP3   OH253149   3.371   0.195   5.109 -0.3832  0.4113  0.0231
10553TIP3    H153150   3.451   0.148   5.131 -1.2222 -0.2769  1.8384
10553TIP3    H253151   3.400   0.285   5.092  0.9533 -0.1913 -1.1471
10554TIP3   OH253152   1.641   3.873   3.456 -0.2581 -0.1506  0.3314
10554TIP3    H153153   1.688   3.843   3.379 -1.4498  0.9993 -0.9040
10554TIP3    H253154   1.663   3.809   3.524  3.6312  0.7296  0.1064
10555TIP3   OH253155   5.690   1.763   4.007  0.1845  0.2882 -0.7659
10555TIP3    H153156   5.723   1.820   3.938  0.9887  1.0852  0.2539
10555TIP3    H253157   5.634   1.820   4.060 -1.1770 -0.5370 -1.2583
10556TIP3   OH253158   5.220   6.673  13.406 -0.1440 -0.4226  0.0894
10556TIP3    H153159   5.244   6.599  13.350  3.8345  0.6180  0.1873
10556TIP3    H253160   5.231   6.750  13.350  0.3316  0.3887  1.2637
10557TIP3   OH253161   0.462   2.438  17.061  0.0149 -0.3360  0.1885
10557TIP3    H153162   0.542   2.453  17.010  0.3656  1.5316  1.1934
10557TIP3    H253163   0.485   2.369  17.123  0.5559 -0.4350 -0.1180
10558TIP3   OH253164   6.016   3.428   3.778 -0.0012  0.7318  0.0503
10558TIP3    H153165   5.921   3.437   3.783 -0.2855 -1.6558  0.0962
10558TIP3    H253166   6.036   3.352   3.832  1.7719  0.2671 -1.1704
10559TIP3   OH253167   5.696   1.665   2.629 -0.5055 -0.6029  0.0292
10559TIP3    H153168   5.660   1.741   2.583 -1.2018  0.3222  1.9465
10559TIP3    H253169   5.629   1.597   2.620  0.8769 -1.7465 -3.2257
10560TIP3   OH253170   2.559   5.616   2.613  0.0433  0.1534 -0.4946
10560TIP3    H153171   2.525   5.690   2.663 -1.0223 -1.1104  0.7670
10560TIP3    H253172   2.602   5.561   2.678 -1.2839 -1.4867 -0.9361
10561TIP3   OH253173   0.076   3.190  14.551  0.2233  0.1074 -0.0105
10561TIP3    H153174   0.161   3.230  14.531  1.1080 -1.9893 -0.6588
10561TIP3    H253175   0.026   3.197  14.470  0.7427 -0.9579 -0.4312
10562TIP3   OH253176   0.964   4.531   4.315  0.0333  0.2139 -0.0579
10562TIP3    H153177   0.884   4.552   4.268  0.8306 -0.1134 -1.6504
10562TIP3    H253178   1.011   4.472   4.256  0.4279 -1.4273  1.8075
10563TIP3   OH253179   2.273   3.686   1.773  0.2038 -0.2597 -0.1469
10563TIP3    H153180   2.305   3.774   1.793 -0.2163  0.4677 -2.4562
10563TIP3    H253181   2.334   3.628   1.820  0.9647  1.2136  0.7799
10564TIP3   OH253182   5.683   3.130   2.514 -0.0605  0.3681 -0.4776
10564TIP3    H153183   5.695   3.127   2.419  1.7922 -0.2767 -0.2663
10564TIP3    H253184   5.607   3.187   2.527 -0.2767  0.5609 -2.3283
10565TIP3   OH253185   5.802   3.948   5.083 -0.5740 -0.2304 -0.1657
10565TIP3    H153186   5.793   4.031   5.130 -1.9377 -0.0628 -0.6972
10565TIP3    H253187   5.890   3.953   5.044 -0.2560  0.5319  0.6036
10566TIP3   OH253188   2.760   1.744  17.127  0.1262  0.0091  0.4722
10566TIP3    H153189   2.783   1.673  17.067  1.1935  1.1685 -0.5591
10566TIP3    H253190   2.835   1.752  17.185  0.2483  0.6374  0.2357
10567TIP3   OH253191   1.635   2.246  12.534  0.3350  0.3902  0.3658
10567TIP3    H153192   1.681   2.227  12.452 -1.0272  0.6504 -0.4996
10567TIP3    H253193   1.700   2.289  12.589  1.8551 -1.5324  0.1965
10568TIP3   OH253194   3.717   2.346  13.530 -0.8165  0.1425  0.2678
10568TIP3    H153195   3.750   2.256  13.526 -1.8726 -0.3661  1.7691
10568TIP3    H253196   3.767   2.386  13.601 -0.4223  0.7364 -0.3303
10569TIP3   OH253197   3.610   2.381  14.418 -0.3033 -0.1789  0.0650
10569TIP3    H153198   3.584   2.368  14.510 -0.2643  0.3859  0.1586
10569TIP3    H253199   3.591   2.297  14.376  1.8625 -1.2649  1.0906
10570TIP3   OH253200   2.142   6.092  16.800  0.2827 -0.0777  0.1408
10570TIP3    H153201   2.237   6.100  16.811  0.1916  1.5789  0.0478
10570TIP3    H253202   2.106   6.151  16.867 -0.6422 -0.0201 -0.3998
10571TIP3   OH253203   2.266   3.715   0.948 -0.0825 -0.3575  0.4620
10571TIP3    H153204   2.226   3.682   1.028 -1.1158 -0.3815 -0.0511
10571TIP3    H253205   2.265   3.641   0.888 -3.0143  0.6273 -0.9230
10572TIP3   OH253206   4.772   3.996   3.125  0.2263 -0.2785 -0.0739
10572TIP3    H153207   4.699   3.938   3.104 -0.4560  0.5692 -0.1054
10572TIP3    H253208   4.819   3.951   3.195 -0.4977 -0.7123  0.1504
10573TIP3   OH253209   4.353   5.038   5.070 -0.4517  0.0513  0.2980
10573TIP3    H153210   4.419   5.104   5.050 -0.1355 -1.0004 -2.6729
10573TIP3    H253211   4.269   5.082   5.055 -0.3760  0.5950  1.3576
10574TIP3   OH253212   5.425   2.008   0.750 -0.4172 -0.7374 -0.2940
10574TIP3    H153213   5.398   2.092   0.785 -1.2139 -1.1006 -0.0256
10574TIP3    H253214   5.376   1.998   0.669 -0.6106 -1.1118 -0.1341
10575TIP3   OH253215   0.533   6.003   1.971  0.0499 -0.5174  0.0436
10575TIP3    H153216   0.568   5.914   1.968 -0.9117 -0.9069 -2.0455
10575TIP3    H253217   0.592   6.051   2.029  1.1839 -2.2626  0.4065
10576TIP3   OH253218   3.096   2.133   3.132  0.3097  0.4694 -0.1173
10576TIP3    H153219   3.072   2.055   3.082  0.7401  0.3996 -0.2272
10576TIP3    H253220   3.137   2.099   3.212 -0.2828  0.5813  0.2360
10577TIP3   OH253221   4.924   3.838   0.212 -0.0460 -0.1558 -0.0983
10577TIP3    H153222   4.879   3.876   0.137 -0.8113 -0.9144 -0.0392
10577TIP3    H253223   5.013   3.821   0.181 -0.0890  0.3944 -0.5383
10578TIP3   OH253224   1.910   0.466  12.616 -0.2917  0.3554 -0.4934
10578TIP3    H153225   2.000   0.443  12.592  0.0939  0.1909  0.9926
10578TIP3    H253226   1.867   0.382  12.632 -0.2440  0.4813  0.3406
10579TIP3   OH253227   4.076   4.131   0.787  0.4981 -0.0284  0.3559
10579TIP3    H153228   4.164   4.097   0.800  0.9428  0.4790 -1.1525
10579TIP3    H253229   4.088   4.226   0.774  0.3481 -0.3988 -4.1641
10580TIP3   OH253230   1.730   4.106   4.602 -0.0357 -0.1307  0.3319
10580TIP3    H153231   1.737   4.053   4.522  1.0681  0.8587 -0.2633
10580TIP3    H253232   1.650   4.157   4.589 -1.0453 -1.5064  0.8590
10581TIP3   OH253233   2.052   1.959  15.450 -0.7426  0.6455 -0.2719
10581TIP3    H153234   2.065   1.979  15.543  0.6881  0.3912 -0.4063
10581TIP3    H253235   2.048   1.864  15.446  2.1027  0.4762 -0.7793
10582TIP3   OH253236   5.633   0.771   5.263  0.0876  0.3889 -0.9175
10582TIP3    H153237   5.589   0.759   5.347 -0.2207  0.9657 -0.9942
10582TIP3    H253238   5.593   0.706   5.205  1.2693 -0.9906 -0.2766
10583TIP3   OH253239   4.997   4.648  16.410  0.3415  0.0782 -0.0224
10583TIP3    H153240   5.072   4.598  16.443  0.6724  0.3858 -0.3057
10583TIP3    H253241   5.014   4.658  16.316 -0.0927  0.0864 -0.1033
10584TIP3   OH253242   5.783   6.279   6.689 -0.0635  0.2284  0.6829
10584TIP3    H153243   5.740   6.269   6.774 -0.5263 -0.1948  0.3992
10584TIP3    H253244   5.874   6.253   6.705 -0.1662  0.0767  1.0301
10585TIP3   OH253245   2.142   2.973   2.948  0.3226  0.1444 -0.1001
10585TIP3    H153246   2.142   2.883   2.982  1.4654  0.3217  0.4020
10585TIP3    H253247   2.064   3.013   2.989 -0.8321 -0.9050 -1.1953
10586TIP3   OH253248   4.110   3.413   2.741  0.0738  0.1824 -0.4308
10586TIP3    H153249   4.122   3.349   2.671 -0.5946 -0.0171 -0.3726
10586TIP3    H253250   4.042   3.374   2.797  0.9327  0.1010  0.5978
10587TIP3   OH253251   6.612   1.529  17.146 -0.2356 -0.3450 -0.0139
10587TIP3    H153252   6.556   1.554  17.073  0.9987 -2.1152 -1.6945
10587TIP3    H253253   6.578   1.444  17.175 -0.6347  0.2803  1.4165
10588TIP3   OH253254   6.011   2.124  14.023 -0.2700 -0.3052 -0.4050
10588TIP3    H153255   6.076   2.101  14.090 -3.2755 -1.4236  2.4249
10588TIP3    H253256   5.990   2.040  13.980  0.4215  0.1252 -1.6335
10589TIP3   OH253257   2.577   6.811  12.858  0.3380 -0.3726  0.4685
10589TIP3    H153258   2.654   6.754  12.867  0.5493 -0.2920 -0.7002
10589TIP3    H253259   2.607   6.884  12.804 -0.8326 -0.9254 -1.0274
10590TIP3   OH253260   0.434   0.177   4.505  0.1596  0.3427  0.3666
10590TIP3    H153261   0.509   0.178   4.563 -0.0179 -0.7946  0.6409
10590TIP3    H253262   0.382   0.101   4.533 -1.7528  1.7962  1.0095
10591TIP3   OH253263   4.881   6.368  14.928  0.1968  0.0082  0.1364
10591TIP3    H153264   4.833   6.369  14.845  0.8028 -0.4090 -0.2258
10591TIP3    H253265   4.820   6.332  14.992  0.3574 -1.4812 -0.5296
10592TIP3   OH253266   0.544   1.374   2.806  0.6544  0.3672  0.0037
10592TIP3    H153267   0.572   1.342   2.721  1.3998 -1.1888  0.7849
10592TIP3    H253268   0.451   1.352   2.811  0.7309 -0.0010 -0.1966
10593TIP3   OH253269   4.037   3.519  11.424 -0.5789  0.1133  0.3544
10593TIP3    H153270   3.972   3.541  11.491 -0.3458 -0.1044  0.6567
10593TIP3    H253271   3.994   3.454  11.369 -0.1105 -1.1993  1.4622
10594TIP3   OH253272   5.446   3.519  14.617  0.1324 -0.4297 -0.4960
10594TIP3    H153273   5.443   3.610  14.590  1.0154 -0.7992 -1.9902
10594TIP3    H253274   5.492   3.520  14.701  1.4865  0.3955 -1.2098
10595TIP3   OH253275   0.647   2.918   3.761  0.1647  0.3545  0.4685
10595TIP3    H153276   0.599   2.856   3.816  0.9681  0.0330  0.8315
10595TIP3    H253277   0.677   2.986   3.822  2.4378 -0.8267  0.7939
10596TIP3   OH253278   1.792   3.889  11.288  0.2489 -0.0217  0.5575
10596TIP3    H153279   1.781   3.796  11.309  2.5940 -0.5234 -0.1360
10596TIP3    H253280   1.733   3.904  11.215  0.5207 -1.2314  0.0523
10597TIP3   OH253281   1.998   0.298   1.426 -0.3805 -0.1783 -0.4012
10597TIP3    H153282   2.066   0.360   1.453  1.5036 -1.1405 -2.5529
10597TIP3    H253283   1.973   0.253   1.506  1.2093  0.5361  0.5463
10598TIP3   OH253284   1.646   1.893  13.168 -0.2388  0.0726 -0.4890
10598TIP3    H153285   1.703   1.838  13.114 -1.2541 -2.1828  0.6315
10598TIP3    H253286   1.667   1.868  13.258 -1.8354  0.3696 -0.0058
10599TIP3   OH253287   0.394   4.757   5.612  0.3097  0.7716 -0.2893
10599TIP3    H153288   0.458   4.797   5.554  2.0945 -0.5541  0.6609
10599TIP3    H253289   0.329   4.719   5.554  1.4388  0.4596 -1.3953
10600TIP3   OH253290   5.920   2.401   4.625  0.4480  0.1420  0.1211
10600TIP3    H153291   5.889   2.478   4.579  0.1663  0.3078  0.5738
10600TIP3    H253292   5.943   2.338   4.556 -1.1394 -0.0794 -0.2279
10601TIP3   OH253293   4.068   5.014  10.680  0.0798 -0.1787  0.0818
10601TIP3    H153294   4.135   5.002  10.613  1.1584  1.9236  0.6700
10601TIP3    H253295   4.061   4.929  10.724  1.0073 -0.9418 -1.1942
10602TIP3   OH253296   4.844   3.151   5.998  0.1387  0.2836 -0.3350
10602TIP3    H153297   4.923   3.196   6.029  0.5614  0.2757 -1.3840
10602TIP3    H253298   4.809   3.109   6.077  0.3124  1.5738  0.4613
10603TIP3   OH253299   6.392   1.013   0.570 -0.0472  0.4033  0.5868
10603TIP3    H153300   6.344   0.985   0.648  0.5994  1.7982  1.5263
10603TIP3    H253301   6.349   0.968   0.498 -0.9933 -0.5205  1.6888
10604TIP3   OH253302   5.690   1.351   3.426 -0.0142  0.2077 -0.2144
10604TIP3    H153303   5.748   1.313   3.492 -1.0132  1.2271  1.3042
10604TIP3    H253304   5.659   1.433   3.464 -1.4734  0.3110 -1.4979
10605TIP3   OH253305   4.293   6.600  15.706 -0.0916  0.6000  0.2499
10605TIP3    H153306   4.286   6.525  15.765  1.2697  0.9514  0.8967
10605TIP3    H253307   4.227   6.584  15.639  0.6642 -1.5370 -0.0396
10606TIP3   OH253308   1.884   3.489   3.845 -0.3504  0.8404  0.0605
10606TIP3    H153309   1.910   3.466   3.756  2.0812 -1.8406  1.3393
10606TIP3    H253310   1.792   3.462   3.851  0.4701 -2.4481 -0.6218
10607TIP3   OH253311   6.820   4.124  12.689  0.6558 -0.1382  0.0955
10607TIP3    H153312   6.792   4.163  12.771  0.1169 -0.1178 -0.0965
10607TIP3    H253313   6.771   4.042  12.683 -0.7295  0.7210 -1.0798
10608TIP3   OH253314   1.072   0.282   5.686  0.0028  0.4823  0.1544
10608TIP3    H153315   1.090   0.265   5.593  1.8224 -0.6963  0.6525
10608TIP3    H253316   1.158   0.301   5.724 -0.6849  0.8118  1.6217
10609TIP3   OH253317   1.009   2.426   2.130  0.1678 -0.0338 -0.1546
10609TIP3    H153318   1.031   2.361   2.197  0.1028 -2.6632 -2.5372
10609TIP3    H253319   1.094   2.453   2.094  0.2235  1.6116  1.0783
10610TIP3   OH253320   6.539   4.215  10.314 -0.0197  0.3345  0.2188
10610TIP3    H153321   6.530   4.299  10.359  0.8042  2.2588 -2.8430
10610TIP3    H253322   6.453   4.199  10.275 -0.4454 -0.7894  1.5557
10611TIP3   OH253323   0.341   0.706  10.557  0.0016 -0.2243  0.0113
10611TIP3    H153324   0.357   0.626  10.608  0.2587 -1.0415 -1.3010
10611TIP3    H253325   0.369   0.683  10.468 -0.7862  1.0355 -0.5825
10612TIP3   OH253326   6.765   1.686   6.149  0.3730  0.6731  0.9618
10612TIP3    H153327   6.806   1.739   6.218  0.0439  1.5284  0.5147
10612TIP3    H253328   6.826   1.614   6.134  2.3323  2.5130 -0.4926
10613TIP3   OH253329   1.536   4.719   4.824  0.4201  0.0251 -0.4031
10613TIP3    H153330   1.483   4.640   4.833  1.0331 -0.2409  1.2680
10613TIP3    H253331   1.505   4.777   4.894  1.7232  0.1967  0.0658
10614TIP3   OH253332   1.294   0.309  16.255 -0.2857 -0.1313  0.3885
10614TIP3    H153333   1.247   0.369  16.311 -2.6557 -0.1720 -1.3975
10614TIP3    H253334   1.254   0.223  16.272  1.0052 -0.6952  0.7402
10615TIP3   OH253335   5.517   6.006   6.419  0.2742 -0.0843  0.4629
10615TIP3    H153336   5.524   5.975   6.329 -0.5448 -0.5756  0.5636
10615TIP3    H253337   5.424   6.006   6.438  0.4993 -0.9984  1.6595
10616TIP3   OH253338   4.110   0.044   0.308  0.2842 -0.5072 -0.1534
10616TIP3    H153339   4.056   0.007   0.378 -0.6289 -1.1798 -1.1983
10616TIP3    H253340   4.178  -0.023   0.294  1.7111  0.5075  1.4314
10617TIP3   OH253341   4.364   0.920  16.770  0.7000  0.3407  0.1250
10617TIP3    H153342   4.402   0.989  16.715  0.0353  0.9425  0.4045
10617TIP3    H253343   4.274   0.950  16.787 -0.1178 -1.3061 -1.0074
10618TIP3   OH253344   2.563   2.336   4.927 -0.3079 -0.4166  0.2522
10618TIP3    H153345   2.618   2.359   5.001 -2.7189  0.6621  1.8032
10618TIP3    H253346   2.598   2.387   4.854  1.8020 -1.1372  0.7010
10619TIP3   OH253347   5.133   2.542  14.248 -0.2735 -0.1305 -0.6139
10619TIP3    H153348   5.145   2.529  14.342  0.8810 -1.0917 -0.8752
10619TIP3    H253349   5.183   2.621  14.227  1.4675 -1.2537 -0.8131
10620TIP3   OH253350   6.394   6.398   6.442 -0.1462  0.3736  0.4406
10620TIP3    H153351   6.386   6.338   6.516  1.8465  0.5475  0.8672
10620TIP3    H253352   6.330   6.467   6.459 -1.5008 -0.9052  0.6476
10621TIP3   OH253353   0.372   1.607   3.248 -0.0431 -0.0956 -0.4689
10621TIP3    H153354   0.365   1.702   3.249  0.0768 -0.0857 -0.5874
10621TIP3    H253355   0.463   1.589   3.274  0.0196 -0.1683 -0.7366
10622TIP3   OH253356   3.670   4.202   5.221  0.0306  0.7584  0.4139
10622TIP3    H153357   3.727   4.244   5.157 -0.1354 -0.8349 -0.8507
10622TIP3    H253358   3.706   4.114   5.231 -0.7634  0.5281  1.5028
10623TIP3   OH253359   6.370   4.057   6.010 -0.2729  0.3900 -0.1939
10623TIP3    H153360   6.421   4.132   5.978  0.5616 -0.4041 -0.7985
10623TIP3    H253361   6.435   3.999   6.050 -0.6920 -0.6042 -0.8923
10624TIP3   OH253362   4.665   0.953   3.636 -0.2119  0.4120  0.2813
10624TIP3    H153363   4.748   0.946   3.589 -0.8873  1.0335 -1.0733
10624TIP3    H253364   4.606   0.892   3.592 -0.3127 -0.5869  1.7035
10625TIP3   OH253365   2.759   1.147   6.285 -0.5333 -0.0956 -0.3114
10625TIP3    H153366   2.711   1.226   6.260 -0.2537 -0.2248 -1.2985
10625TIP3    H253367   2.848   1.177   6.305 -0.7005 -0.0224  0.3464
10626TIP3   OH253368   3.509   2.059   3.639 -0.2105 -0.2301 -0.0790
10626TIP3    H153369   3.497   2.009   3.720  2.8690  0.3811  0.8699
10626TIP3    H253370   3.563   2.002   3.584  0.9288  0.8700 -0.1318
10627TIP3   OH253371   1.660   4.124  13.989  0.2592  0.1875  0.2039
10627TIP3    H153372   1.702   4.152  13.908 -1.6722  1.2440 -0.5154
10627TIP3    H253373   1.638   4.206  14.034 -0.4306 -0.3209  0.8212
10628TIP3   OH253374   3.076   6.406   5.942 -0.2680  0.0829 -0.0768
10628TIP3    H153375   3.092   6.353   5.864  1.3886 -1.5184  1.2616
10628TIP3    H253376   2.982   6.397   5.958 -0.4416 -0.4345 -1.2608
10629TIP3   OH253377   0.381   4.147   1.471  0.5301 -0.8310  0.3505
10629TIP3    H153378   0.298   4.171   1.512  0.0126  0.4703 -1.3704
10629TIP3    H253379   0.448   4.190   1.525 -0.0204 -0.3822  0.6861
10630TIP3   OH253380   1.144   4.347  16.797  0.7148  0.1694  0.2334
10630TIP3    H153381   1.147   4.355  16.702  0.7611  0.8160  0.2837
10630TIP3    H253382   1.100   4.264  16.813  2.9347 -1.2143 -0.3657
10631TIP3   OH253383   0.227   5.492   2.902 -0.4924  0.0765  0.0611
10631TIP3    H153384   0.178   5.441   2.967 -1.1559  0.1971 -0.3289
10631TIP3    H253385   0.278   5.427   2.854 -2.6618 -0.5128 -1.6083
10632TIP3   OH253386   2.501   5.281  10.922  0.2776 -0.1095  0.6130
10632TIP3    H153387   2.447   5.299  10.845 -0.8168 -2.3121  0.7872
10632TIP3    H253388   2.537   5.367  10.946 -0.0286  0.7940 -1.8042
10633TIP3   OH253389   2.499   0.712   6.148 -0.7443  0.3008 -0.1729
10633TIP3    H153390   2.485   0.621   6.173 -1.3876  0.6830  0.9245
10633TIP3    H253391   2.527   0.708   6.056 -0.9711 -0.9781 -0.2013
10634TIP3   OH253392   5.448   2.450   0.641 -0.0477  0.1794 -0.3248
10634TIP3    H153393   5.381   2.498   0.690 -0.4688 -0.5903 -0.1122
10634TIP3    H253394   5.522   2.509   0.636  0.7363 -0.3109  2.8765
10635TIP3   OH253395   5.265   5.437   3.544  0.5066  0.0062  0.3410
10635TIP3    H153396   5.226   5.520   3.569  1.8040  0.0886  2.3120
10635TIP3    H253397   5.332   5.460   3.480 -0.4397  0.2243 -0.5967
10636TIP3   OH253398   0.903   4.857  15.169 -0.1345  0.3106 -0.0636
10636TIP3    H153399   0.949   4.941  15.174  0.4249 -0.0831  1.8055
10636TIP3    H253400   0.909   4.820  15.256  1.4459 -2.6763 -1.2970
10637TIP3   OH253401   3.485   6.716   5.906 -0.2970  0.3637 -0.7357
10637TIP3    H153402   3.539   6.736   5.830 -2.0040  0.9707 -1.8548
10637TIP3    H253403   3.409   6.774   5.898 -0.5262  0.4714  1.4643
10638TIP3   OH253404   0.916   6.842   4.959  0.0099  0.1681 -0.2967
10638TIP3    H153405   0.838   6.893   4.982 -0.0614  0.2507 -0.7188
10638TIP3    H253406   0.927   6.856   4.865 -0.6755 -1.4978 -0.6707
10639TIP3   OH253407   2.114   0.278  14.364 -0.1093  0.7113  0.3190
10639TIP3    H153408   2.138   0.369  14.349  1.5892  0.3639  0.7679
10639TIP3    H253409   2.086   0.276  14.456  1.3391  0.5217  0.7828
10640TIP3   OH253410   2.898   1.210   5.228 -0.4023 -0.2381 -0.7227
10640TIP3    H153411   2.837   1.136   5.226  1.0426 -1.5065 -0.0471
10640TIP3    H253412   2.976   1.178   5.183  0.6783  0.4547  0.5758
10641TIP3   OH253413   6.038   0.069  16.759 -0.2845  0.0330  0.0474
10641TIP3    H153414   6.042   0.008  16.686 -0.3460 -0.2585  0.2891
10641TIP3    H253415   5.971   0.033  16.817 -1.3996  1.0992 -0.5239
10642TIP3   OH253416   2.359   3.121  16.296  0.4722  0.0169 -0.3850
10642TIP3    H153417   2.352   3.027  16.311  3.7403 -0.1050  1.0929
10642TIP3    H253418   2.408   3.129  16.215 -0.3852  0.4868 -0.8697
10643TIP3   OH253419   0.347   0.573  11.724  0.0830  0.6346 -0.4390
10643TIP3    H153420   0.340   0.478  11.717 -0.3057  0.5916  0.4240
10643TIP3    H253421   0.410   0.587  11.795 -0.9110  1.0122  0.3941
10644TIP3   OH253422   5.821   0.578   2.702 -0.0724 -0.1882 -0.5136
10644TIP3    H153423   5.900   0.577   2.757  0.5709  0.1420 -1.4094
10644TIP3    H253424   5.801   0.486   2.686  0.8040 -0.2695 -1.2076
10645TIP3   OH253425   0.916   1.252  15.370 -0.0825 -0.1230 -0.1284
10645TIP3    H153426   0.870   1.275  15.450 -1.4230  0.9192 -1.1475
10645TIP3    H253427   0.980   1.323  15.359 -0.7293  0.3941 -0.6027
10646TIP3   OH253428   5.866   3.797  10.707  0.2735  0.6435  0.1353
10646TIP3    H153429   5.865   3.881  10.753  0.8973  0.4884  0.4514
10646TIP3    H253430   5.805   3.808  10.634 -2.2875  0.2393  2.1063
10647TIP3   OH253431   1.155   4.724  14.491  0.3040 -0.3332  0.4444
10647TIP3    H153432   1.174   4.764  14.406  1.2109  0.7221  1.1188
10647TIP3    H253433   1.063   4.698  14.485 -0.3965  2.0081  0.0020
10648TIP3   OH253434   5.209   3.917   1.840 -0.3155 -0.0726  0.1939
10648TIP3    H153435   5.203   3.848   1.906  0.8391 -2.2829 -1.8692
10648TIP3    H253436   5.119   3.947   1.828 -0.9518 -1.6448  0.7606
10649TIP3   OH253437   6.348   6.309   0.001 -0.4214  0.5656 -0.4086
10649TIP3    H153438   6.299   6.345   0.075 -1.0525 -1.6830  0.3523
10649TIP3    H253439   6.291   6.324  -0.074 -2.7386 -2.4201  0.5262
10650TIP3   OH253440   3.573   1.533   0.501  0.3163  0.0512  0.1838
10650TIP3    H153441   3.478   1.527   0.503 -0.0136  2.3457 -2.5180
10650TIP3    H253442   3.595   1.586   0.578 -1.0708  2.5996 -1.0406
10651TIP3   OH253443   3.669   0.540  15.295  0.0126  0.4967 -0.5907
10651TIP3    H153444   3.674   0.547  15.391  2.6251  1.5294 -0.7246
10651TIP3    H253445   3.634   0.452  15.280 -3.1988  1.2951  1.2406
10652TIP3   OH253446   1.295   6.671   0.193 -0.0898 -0.1821  0.2764
10652TIP3    H153447   1.302   6.626   0.277  0.1166 -1.5815 -0.4594
10652TIP3    H253448   1.382   6.665   0.154 -0.0809  0.7947  0.1124
10653TIP3   OH253449   3.333   2.307  12.113  0.0110 -0.4605  0.4626
10653TIP3    H153450   3.411   2.295  12.168  2.6294  1.1672 -2.5244
10653TIP3    H253451   3.320   2.401  12.111  1.8761 -0.0652 -3.6673
10654TIP3   OH253452   0.122   3.866   2.050  0.3226  0.0612 -0.1642
10654TIP3    H153453   0.168   3.926   1.991  2.5183 -0.6912  0.6930
10654TIP3    H253454   0.097   3.921   2.124  0.5574  0.3253 -0.2762
10655TIP3   OH253455   1.782   4.796   2.232  0.0844  0.1152  0.0428
10655TIP3    H153456   1.778   4.780   2.137 -0.8159  1.6635 -0.2037
10655TIP3    H253457   1.868   4.761   2.258 -0.3539 -1.9235 -0.9994
10656TIP3   OH253458   1.969   4.545   0.928  0.5443  0.3404  0.1503
10656TIP3    H153459   1.968   4.621   0.987 -1.1923  0.2825  0.2483
10656TIP3    H253460   1.967   4.469   0.987 -1.8081  0.2806  0.1186
10657TIP3   OH253461   6.034   2.878   5.622  0.2818  0.2874 -0.2325
10657TIP3    H153462   6.093   2.891   5.697 -2.6755  4.1460  1.7783
10657TIP3    H253463   6.028   2.963   5.580 -2.3340 -0.3873 -1.4733
10658TIP3   OH253464   0.555   2.841   1.142 -0.0993  0.0695  0.4662
10658TIP3    H153465   0.588   2.759   1.177  1.1802  0.0141 -0.8031
10658TIP3    H253466   0.632   2.886   1.108 -0.7837  1.7416  0.9650
10659TIP3   OH253467   5.534   1.272  15.229 -0.2301 -0.2326  0.2211
10659TIP3    H153468   5.618   1.246  15.191 -1.3652 -1.7295 -1.5229
10659TIP3    H253469   5.537   1.240  15.319  0.4602 -1.8217 -0.3239
10660TIP3   OH253470   3.159   4.907  13.286  0.0414 -0.4564  0.4436
10660TIP3    H153471   3.190   4.823  13.319 -0.4238 -1.2238 -1.0126
10660TIP3    H253472   3.233   4.966  13.299  0.9576 -1.4786  0.0277
10661TIP3   OH253473   2.722   6.300   0.206  0.8018 -0.5045 -0.1809
10661TIP3    H153474   2.720   6.280   0.300 -1.1692  1.9269  0.3998
10661TIP3    H253475   2.687   6.221   0.164 -1.7242 -0.3661  1.4810
10662TIP3   OH253476   3.895   2.434   2.751 -0.2700  0.4361 -0.4750
10662TIP3    H153477   3.972   2.380   2.766 -0.0054  1.2819  1.5636
10662TIP3    H253478   3.833   2.377   2.707  0.1743 -1.3912  1.1581
10663TIP3   OH253479   4.485   2.505  11.030  0.2159  0.3753 -0.5582
10663TIP3    H153480   4.498   2.597  11.052 -3.5894  0.6899  1.2047
10663TIP3    H253481   4.430   2.508  10.952  0.6407 -0.4347 -0.8909
10664TIP3   OH253482   5.579   4.103  13.935 -0.4278 -0.5104 -0.2717
10664TIP3    H153483   5.569   4.141  14.022  1.3225 -0.9041  0.1393
10664TIP3    H253484   5.537   4.017  13.941  1.2282 -1.3033  0.7806
10665TIP3   OH253485   6.500   0.962   1.431 -0.7247 -0.4183  0.0196
10665TIP3    H153486   6.426   0.965   1.491 -1.2539  2.3944 -0.6466
10665TIP3    H253487   6.493   0.877   1.388 -3.3618 -0.3676  0.2285
10666TIP3   OH253488   2.460   2.182   4.570  0.0614 -0.1227  0.1345
10666TIP3    H153489   2.505   2.168   4.487  0.6289 -0.4186  0.4821
10666TIP3    H253490   2.490   2.111   4.626  0.8333  0.8892  1.0499
10667TIP3   OH253491   4.608   6.265   4.869 -0.6197  0.0608 -0.7613
10667TIP3    H153492   4.691   6.217   4.874 -0.2286  0.7110 -0.8807
10667TIP3    H253493   4.545   6.209   4.915  0.5810  1.0402  2.3103
10668TIP3   OH253494   1.358   5.227   0.311  0.1756 -0.5469  0.1566
10668TIP3    H153495   1.441   5.273   0.305 -0.6455  0.8111 -1.8220
10668TIP3    H253496   1.344   5.214   0.405  2.1388  0.0555  0.5671
10669TIP3   OH253497   4.577   0.480  15.978  0.6761  0.1000  0.0068
10669TIP3    H153498   4.596   0.434  15.897 -0.5803  1.6809 -1.2380
10669TIP3    H253499   4.486   0.507  15.971  0.5908  0.4714  1.8542
10670TIP3   OH253500   2.370   0.297  16.318 -0.1706  0.0173  0.4092
10670TIP3    H153501   2.357   0.350  16.396  0.2697  1.0578 -0.2072
10670TIP3    H253502   2.463   0.277  16.318 -0.5732 -2.1758  1.4985
10671TIP3   OH253503   4.105   6.687   4.327  0.0014  0.2742 -0.4309
10671TIP3    H153504   4.139   6.618   4.270 -1.0138  0.3528 -1.1606
10671TIP3    H253505   4.046   6.642   4.387  0.7169  0.2608  0.2850
10672TIP3   OH253506   5.596   0.856  12.391  0.1844  0.6053  0.4957
10672TIP3    H153507   5.524   0.911  12.361 -1.2654 -2.3328 -2.0557
10672TIP3    H253508   5.675   0.898  12.357 -0.6690  2.0643  0.2757
10673TIP3   OH253509   2.020   0.209   4.395  1.0952  0.9015 -0.1699
10673TIP3    H153510   2.054   0.198   4.307 -0.8017  1.1371 -0.9811
10673TIP3    H253511   1.970   0.128   4.412  2.6093  0.2105  1.2866
10674TIP3   OH253512   5.778   0.597   5.582  0.5112  0.0207  0.3112
10674TIP3    H153513   5.709   0.654   5.548 -0.3408 -0.5451  1.0526
10674TIP3    H253514   5.819   0.559   5.504 -0.1663  0.1884 -0.1316
10675TIP3   OH253515   1.074   1.387  11.020 -0.0196  0.0623 -0.5410
10675TIP3    H153516   1.051   1.378  10.928 -2.1061 -0.2667 -0.0220
10675TIP3    H253517   1.071   1.481  11.037  0.8822  0.1696 -0.9057
10676TIP3   OH253518   4.653   3.207  10.563  0.0917  0.1993 -0.2976
10676TIP3    H153519   4.661   3.190  10.470  0.2049  1.0162 -0.4429
10676TIP3    H253520   4.742   3.228  10.592 -0.0677  0.7479 -0.1821
10677TIP3   OH253521   5.190   2.377  12.255 -0.0856  0.8716  0.4874
10677TIP3    H153522   5.263   2.340  12.206 -1.3126 -0.7542 -0.2281
10677TIP3    H253523   5.219   2.376  12.346  0.7536  0.1512  0.2301
10678TIP3   OH253524   5.426   3.038  13.915 -0.3241  0.2261  0.1294
10678TIP3    H153525   5.373   3.107  13.955 -1.8650  1.5222 -3.7455
10678TIP3    H253526   5.367   2.963  13.907 -0.1318  0.0947 -0.0709
10679TIP3   OH253527   5.954   4.488   5.364  0.3500 -0.7534 -0.0026
10679TIP3    H153528   5.897   4.475   5.439  2.0180 -2.4617  1.0546
10679TIP3    H253529   5.959   4.402   5.322  2.1024 -0.6733 -0.0509
10680TIP3   OH253530   4.610   5.749  12.480  0.1493 -0.0972  0.6841
10680TIP3    H153531   4.618   5.657  12.452 -0.0620  0.2992 -0.7616
10680TIP3    H253532   4.649   5.751  12.567 -0.8018 -1.7793  1.2011
10681TIP3   OH253533   0.627   4.909   5.486  0.6888  0.4246  0.8079
10681TIP3    H153534   0.598   4.977   5.547 -0.3980 -0.7908  1.6938
10681TIP3    H253535   0.594   4.938   5.400  1.1034  1.4926  0.9922
10682TIP3   OH253536   0.163   0.213   4.394  0.2442  0.4642 -0.2099
10682TIP3    H153537   0.220   0.165   4.455  0.8137 -0.4284 -1.4196
10682TIP3    H253538   0.172   0.167   4.311 -1.0585  1.2568 -0.8165
10683TIP3   OH253539   6.223   0.968   5.379 -0.0714  0.2897  0.1322
10683TIP3    H153540   6.252   0.953   5.289 -0.2123 -1.2385  0.3126
10683TIP3    H253541   6.172   0.890   5.401 -0.2840  0.7749  1.4340
10684TIP3   OH253542   0.692   1.741  13.786 -0.2235 -0.0854 -0.0277
10684TIP3    H153543   0.630   1.812  13.767  0.4200  0.2717 -0.9196
10684TIP3    H253544   0.643   1.661  13.771 -0.0071  0.1756 -2.6095
10685TIP3   OH253545   4.656   0.569  11.913 -0.0444  0.0880 -0.3380
10685TIP3    H153546   4.719   0.561  11.985 -0.6037  2.0788  0.4451
10685TIP3    H253547   4.684   0.647  11.865 -1.3212  0.4293 -0.5693
10686TIP3   OH253548   2.847   5.397  16.324  0.9318  0.0849  0.2424
10686TIP3    H153549   2.817   5.345  16.250  0.1670  0.4364  0.2973
10686TIP3    H253550   2.924   5.350  16.357  0.0520 -1.2023  0.5141
10687TIP3   OH253551   5.307   6.119  11.536  0.1096 -0.1642  0.4732
10687TIP3    H153552   5.248   6.044  11.526 -2.5295  1.8827 -0.5126
10687TIP3    H253553   5.253   6.195  11.517  2.6095  2.0703  1.5953
10688TIP3   OH253554   6.403   2.944  15.999  0.3450 -0.0363 -0.3825
10688TIP3    H153555   6.319   2.945  16.046  0.8245 -0.6006  0.5107
10688TIP3    H253556   6.405   2.860  15.954  0.0949  0.3088 -1.0631
10689TIP3   OH253557   2.675   4.269   5.891 -0.3330 -0.7159  0.6279
10689TIP3    H153558   2.663   4.363   5.905  0.0736 -0.6159  0.3231
10689TIP3    H253559   2.589   4.237   5.865 -0.2146 -0.2187 -0.4080
10690TIP3   OH253560   0.766   4.576   0.764 -0.5975  0.3938 -0.0734
10690TIP3    H153561   0.768   4.560   0.858 -1.1124 -1.3670 -0.3111
10690TIP3    H253562   0.850   4.617   0.744 -0.1097 -0.0418  1.0244
10691TIP3   OH253563   4.080   0.869  11.310 -0.0117 -0.0206  0.2232
10691TIP3    H153564   4.057   0.856  11.402  0.4452 -1.6065  0.1403
10691TIP3    H253565   4.024   0.941  11.281  0.4585  1.1140  1.9633
10692TIP3   OH253566   2.718   6.062  11.474 -0.5214 -0.4510  0.3369
10692TIP3    H153567   2.747   6.150  11.449 -1.1639 -0.4336 -0.3701
10692TIP3    H253568   2.773   6.004  11.422 -1.2274 -0.4316 -0.4406
10693TIP3   OH253569   6.385   0.513   3.759 -0.4043  0.0533 -0.1820
10693TIP3    H153570   6.302   0.488   3.800 -0.1421 -0.6760 -0.0873
10693TIP3    H253571   6.447   0.517   3.831 -0.0516 -0.7524 -0.4334
10694TIP3   OH253572   1.732   2.945  13.298  0.1671  0.0727  0.2550
10694TIP3    H153573   1.805   2.992  13.259 -0.7631  2.7041  1.4420
10694TIP3    H253574   1.764   2.918  13.384  0.1769  0.0156  0.2330
10695TIP3   OH253575   3.229   1.095   2.779  0.2076  0.4118 -0.0453
10695TIP3    H153576   3.153   1.144   2.812  0.8237  0.6282  1.1075
10695TIP3    H253577   3.269   1.057   2.857 -0.0116 -1.6435 -0.8723
10696TIP3   OH253578   5.638   5.750  17.115 -0.3457  0.1928 -0.5134
10696TIP3    H153579   5.621   5.744  17.021 -0.1525 -1.2967 -0.4653
10696TIP3    H253580   5.728   5.720  17.126 -0.3597  0.3676  0.1508
10697TIP3   OH253581   4.838   6.153  13.122  0.6760  0.1542 -0.3010
10697TIP3    H153582   4.900   6.216  13.086 -0.3163  0.1676 -2.0907
10697TIP3    H253583   4.809   6.101  13.047 -1.7904  0.4386  0.3517
10698TIP3   OH253584   2.711   4.395  16.402  0.3379  0.1760 -0.3159
10698TIP3    H153585   2.715   4.299  16.395  0.2194  0.1838 -0.5052
10698TIP3    H253586   2.729   4.426  16.314  3.9443  0.4625  0.3562
10699TIP3   OH253587   1.004   3.756   3.572  0.6269  0.6434 -0.2557
10699TIP3    H153588   0.949   3.810   3.628  0.7057  1.9992 -1.4193
10699TIP3    H253589   0.943   3.691   3.534  0.1203  1.1799 -0.3778
10700TIP3   OH253590   0.491   2.254   4.097  0.0499  0.5347  0.0600
10700TIP3    H153591   0.579   2.290   4.083  0.5726  0.1218  1.9489
10700TIP3    H253592   0.438   2.331   4.120  0.0732  0.6974 -0.4221
10701TIP3   OH253593   1.226   1.495   1.779  0.8051 -0.2914 -0.1043
10701TIP3    H153594   1.266   1.582   1.781  0.0838  0.1230 -1.6729
10701TIP3    H253595   1.193   1.486   1.689 -0.1504 -1.7241  0.3485
10702TIP3   OH253596   6.227   5.379   4.041 -0.7259  0.5670  0.2539
10702TIP3    H153597   6.223   5.381   4.137  0.8514  0.6789  0.3296
10702TIP3    H253598   6.285   5.306   4.020 -2.9739 -1.0641 -0.7272
10703TIP3   OH253599   5.604   2.078  14.109 -0.5400  0.4846 -0.3982
10703TIP3    H153600   5.654   2.000  14.131 -0.9960 -0.1173 -1.3946
10703TIP3    H253601   5.513   2.053  14.124 -0.6388  1.0756 -0.0024
10704TIP3   OH253602   3.762   3.955  14.294  0.1592 -0.2979 -0.0683
10704TIP3    H153603   3.695   3.933  14.229  1.2917  1.1192 -1.8182
10704TIP3    H253604   3.767   3.878  14.350 -0.4560 -1.8807 -2.0552
10705TIP3   OH253605   4.347   0.542  15.680  0.4040  0.0596 -0.3856
10705TIP3    H153606   4.325   0.569  15.590 -0.2832 -1.6771 -0.7727
10705TIP3    H253607   4.287   0.592  15.735  1.1364  1.4926 -0.8256
10706TIP3   OH253608   0.047   3.060  13.951 -0.2377  0.2847  0.2872
10706TIP3    H153609   0.107   3.047  13.877 -0.4860  0.6316  0.0235
10706TIP3    H253610   0.022   3.152  13.946 -2.5397 -0.3451 -0.9407
10707TIP3   OH253611   3.599   6.462   3.714 -0.9308  0.4892 -0.1904
10707TIP3    H153612   3.528   6.483   3.654 -0.1496  1.0087 -0.9551
10707TIP3    H253613   3.559   6.407   3.781 -2.6583  2.9473  0.9090
10708TIP3   OH253614   4.322   3.851   1.645 -0.0473  0.3948 -0.3691
10708TIP3    H153615   4.368   3.835   1.727 -0.0657 -3.2479 -0.9376
10708TIP3    H253616   4.236   3.884   1.672  0.6504  1.2296  0.9362
10709TIP3   OH253617   5.391   0.306  13.124 -0.0084  0.5114  0.0558
10709TIP3    H153618   5.478   0.347  13.124 -0.1914  0.9372  1.0344
10709TIP3    H253619   5.379   0.274  13.034  1.2801  0.1814 -0.0243
10710TIP3   OH253620   4.674   6.320  16.379  0.0970 -0.0404 -0.3544
10710TIP3    H153621   4.715   6.234  16.366 -1.6727 -0.6885 -2.1308
10710TIP3    H253622   4.720   6.377  16.317 -0.1863 -0.2342 -0.7465
10711TIP3   OH253623   3.114   2.118   0.660  0.3528 -0.0398  0.1473
10711TIP3    H153624   3.074   2.107   0.747 -1.1918  1.0935 -0.3694
10711TIP3    H253625   3.063   2.060   0.603  1.5158 -0.9624  0.0261
10712TIP3   OH253626   5.679   1.041   2.491 -0.2198  0.1455 -0.0320
10712TIP3    H153627   5.646   1.071   2.407  0.7042 -1.2224 -0.9278
10712TIP3    H253628   5.760   0.995   2.470  0.6565  0.7711  1.7487
10713TIP3   OH253629   5.583   6.224   5.356  0.1528  0.0961 -0.6317
10713TIP3    H153630   5.509   6.284   5.364 -0.8133 -0.7272 -2.6144
10713TIP3    H253631   5.607   6.203   5.446 -0.9367  1.6667  0.0770
10714TIP3   OH253632   1.087   5.473  15.063  0.3040  0.0241  0.2006
10714TIP3    H153633   1.085   5.568  15.063  1.8062  0.1369  2.4802
10714TIP3    H253634   1.172   5.451  15.102 -0.2458 -2.2377  0.2547
10715TIP3   OH253635   6.470   4.047   4.053 -0.2787 -0.1387 -0.3778
10715TIP3    H153636   6.472   4.091   3.967 -0.6031  0.2135 -0.2089
10715TIP3    H253637   6.390   4.079   4.094 -0.8597 -1.3579 -0.4963
10716TIP3   OH253638   6.727   4.337  14.699  0.6302 -0.0998 -0.4817
10716TIP3    H153639   6.816   4.319  14.731  1.1764  2.5348 -0.3011
10716TIP3    H253640   6.720   4.432  14.701 -1.8728 -0.2002 -1.4689
10717TIP3   OH253641   3.959   4.036  11.866 -0.0745  0.1815  0.1474
10717TIP3    H153642   3.954   4.072  11.954  0.2798  1.4870 -0.3494
10717TIP3    H253643   4.050   4.005  11.858  0.2679  1.2265 -0.1791
10718TIP3   OH253644   6.206   2.907  13.876  0.3224  0.4973 -0.1320
10718TIP3    H153645   6.186   2.913  13.970  0.5044 -1.4705  0.0695
10718TIP3    H253646   6.296   2.938  13.869  0.7162 -0.4424  0.5393
10719TIP3   OH253647   0.812   2.716  10.968  0.8049 -0.2154 -0.3744
10719TIP3    H153648   0.866   2.779  10.920  0.1652  2.1875  1.8348
10719TIP3    H253649   0.869   2.686  11.040  0.0139  0.5152  0.5801
10720TIP3   OH253650   1.478   2.864  11.549  0.2186 -0.4042  0.3700
10720TIP3    H153651   1.526   2.785  11.573  0.1265 -0.6937 -0.3689
10720TIP3    H253652   1.535   2.907  11.485  0.8029  0.7317  1.6113
10721TIP3   OH253653   2.178   5.555   0.700 -0.2015 -0.2020  0.3252
10721TIP3    H153654   2.219   5.511   0.775 -1.4648 -0.7436  0.7263
10721TIP3    H253655   2.084   5.548   0.717 -0.5572 -0.9955 -1.6790
10722TIP3   OH253656   3.158   4.305  16.919 -0.7711  0.0834 -0.0754
10722TIP3    H153657   3.205   4.375  16.873  1.2002 -1.7924 -1.0921
10722TIP3    H253658   3.077   4.293  16.869 -1.6140  2.1894  0.6667
10723TIP3   OH253659   3.498   1.300   0.698 -0.0392 -0.0456 -0.0009
10723TIP3    H153660   3.444   1.361   0.748  0.9391  0.6536  0.2192
10723TIP3    H253661   3.508   1.341   0.612 -1.1941 -0.9505 -0.6148
10724TIP3   OH253662   3.585   3.700  14.943 -0.3187 -0.0629 -0.2982
10724TIP3    H153663   3.514   3.744  14.896 -0.8613  0.6573  1.1265
10724TIP3    H253664   3.551   3.687  15.032  0.8506 -0.9046  0.0601
10725TIP3   OH253665   5.674   1.604   2.338  0.0417  0.2405  0.0956
10725TIP3    H153666   5.645   1.692   2.316  0.6129 -0.1775 -2.6626
10725TIP3    H253667   5.769   1.609   2.340  0.0533 -0.1004  1.0995
10726TIP3   OH253668   1.764   0.119   4.138 -0.1670  0.1208 -0.1352
10726TIP3    H153669   1.776   0.081   4.225 -2.4674 -0.0696  0.1774
10726TIP3    H253670   1.780   0.046   4.078  0.1121 -0.1117  0.2169
10727TIP3   OH253671   5.961   4.807   4.949  0.0968 -0.0648  0.0504
10727TIP3    H153672   5.992   4.783   5.036  0.1358 -1.4577 -0.3239
10727TIP3    H253673   5.928   4.896   4.959  1.2594  0.2726  1.1917
10728TIP3   OH253674   4.833   1.035  12.996 -0.1619 -0.0854 -0.5836
10728TIP3    H153675   4.890   0.961  12.973 -0.4134 -0.3937 -0.2168
10728TIP3    H253676   4.884   1.112  12.971  0.0289 -0.3822 -1.1459
10729TIP3   OH253677   1.455   0.088  13.392 -0.0809  0.3042  0.5054
10729TIP3    H153678   1.546   0.069  13.417  0.1757 -0.0452 -0.6201
10729TIP3    H253679   1.416   0.002  13.378 -0.5835  0.4570  0.9291
10730TIP3   OH253680   5.322   0.889  11.110 -0.6132 -0.5585  0.6867
10730TIP3    H153681   5.236   0.865  11.145 -0.9828  1.4460  1.3129
10730TIP3    H253682   5.345   0.819  11.050 -2.5610 -1.2823  0.7340
10731TIP3   OH253683   6.305   1.005   6.218  0.0311 -0.0846  0.0656
10731TIP3    H153684   6.290   0.990   6.311  0.3838 -0.8216  0.0140
10731TIP3    H253685   6.359   0.931   6.190 -1.3321 -0.7060 -1.0689
10732TIP3   OH253686   5.778   5.616  12.785  0.0939 -0.0428  0.6736
10732TIP3    H153687   5.703   5.673  12.799 -0.6683 -0.6797 -0.6349
10732TIP3    H253688   5.742   5.539  12.740  1.1821 -1.3276  1.8885
10733TIP3   OH253689   1.974   6.502   2.153 -0.1713 -0.1868  0.2266
10733TIP3    H153690   2.054   6.552   2.139 -0.4744 -0.3647 -2.8591
10733TIP3    H253691   1.906   6.551   2.107 -1.4079 -1.1188  0.9917
10734TIP3   OH253692   1.973   1.181  12.190 -0.6495 -0.3095 -0.5988
10734TIP3    H153693   1.974   1.085  12.196  0.9120 -0.2821  0.0884
10734TIP3    H253694   2.025   1.201  12.112 -0.5876 -0.0140 -0.4836
10735TIP3   OH253695   0.392   1.295   6.216 -0.0553  0.2672 -0.6356
10735TIP3    H153696   0.450   1.359   6.258  0.1327 -0.2371 -0.1181
10735TIP3    H253697   0.305   1.316   6.250 -0.0384  0.4356 -0.6950
10736TIP3   OH253698   6.745   0.074   1.807  0.2912 -0.6963  0.3293
10736TIP3    H153699   6.651   0.053   1.812 -0.4257  2.0604  0.2494
10736TIP3    H253700   6.761   0.126   1.886  1.7775 -1.1695  0.3524
10737TIP3   OH253701   6.221   0.736  10.841  0.6923 -0.5041 -0.1181
10737TIP3    H153702   6.155   0.667  10.849  1.0373 -1.0353 -1.4796
10737TIP3    H253703   6.302   0.696  10.872  0.3922  0.1856  1.6659
10738TIP3   OH253704   0.227   1.885  14.164  0.5293  0.3079  0.4579
10738TIP3    H153705   0.284   1.958  14.185  0.2310  0.4671  0.7241
10738TIP3    H253706   0.210   1.894  14.070  0.1160  0.8523  0.5840
10739TIP3   OH253707   6.120   3.847  12.546 -0.4750 -0.4634 -0.3146
10739TIP3    H153708   6.048   3.801  12.504 -0.0206 -1.4744 -0.0317
10739TIP3    H253709   6.079   3.922  12.588 -0.7937  1.4132 -3.6167
10740TIP3   OH253710   4.384   5.667   3.111  0.1205  0.3409 -0.3100
10740TIP3    H153711   4.452   5.696   3.050  2.3112 -1.1401  1.3019
10740TIP3    H253712   4.354   5.584   3.075  0.5785  0.0351  0.0124
10741TIP3   OH253713   3.375   0.794   6.069 -0.6337 -0.1122 -0.1196
10741TIP3    H153714   3.287   0.789   6.106 -0.0978  0.2324  1.2612
10741TIP3    H253715   3.411   0.706   6.082 -1.3205 -0.7626 -2.2117
10742TIP3   OH253716   1.652   0.110  13.764  0.0897 -0.2440  0.4312
10742TIP3    H153717   1.737   0.103  13.808  0.6439 -0.2764 -0.6345
10742TIP3    H253718   1.591   0.129  13.835  1.2549  1.6521  0.9988
10743TIP3   OH253719   6.643   6.767  15.965  0.2034 -0.1537  0.6694
10743TIP3    H153720   6.692   6.812  15.896 -0.8532  1.4569  0.9020
10743TIP3    H253721   6.707   6.758  16.037  1.1835 -1.4729 -0.3169
10744TIP3   OH253722   3.337   6.473   0.018  0.0777  0.3487  0.0630
10744TIP3    H153723   3.243   6.490   0.029  0.1634  2.6466 -1.9683
10744TIP3    H253724   3.353   6.485  -0.075  2.4225 -0.0105  0.3537
10745TIP3   OH253725   1.320   0.426  12.775  0.4852 -0.3494  0.3179
10745TIP3    H153726   1.403   0.459  12.740  0.1781  1.0108  0.7972
10745TIP3    H253727   1.336   0.417  12.869  0.3103 -0.8041  0.3053
10746TIP3   OH253728   6.014   0.216   1.562  0.9471 -0.7166  0.0559
10746TIP3    H153729   6.079   0.159   1.603  1.1215  0.3113  1.2661
10746TIP3    H253730   5.930   0.189   1.599  1.0082 -0.3098  0.4929
10747TIP3   OH253731   2.930   1.553  15.196 -0.0574  0.1806  0.5803
10747TIP3    H153732   2.848   1.561  15.147 -0.2576  2.0238  1.1443
10747TIP3    H253733   2.903   1.533  15.285  0.2475 -1.6176  0.3090
10748TIP3   OH253734   5.115   2.648  10.801  0.0737  0.0651 -0.0579
10748TIP3    H153735   5.078   2.621  10.886 -0.7271 -1.3098 -0.8123
10748TIP3    H253736   5.208   2.628  10.808  0.2181  0.9646  0.8635
10749TIP3   OH253737   0.127   1.305   1.187 -0.2418  0.2246 -0.6856
10749TIP3    H153738   0.138   1.277   1.278 -1.1402  0.2617 -0.5530
10749TIP3    H253739   0.159   1.395   1.186 -0.4009  0.2877 -0.3583
10750TIP3   OH253740   3.744   1.194  12.943  0.5497  0.5571 -0.0275
10750TIP3    H153741   3.686   1.180  12.868  1.4577 -0.3588 -0.5670
10750TIP3    H253742   3.791   1.274  12.922 -0.7770  1.5540  0.6065
10751TIP3   OH253743   4.015   2.210  15.968 -0.8321  0.1318 -0.2228
10751TIP3    H153744   3.979   2.144  16.028 -1.4042  0.1916 -0.4923
10751TIP3    H253745   3.957   2.207  15.893 -1.7171  1.9475  0.3524
10752TIP3   OH253746   6.731   1.427   2.222  0.1904 -0.6356 -0.0576
10752TIP3    H153747   6.815   1.397   2.185  0.5274 -1.0880  1.0267
10752TIP3    H253748   6.751   1.448   2.313 -0.8307 -0.5371  0.1574
10753TIP3   OH253749   0.336   1.453  12.015  0.2764 -0.1887  0.5007
10753TIP3    H153750   0.291   1.371  12.034 -0.5290 -0.0567 -0.7279
10753TIP3    H253751   0.416   1.427  11.969  0.9620 -0.3640  1.7496
10754TIP3   OH253752   5.335   4.647   0.207  0.3588  0.2295 -0.1671
10754TIP3    H153753   5.305   4.565   0.169 -2.5436  1.3274 -0.4999
10754TIP3    H253754   5.376   4.694   0.134  0.7221 -0.3182 -0.3206
10755TIP3   OH253755   5.560   1.394   5.686  0.0128 -0.6843  0.0798
10755TIP3    H153756   5.484   1.379   5.629 -0.4421 -1.1126  0.7837
10755TIP3    H253757   5.633   1.408   5.625 -0.4839 -1.0147 -0.6092
10756TIP3   OH253758   6.060   6.750  16.548  0.1205 -0.3487  0.0387
10756TIP3    H153759   6.064   6.654  16.554 -0.0939 -0.3405  0.3009
10756TIP3    H253760   6.148   6.775  16.518  0.3000 -0.6013  0.3386
10757TIP3   OH253761   3.002   0.570   2.885  0.1686  0.2018 -0.0445
10757TIP3    H153762   3.048   0.654   2.891 -0.2850  0.5584 -1.3601
10757TIP3    H253763   2.955   0.563   2.969 -0.1587  1.4851 -0.1011
10758TIP3   OH253764   5.940   3.183  16.280  0.2556 -0.1190 -0.6594
10758TIP3    H153765   6.023   3.181  16.327 -0.4248 -0.4593  0.5680
10758TIP3    H253766   5.927   3.275  16.257  2.1747 -0.3626 -3.1432
10759TIP3   OH253767   2.428   6.143   4.605  0.2802  0.4224 -0.0629
10759TIP3    H153768   2.518   6.174   4.616  0.6446  0.1904 -2.0979
10759TIP3    H253769   2.437   6.049   4.590 -0.1675  0.5820 -1.4885
10760TIP3   OH253770   2.399   5.325   4.327 -0.0045 -0.5744  0.4026
10760TIP3    H153771   2.490   5.338   4.353  0.1528  0.1641 -0.4764
10760TIP3    H253772   2.401   5.244   4.275  0.4834  0.3160 -1.0505
10761TIP3   OH253773   1.453   2.412   5.909 -0.1207 -0.1585  0.0704
10761TIP3    H153774   1.505   2.344   5.867  0.2187 -0.1496  0.4697
10761TIP3    H253775   1.362   2.387   5.892 -0.0257 -1.2708  1.0763
10762TIP3   OH253776   1.927   2.151  14.999 -0.4334  0.4153  0.0399
10762TIP3    H153777   1.927   2.086  15.070 -0.7680  0.0376 -0.2969
10762TIP3    H253778   1.920   2.098  14.920 -1.7996  0.9172 -0.1907
10763TIP3   OH253779   3.256   0.491   5.885 -0.1416  0.0817  0.3857
10763TIP3    H153780   3.162   0.477   5.893 -0.1897 -0.3035 -0.7261
10763TIP3    H253781   3.288   0.487   5.975 -1.2535  0.7537  0.8308
10764TIP3   OH253782   5.168   3.881   3.154 -0.2024 -0.5652 -0.2223
10764TIP3    H153783   5.138   3.933   3.080  0.5208 -1.8155 -1.4464
10764TIP3    H253784   5.091   3.832   3.182 -0.4794 -0.0846 -0.1323
10765TIP3   OH253785   6.606   3.813   0.495 -0.1999 -0.0134  0.1823
10765TIP3    H153786   6.594   3.840   0.586  0.0124  0.2244  0.1409
10765TIP3    H253787   6.559   3.879   0.444 -0.4142 -0.2084  0.1218
10766TIP3   OH253788   2.604   3.538   5.639  0.2815  0.0083  0.2118
10766TIP3    H153789   2.665   3.472   5.674 -1.3254 -1.4125  0.4998
10766TIP3    H253790   2.544   3.555   5.712  0.7840  2.0053  0.2082
10767TIP3   OH253791   3.541   3.361  16.723  0.3239  0.2232 -0.3113
10767TIP3    H153792   3.562   3.268  16.730 -1.9720 -0.4732 -1.6116
10767TIP3    H253793   3.475   3.375  16.791  1.2919  1.1492  0.4677
10768TIP3   OH253794   1.148   0.140  16.638 -0.2231 -0.4179 -0.3686
10768TIP3    H153795   1.206   0.217  16.639 -0.4992 -0.1990  0.8309
10768TIP3    H253796   1.073   0.167  16.690  0.8291 -2.3380  2.3683
10769TIP3   OH253797   6.474   6.586  12.209 -0.0156  0.1174  0.7027
10769TIP3    H153798   6.492   6.532  12.132  2.6034  0.2679  1.0995
10769TIP3    H253799   6.486   6.676  12.178 -1.0958  0.3069  0.8098
10770TIP3   OH253800   1.394   0.320  13.527 -0.2569  0.4043 -0.1321
10770TIP3    H153801   1.394   0.246  13.466 -2.4769 -1.1381  1.5444
10770TIP3    H253802   1.462   0.298  13.591  0.0101  0.5135 -0.3744
10771TIP3   OH253803   2.165   3.235   4.213 -0.8651 -0.0171 -0.2567
10771TIP3    H153804   2.083   3.206   4.252  0.5905 -0.9686  2.3269
10771TIP3    H253805   2.172   3.327   4.238 -1.2092  0.1192 -0.6469
10772TIP3   OH253806   4.162   0.257  15.879 -0.5908 -0.0331 -0.3746
10772TIP3    H153807   4.232   0.287  15.937 -0.7107  0.0939 -0.2969
10772TIP3    H253808   4.197   0.177  15.840 -0.6050 -0.2586  0.0613
10773TIP3   OH253809   0.812   1.480  11.914 -0.3336 -0.2704 -0.1076
10773TIP3    H153810   0.891   1.430  11.933 -1.2031 -1.8108 -0.3888
10773TIP3    H253811   0.776   1.501  12.001  1.3457  2.1616  0.1003
10774TIP3   OH253812   4.034   2.557  12.624  0.0721  0.5976  0.2671
10774TIP3    H153813   4.070   2.631  12.673 -0.8685  1.3540 -0.1576
10774TIP3    H253814   3.940   2.559  12.642  0.0183 -0.4471  0.1727
10775TIP3   OH253815   3.829   5.484  11.338  0.3143  0.0546 -0.4925
10775TIP3    H153816   3.822   5.576  11.312  0.2413  0.3058  0.3991
10775TIP3    H253817   3.815   5.436  11.257 -0.1164  0.8198 -0.8847
10776TIP3   OH253818   2.283   5.397  13.682  0.1047  0.1642  0.2305
10776TIP3    H153819   2.309   5.445  13.761 -0.1561  0.3053  0.2319
10776TIP3    H253820   2.341   5.431  13.614 -0.5052  0.9531  0.0914
10777TIP3   OH253821   2.727   0.894  13.882 -0.0569  0.1367 -0.2176
10777TIP3    H153822   2.672   0.877  13.806  0.2175 -0.0633 -0.3723
10777TIP3    H253823   2.796   0.827  13.879 -1.9501 -2.1205  2.1091
10778TIP3   OH253824   2.434   2.021   1.246 -0.2107  0.3863 -0.2733
10778TIP3    H153825   2.524   2.028   1.212  0.7690  0.2243  2.1285
10778TIP3    H253826   2.415   1.928   1.243 -0.9873  0.5496 -2.2857
10779TIP3   OH253827   3.345   2.897  16.935 -0.4271 -0.1929 -0.5501
10779TIP3    H153828   3.293   2.848  16.871  0.5315 -0.3776 -1.2061
10779TIP3    H253829   3.299   2.980  16.945 -1.9002 -1.0718  0.3311
10780TIP3   OH253830   6.194   1.061  15.792 -0.1890  0.5437  0.5245
10780TIP3    H153831   6.174   1.048  15.884 -1.7073  1.7464  0.3898
10780TIP3    H253832   6.158   0.984  15.748  0.8511 -0.2056  0.9428
10781TIP3   OH253833   1.048   0.034  14.023 -0.4393 -0.2248  0.0522
10781TIP3    H153834   0.994  -0.037  14.058 -1.6466  0.3230 -0.6181
10781TIP3    H253835   0.985   0.100  13.994  0.5991  0.4360 -0.7991
10782TIP3   OH253836   0.206   5.855   4.988 -0.5085  0.0527  0.6308
10782TIP3    H153837   0.188   5.925   5.050  0.3868  1.0673 -0.2259
10782TIP3    H253838   0.265   5.894   4.923  0.3305 -1.5989  0.3448
10783TIP3   OH253839   3.114   3.013  13.042  0.1875 -0.4133  0.1410
10783TIP3    H153840   3.205   2.994  13.068 -0.3524 -2.0508  0.9811
10783TIP3    H253841   3.112   2.992  12.948  1.0494  1.2360 -0.2920
10784TIP3   OH253842   5.056   2.539   0.501 -0.2282 -0.0039  0.5098
10784TIP3    H153843   5.100   2.469   0.549  1.6287  1.5789  1.2911
10784TIP3    H253844   5.116   2.558   0.428 -0.0690  1.5324  1.0087
10785TIP3   OH253845   2.632   2.597  10.395  0.1270  0.0462  0.1148
10785TIP3    H153846   2.685   2.519  10.380 -1.2933 -0.5420 -2.2790
10785TIP3    H253847   2.577   2.574  10.471  0.5384 -0.8199  0.1632
10786TIP3   OH253848   2.133   1.565   5.128 -0.0808 -0.0571 -0.0319
10786TIP3    H153849   2.166   1.509   5.058  3.0273  1.9045 -0.3441
10786TIP3    H253850   2.124   1.652   5.088 -0.4393  0.6225  1.4420
10787TIP3   OH253851   0.605   5.868  16.065 -0.2888  0.4034  0.2808
10787TIP3    H153852   0.678   5.870  16.003 -0.9829 -0.4237 -0.5878
10787TIP3    H253853   0.557   5.949  16.049 -1.1388 -0.3467 -1.1233
10788TIP3   OH253854   0.453   0.433   4.945  0.3279 -0.4516  0.0076
10788TIP3    H153855   0.408   0.379   5.011 -0.6675  1.9432  1.3968
10788TIP3    H253856   0.395   0.431   4.869 -1.0420  0.7174  0.9770
10789TIP3   OH253857   2.384   5.730   4.813  0.2881  0.0611 -0.3449
10789TIP3    H153858   2.424   5.806   4.856 -1.0238  1.5164 -1.5416
10789TIP3    H253859   2.295   5.760   4.791 -0.1295 -1.7001 -1.2336
10790TIP3   OH253860   2.188   6.504   1.076 -0.0210 -0.2603  0.3150
10790TIP3    H153861   2.151   6.451   1.006 -1.1832  0.9308 -0.0103
10790TIP3    H253862   2.189   6.445   1.152 -1.2267 -0.7835 -0.0417
10791TIP3   OH253863   6.415   4.376   0.040 -0.9729  0.0760 -0.0540
10791TIP3    H153864   6.368   4.301   0.005 -1.6410  0.6261 -0.3534
10791TIP3    H253865   6.414   4.364   0.134  1.3851 -1.7563 -0.1688
10792TIP3   OH253866   6.385   4.006   1.025  0.6523 -0.1183 -0.3307
10792TIP3    H153867   6.330   3.969   0.956  0.1313  1.6625 -0.9471
10792TIP3    H253868   6.465   3.953   1.023 -1.0131 -2.8826  0.6963
10793TIP3   OH253869   1.293   1.179  12.409 -0.1116  0.0044  0.2888
10793TIP3    H153870   1.340   1.229  12.343  1.2006 -1.3781  0.1320
10793TIP3    H253871   1.347   1.187  12.488 -0.9334  0.4787  0.8160
10794TIP3   OH253872   6.227   0.420  13.678  0.1920 -0.3052  0.0648
10794TIP3    H153873   6.167   0.397  13.607  0.3636  2.2980 -1.0405
10794TIP3    H253874   6.172   0.465  13.743  0.8434  2.6178 -1.2145
10795TIP3   OH253875   0.530   6.176  11.782 -0.0643  0.0982 -0.5574
10795TIP3    H153876   0.590   6.186  11.708  0.2408  0.7861 -0.2285
10795TIP3    H253877   0.577   6.120  11.844  0.6327  1.3338  0.0816
10796TIP3   OH253878   6.422   2.735   2.209 -0.0663  0.4477 -0.2340
10796TIP3    H153879   6.492   2.676   2.179 -0.5537 -0.6629  0.7364
10796TIP3    H253880   6.368   2.680   2.266  0.5949  2.3095  2.3759
10797TIP3   OH253881   4.904   0.450  16.432 -0.3724  0.3421  0.5610
10797TIP3    H153882   4.969   0.472  16.365 -3.1245 -0.9565 -2.8649
10797TIP3    H253883   4.833   0.513  16.419 -2.0404 -1.4469  0.5065
10798TIP3   OH253884   5.516   6.630   3.250  0.0476  0.0872 -0.3711
10798TIP3    H153885   5.497   6.655   3.341  0.9809 -0.0563 -0.1240
10798TIP3    H253886   5.431   6.608   3.212 -0.1926 -1.3588  0.9174
10799TIP3   OH253887   3.553   3.719  11.817 -0.1327 -0.5310  0.4586
10799TIP3    H153888   3.621   3.784  11.833 -0.8993  0.7560 -1.2284
10799TIP3    H253889   3.482   3.743  11.878 -0.8057  0.8865 -0.8170
10800TIP3   OH253890   2.048   4.086   1.775 -0.2076 -0.4209 -0.6096
10800TIP3    H153891   2.087   4.065   1.691  0.4115  0.3094 -0.5160
10800TIP3    H253892   1.977   4.146   1.754 -0.6114 -0.9211 -0.6851
10801TIP3   OH253893   2.921   4.950   5.653  0.5117 -0.2254 -0.1415
10801TIP3    H153894   2.856   4.924   5.587  0.2613 -0.0536  0.0378
10801TIP3    H253895   2.961   4.868   5.681 -0.7072 -0.4987  0.8750
10802TIP3   OH253896   0.549   5.646   1.622 -0.4256 -0.2478  0.4037
10802TIP3    H153897   0.461   5.638   1.658 -0.3976 -0.0647  0.5163
10802TIP3    H253898   0.539   5.701   1.544 -0.5863 -1.1786 -0.2510
10803TIP3   OH253899   4.462   6.729   3.374 -0.7594 -0.7334  0.0381
10803TIP3    H153900   4.534   6.775   3.417 -1.3069  0.3018 -0.1255
10803TIP3    H253901   4.410   6.693   3.446 -0.5697 -0.7210  0.1820
10804TIP3   OH253902   5.924   5.623   1.977 -0.6371 -0.2159 -0.1766
10804TIP3    H153903   5.954   5.553   2.035  0.1117 -0.1646 -0.4882
10804TIP3    H253904   5.973   5.701   2.005 -2.1517  0.4249  0.7866
10805TIP3   OH253905   3.238   5.412  14.492  0.2604  0.0528 -0.1070
10805TIP3    H153906   3.209   5.334  14.444  0.5643 -1.3942  1.9105
10805TIP3    H253907   3.333   5.410  14.487  0.2917 -0.0578  0.4346
10806TIP3   OH253908   2.290   5.418   4.104 -0.5548  0.1563 -0.1015
10806TIP3    H153909   2.254   5.332   4.083  0.5747 -0.3385 -0.0339
10806TIP3    H253910   2.339   5.405   4.185 -0.0826  0.7820 -0.2776
10807TIP3   OH253911   3.896   2.196  16.632 -0.1072 -0.3062  0.8155
10807TIP3    H153912   3.894   2.123  16.571 -1.1351  0.5260 -0.1855
10807TIP3    H253913   3.909   2.155  16.718  1.8048 -1.4640  0.0312
10808TIP3   OH253914   6.307   0.027   1.433  0.1832  0.1079  0.0818
10808TIP3    H153915   6.213   0.024   1.412 -0.0575  2.5476  0.5352
10808TIP3    H253916   6.351   0.025   1.349 -0.1854 -2.1481 -0.1041
10809TIP3   OH253917   6.197   5.736  16.257 -0.0549  0.2411 -0.1938
10809TIP3    H153918   6.274   5.767  16.210  0.6197 -0.4986  0.3785
10809TIP3    H253919   6.173   5.654  16.213 -1.4283  1.1701 -1.2873
10810TIP3   OH253920   0.322   6.204   6.522 -0.4456  0.5821 -0.0566
10810TIP3    H153921   0.255   6.270   6.537 -0.3956  1.5727 -3.2597
10810TIP3    H253922   0.277   6.134   6.474  0.1278 -0.3132  0.6808
10811TIP3   OH253923   2.694   1.450  12.119 -0.3209 -0.3850  0.2981
10811TIP3    H153924   2.664   1.426  12.206 -1.9130  1.8651  0.4600
10811TIP3    H253925   2.702   1.546  12.122 -1.1339 -0.1710 -2.2137
10812TIP3   OH253926   3.192   0.996  12.385  0.0869 -0.3919 -0.4858
10812TIP3    H153927   3.191   0.934  12.312 -0.0873 -2.3795  1.1264
10812TIP3    H253928   3.232   1.075  12.349 -0.5266 -1.0956 -2.8717
10813TIP3   OH253929   2.509   0.277  11.642  0.2900  0.3801  0.2128
10813TIP3    H153930   2.507   0.202  11.582  0.0029  0.1862  0.4633
10813TIP3    H253931   2.468   0.348  11.593  1.3783  0.6396 -0.3679
10814TIP3   OH253932   1.988   4.536   1.778 -0.2804 -0.0780  0.3977
10814TIP3    H153933   1.966   4.491   1.860  2.0153 -1.3910  0.3636
10814TIP3    H253934   2.036   4.614   1.806 -2.1974  1.1914  0.3540
10815TIP3   OH253935   0.466   4.675   2.061  0.2161  0.2887  0.0237
10815TIP3    H153936   0.493   4.723   1.982  0.2626  2.0640  1.0640
10815TIP3    H253937   0.378   4.643   2.041  0.5929 -0.1060 -1.0805
10816TIP3   OH253938   1.683   6.028   2.139  0.2689 -0.1714  0.5448
10816TIP3    H153939   1.726   5.961   2.086 -1.1294 -2.4410  2.1451
10816TIP3    H253940   1.619   5.981   2.191 -0.4602  2.3663  2.1217
10817TIP3   OH253941   2.995   5.048   3.097  0.1706 -0.0951 -0.4895
10817TIP3    H153942   3.071   5.105   3.111 -0.8625  1.2577 -0.0781
10817TIP3    H253943   2.974   5.060   3.004 -0.6206  0.9818 -0.1867
10818TIP3   OH253944   1.795   5.628   1.215 -0.7427  0.7671 -0.5929
10818TIP3    H153945   1.765   5.691   1.150 -2.0810 -0.6481 -1.3902
10818TIP3    H253946   1.860   5.575   1.169 -0.5466  0.7549 -0.3028
10819TIP3   OH253947   3.864   4.156   3.296 -0.7196  0.1082 -0.0253
10819TIP3    H153948   3.881   4.191   3.383 -0.4779 -0.5466  0.1985
10819TIP3    H253949   3.911   4.214   3.236  1.8164 -1.2495  0.5045
10820TIP3   OH253950   5.339   2.316  12.925 -0.0442  0.1451  0.3175
10820TIP3    H153951   5.370   2.262  12.852 -0.7029 -0.3857  0.4231
10820TIP3    H253952   5.334   2.405  12.888  0.1176 -0.0317 -0.1363
10821TIP3   OH253953   6.701   4.940   4.398 -0.6069  0.3354  0.4158
10821TIP3    H153954   6.636   4.870   4.403 -0.1647 -0.0886  0.2330
10821TIP3    H253955   6.697   4.970   4.307  0.4333 -0.6365  0.0340
10822TIP3   OH253956   4.545   3.971  15.358  0.1781  0.2816 -0.0457
10822TIP3    H153957   4.522   4.033  15.427 -1.4086 -1.7511  1.3985
10822TIP3    H253958   4.472   3.975  15.296 -1.1617 -1.7217  1.2885
10823TIP3   OH253959   4.365   1.237   5.186 -0.2005  0.2521 -0.2606
10823TIP3    H153960   4.399   1.302   5.125  3.1824 -1.8617 -0.9134
10823TIP3    H253961   4.411   1.156   5.163 -0.2885 -1.1639  3.7420
10824TIP3   OH253962   3.575   5.461  12.164  0.4735 -0.5167  0.5430
10824TIP3    H153963   3.591   5.393  12.229  0.3763 -0.4655  0.6201
10824TIP3    H253964   3.659   5.506  12.155  1.1863 -2.0614 -1.1467
10825TIP3   OH253965   0.604   0.737   4.464 -0.3268  0.8204 -0.1819
10825TIP3    H153966   0.634   0.679   4.534 -1.1482  0.1404 -0.3672
10825TIP3    H253967   0.518   0.767   4.493 -1.1645 -0.3270 -1.3519
10826TIP3   OH253968   1.500   3.647  15.728  0.1845 -0.2085 -0.0632
10826TIP3    H153969   1.421   3.630  15.677  0.7577  2.1242 -1.9201
10826TIP3    H253970   1.468   3.666  15.816 -1.2119 -0.4296 -0.5038
10827TIP3   OH253971   5.492   6.518   6.223 -0.2220  0.2503  0.8865
10827TIP3    H153972   5.440   6.440   6.243  0.7132 -0.6324  0.0337
10827TIP3    H253973   5.488   6.571   6.303 -2.0113  0.0049  1.0076
10828TIP3   OH253974   4.568   2.049  17.132 -0.1423  0.1207 -0.2913
10828TIP3    H153975   4.557   2.138  17.166 -1.7256 -0.1641  0.0263
10828TIP3    H253976   4.485   2.006  17.151 -0.4906 -0.5826 -3.0205
10829TIP3   OH253977   2.713   2.025  12.166 -0.1137 -0.8794 -0.4710
10829TIP3    H153978   2.788   2.084  12.157  1.2080 -2.1129  1.6858
10829TIP3    H253979   2.654   2.071  12.225 -1.0477  0.0030 -2.0122
10830TIP3   OH253980   5.016   2.775   3.596  0.1348  0.0966 -0.6986
10830TIP3    H153981   4.997   2.684   3.570 -0.5695  0.0252  0.0243
10830TIP3    H253982   5.037   2.769   3.689  1.0342  0.5558 -0.8661
10831TIP3   OH253983   1.543   4.457  15.354 -0.1349 -0.6716  0.7883
10831TIP3    H153984   1.531   4.432  15.262 -1.4827 -2.4476  1.3803
10831TIP3    H253985   1.494   4.539  15.363  0.1090 -0.4144 -0.0972
10832TIP3   OH253986   0.898   0.954  14.535 -0.1945 -0.2241  0.0437
10832TIP3    H153987   0.978   0.902  14.533 -0.2454 -0.3043 -2.2984
10832TIP3    H253988   0.832   0.896  14.574  0.3470 -0.9744 -0.1440
10833TIP3   OH253989   4.323   6.199   5.811 -0.3454  0.3677 -0.9664
10833TIP3    H153990   4.349   6.286   5.840 -0.2383 -0.5083  1.7708
10833TIP3    H253991   4.375   6.184   5.732  0.7814  2.1523 -0.6182
10834TIP3   OH253992   4.664   2.075  12.840 -0.3344 -0.0960 -1.0082
10834TIP3    H153993   4.686   2.167  12.857 -0.8343 -0.2143  0.3961
10834TIP3    H253994   4.728   2.026  12.892 -2.1980 -0.4707  1.0854
10835TIP3   OH253995   4.257   5.985  11.297 -0.7397 -0.3698 -0.2243
10835TIP3    H153996   4.271   6.039  11.374 -1.2924 -1.8577  0.9665
10835TIP3    H253997   4.162   5.973  11.292 -0.5902 -1.9169  0.0717
10836TIP3   OH253998   6.115   6.453  11.117 -0.0599 -0.6219 -0.5892
10836TIP3    H153999   6.190   6.512  11.127 -0.6678  0.0604  0.0905
10836TIP3    H254000   6.072   6.482  11.036 -0.5169  0.0657 -0.1086
10837TIP3   OH254001   2.226   3.311   1.076 -0.3494 -0.3850  0.0908
10837TIP3    H154002   2.274   3.308   0.993 -2.1960  2.2422 -1.2250
10837TIP3    H254003   2.292   3.293   1.143  1.3191 -2.0022 -1.8797
10838TIP3   OH254004   1.148   2.028   5.589  0.3366 -0.1531 -0.1689
10838TIP3    H154005   1.196   2.111   5.595 -0.2411  0.1870 -0.1713
10838TIP3    H254006   1.180   1.988   5.509 -1.2786  1.3177 -1.6429
10839TIP3   OH254007   6.580   1.977  11.635  0.2883  0.0219  0.2168
10839TIP3    H154008   6.644   1.960  11.565  1.4465 -0.5178  1.3757
10839TIP3    H254009   6.573   2.072  11.638 -0.5841  0.0352 -1.3297
10840TIP3   OH254010   2.790   0.928  14.789 -0.1113  0.3667  0.2575
10840TIP3    H154011   2.695   0.928  14.783 -0.0007  0.4315 -3.0940
10840TIP3    H254012   2.815   0.836  14.781  0.1361  0.5954 -2.5049
10841TIP3   OH254013   1.430   2.902   4.000 -0.6335  0.5052 -0.7417
10841TIP3    H154014   1.391   2.965   4.061  0.9084  2.1493 -1.3584
10841TIP3    H254015   1.513   2.877   4.041 -0.6043 -0.0671 -1.1376
10842TIP3   OH254016   1.704   1.477  11.512  0.4690 -0.2357 -0.0029
10842TIP3    H154017   1.719   1.572  11.514  0.1939 -0.1897 -0.1584
10842TIP3    H254018   1.790   1.439  11.533  0.4458  0.0557  0.6135
10843TIP3   OH254019   6.237   1.651  12.697 -0.5430  0.2085  0.3937
10843TIP3    H154020   6.194   1.692  12.772  2.0631 -0.6485  2.5170
10843TIP3    H254021   6.220   1.557  12.707 -1.3023  0.1650 -0.9388
10844TIP3   OH254022   3.126   2.717   5.579 -0.0629  0.5125 -0.3089
10844TIP3    H154023   3.093   2.668   5.504  1.6789  0.1253 -0.8657
10844TIP3    H254024   3.167   2.795   5.542  2.0829 -0.3709  0.0367
10845TIP3   OH254025   1.702   2.736  15.459 -0.4801  0.0893  0.0164
10845TIP3    H154026   1.693   2.654  15.410 -0.1366  0.8539 -1.3541
10845TIP3    H254027   1.793   2.763  15.444 -0.4773  0.5353  0.7771
10846TIP3   OH254028   1.968   6.476   4.643 -0.7596 -0.2440  0.0375
10846TIP3    H154029   2.029   6.422   4.694 -0.7728  0.4177  0.7718
10846TIP3    H254030   2.001   6.565   4.654 -1.6541  0.0788  0.1629
10847TIP3   OH254031   0.278   5.540   2.100  0.3606 -0.4444 -0.0407
10847TIP3    H154032   0.254   5.487   2.176  0.9559 -0.1122  0.3909
10847TIP3    H254033   0.363   5.579   2.123 -0.8648  2.1918  0.4604
10848TIP3   OH254034   0.663   6.688   2.579  0.2789 -0.2179  0.6794
10848TIP3    H154035   0.634   6.734   2.659  0.4171  0.9451  0.0885
10848TIP3    H254036   0.582   6.653   2.541  0.0930  0.0067  0.8633
10849TIP3   OH254037   5.709   5.476   5.797  0.7316  0.2930 -0.2399
10849TIP3    H154038   5.716   5.516   5.710 -0.3669  0.7309 -0.1396
10849TIP3    H254039   5.767   5.400   5.793 -0.2091 -0.3915 -1.7693
10850TIP3   OH254040   4.028   1.138   1.094 -0.3234  0.2591  0.0392
10850TIP3    H154041   4.121   1.130   1.114 -0.8605 -3.1163  2.1443
10850TIP3    H254042   3.992   1.184   1.170 -0.4821  0.8019 -0.3657
10851TIP3   OH254043   2.234   0.620  14.637 -0.1919  0.6013 -0.2622
10851TIP3    H154044   2.145   0.586  14.625  1.2173 -3.4489 -0.7683
10851TIP3    H254045   2.263   0.643  14.548 -0.4065  1.1124 -0.2060
10852TIP3   OH254046   6.260   1.199   5.508 -0.3141 -0.3928 -0.0634
10852TIP3    H154047   6.231   1.277   5.459  2.2125  0.4559 -0.3241
10852TIP3    H254048   6.226   1.125   5.457 -0.7418  0.5064 -1.1262
10853TIP3   OH254049   2.039   2.737   0.566  0.5302  0.0767 -0.0497
10853TIP3    H154050   1.995   2.822   0.568 -0.3704 -0.3751 -0.1003
10853TIP3    H254051   2.062   2.720   0.657 -0.3941 -0.1793  0.1452
10854TIP3   OH254052   1.591   0.449  12.564  0.2638  0.4572  0.1296
10854TIP3    H154053   1.597   0.526  12.508 -0.1329 -0.7805 -1.6965
10854TIP3    H254054   1.681   0.415  12.567  0.5047  1.1462  1.2122
10855TIP3   OH254055   2.928   6.608   3.033  0.4923 -1.1118  0.2138
10855TIP3    H154056   2.958   6.668   2.964  1.0892 -1.1201  0.4656
10855TIP3    H254057   2.923   6.662   3.112  0.4309 -1.2527  0.3060
10856TIP3   OH254058   3.981   1.905   3.944  0.5046 -0.1380 -0.6383
10856TIP3    H154059   3.896   1.936   3.976  1.4771  1.4957  0.4938
10856TIP3    H254060   4.006   1.968   3.876  2.4092  1.6147  1.5394
10857TIP3   OH254061   6.592   5.567  16.873  0.3169 -0.7842  0.2637
10857TIP3    H154062   6.633   5.492  16.917  0.0602 -1.2968 -0.3508
10857TIP3    H254063   6.537   5.528  16.805 -0.1511 -0.0488  0.2104
10858TIP3   OH254064   0.152   3.482   1.654  0.3533  0.1330 -0.2787
10858TIP3    H154065   0.101   3.418   1.704  0.3368  0.2965 -0.0844
10858TIP3    H254066   0.160   3.557   1.713 -0.7207  0.8082 -0.9720
10859TIP3   OH254067   4.275   6.681   0.253  0.3796  0.6359  0.3035
10859TIP3    H154068   4.363   6.709   0.278  0.0405  1.3651  0.7097
10859TIP3    H254069   4.286   6.640   0.168  1.1766  0.3480  0.5362
10860TIP3   OH254070   4.178   5.936  16.628 -0.3678  0.0478  0.4431
10860TIP3    H154071   4.086   5.929  16.654 -0.4886  1.1422  0.3550
10860TIP3    H254072   4.190   6.029  16.606  0.6912 -0.1315  0.2045
10861TIP3   OH254073   5.414   2.636  12.493 -0.4140  0.1509 -0.4836
10861TIP3    H154074   5.331   2.674  12.523 -1.1850 -1.0115 -1.1001
10861TIP3    H254075   5.478   2.706  12.507 -1.2945  0.7237  0.9584
10862TIP3   OH254076   4.870   2.607  13.634  0.0026  0.4681  0.2326
10862TIP3    H154077   4.854   2.696  13.604 -0.4309  0.5682  0.7517
10862TIP3    H254078   4.841   2.552  13.561  1.8207  0.7691 -0.7892
10863TIP3   OH254079   5.013   1.772  12.039 -0.3413  0.1903  0.6150
10863TIP3    H154080   5.037   1.740  11.952 -0.6665 -0.4763  0.7656
10863TIP3    H254081   4.920   1.794  12.032 -0.8691 -1.6341  1.2719
10864TIP3   OH254082   1.317   5.645  15.152  0.5439 -0.3755 -0.1308
10864TIP3    H154083   1.360   5.707  15.210 -1.8235  0.5300  0.8001
10864TIP3    H254084   1.325   5.561  15.196 -1.3030  0.3164  1.6623
10865TIP3   OH254085   3.724   2.762   5.195  0.0081 -0.2246 -0.2237
10865TIP3    H154086   3.731   2.824   5.268 -1.6186 -0.5911  0.2815
10865TIP3    H254087   3.637   2.778   5.158  0.2474 -1.0268 -1.1876
10866TIP3   OH254088   4.410   4.334  16.047  0.5016 -0.1194 -0.6796
10866TIP3    H154089   4.501   4.364  16.036  0.2378  0.5416 -1.1717
10866TIP3    H254090   4.357   4.410  16.022 -0.1876 -0.2305  0.3994
10867TIP3   OH254091   1.089   1.226  14.108 -0.2438 -0.4323 -0.0984
10867TIP3    H154092   1.070   1.180  14.190  0.2588 -1.4657 -0.5373
10867TIP3    H254093   1.007   1.272  14.087 -0.1659  0.4098  1.3142
10868TIP3   OH254094   1.147   5.618  12.027 -0.1633  0.1139  0.0948
10868TIP3    H154095   1.092   5.545  12.057  0.0046 -1.4063 -2.8890
10868TIP3    H254096   1.230   5.605  12.073  0.4105 -2.6563 -1.4783
10869TIP3   OH254097   5.636   1.133  12.072 -0.1960 -0.4307  0.2181
10869TIP3    H154098   5.707   1.109  12.132 -0.5391 -1.7989  0.1137
10869TIP3    H254099   5.564   1.076  12.097  0.1609 -2.2950 -2.5134
10870TIP3   OH254100   1.762   5.865   4.568  0.3127 -0.0174  0.2739
10870TIP3    H154101   1.728   5.931   4.507 -2.2571 -0.2590  1.2871
10870TIP3    H254102   1.821   5.914   4.626 -1.4583  1.4674  0.9465
10871TIP3   OH254103   5.781   5.951   1.622 -0.2002  0.2024  0.1167
10871TIP3    H154104   5.774   5.949   1.718 -1.2389 -0.5290  0.0417
10871TIP3    H254105   5.816   5.865   1.599 -0.9616 -0.0172 -0.2273
10872TIP3   OH254106   0.689   3.338   2.141 -0.5968 -0.3839 -0.0536
10872TIP3    H154107   0.679   3.373   2.053  0.5510  1.9645  0.6726
10872TIP3    H254108   0.781   3.314   2.148  0.2636  2.8738  1.5538
10873TIP3   OH254109   5.194   4.017   0.014 -0.6063 -0.4903 -0.1165
10873TIP3    H154110   5.249   3.991  -0.060 -1.1926  2.3209 -1.6962
10873TIP3    H254111   5.255   4.032   0.086  0.3383 -0.4768 -0.8954
10874TIP3   OH254112   0.611   5.899  13.090 -0.3957  0.4340 -0.1393
10874TIP3    H154113   0.563   5.950  13.156 -3.0784 -0.9165 -0.9111
10874TIP3    H254114   0.601   5.949  13.009  1.4665  1.2398  0.0779
10875TIP3   OH254115   2.742   2.496   0.373 -0.4225 -0.1270  0.0655
10875TIP3    H154116   2.693   2.451   0.442 -0.5780 -1.3178 -0.7907
10875TIP3    H254117   2.765   2.581   0.411 -0.5507 -0.7354  1.5494
10876TIP3   OH254118   2.171   3.118  11.021 -0.1183  0.1383  0.3734
10876TIP3    H154119   2.124   3.153  10.945 -0.5393  1.6741  1.3047
10876TIP3    H254120   2.122   3.038  11.043  0.7318 -1.0416 -1.6526
10877TIP3   OH254121   3.083   0.029  13.246 -0.2694 -0.5676 -0.0286
10877TIP3    H154122   3.031  -0.013  13.315 -0.9865  0.3654  0.0189
10877TIP3    H254123   3.022   0.091  13.205  0.3012 -0.7300 -1.1521
10878TIP3   OH254124   2.803   3.095  16.693 -0.3230  0.3150 -0.3895
10878TIP3    H154125   2.746   3.035  16.645 -0.4489  1.4262 -1.7033
10878TIP3    H254126   2.758   3.110  16.776 -1.1206 -0.1110 -0.7361
10879TIP3   OH254127   5.850   1.850   2.356 -0.2979 -0.1427  0.0596
10879TIP3    H154128   5.812   1.900   2.284  1.3009  1.5341  0.2963
10879TIP3    H254129   5.788   1.860   2.428 -0.2119  1.2182 -0.0297
10880TIP3   OH254130   4.672   3.534  11.364 -0.1009 -0.4451 -0.1460
10880TIP3    H154131   4.608   3.598  11.332 -1.3850 -0.2024  2.6627
10880TIP3    H254132   4.749   3.549  11.310 -1.2872  1.5646 -1.4258
10881TIP3   OH254133   3.108   3.548   5.108  0.0208 -0.4095  0.0536
10881TIP3    H154134   3.155   3.479   5.154  1.1166  2.1054  3.1215
10881TIP3    H254135   3.176   3.598   5.063 -0.4334  0.1149 -0.0602
10882TIP3   OH254136   5.898   4.755   5.766 -0.2988 -0.0740 -0.3772
10882TIP3    H154137   5.925   4.831   5.818  0.0801  0.0814 -0.7990
10882TIP3    H254138   5.805   4.744   5.787 -0.7114  1.3298 -1.3366
10883TIP3   OH254139   4.595   0.195  16.249  0.1674 -0.2365 -0.2566
10883TIP3    H154140   4.529   0.200  16.318  1.0572  1.8281  0.5139
10883TIP3    H254141   4.572   0.115  16.200 -3.6821  1.0083 -0.8345
10884TIP3   OH254142   5.188   1.393  14.235 -0.2671  0.4226 -0.3688
10884TIP3    H154143   5.254   1.420  14.299 -0.5620  1.1245 -0.3547
10884TIP3    H254144   5.119   1.352  14.287  0.2483 -0.5253 -0.4032
10885TIP3   OH254145   2.343   6.820  11.132  0.2134  0.3839 -0.7130
10885TIP3    H154146   2.366   6.913  11.124  0.2821  0.3773 -0.5990
10885TIP3    H254147   2.385   6.778  11.057  1.5599  0.1862  0.1090
10886TIP3   OH254148   4.682   3.305   2.193  0.5732 -0.2509  0.0745
10886TIP3    H154149   4.690   3.397   2.171  0.3804 -0.0365  0.8482
10886TIP3    H254150   4.702   3.301   2.287 -0.7004 -0.7859  0.3553
10887TIP3   OH254151   6.423   2.139  16.012 -0.1521  0.1071 -0.5625
10887TIP3    H154152   6.496   2.090  15.973  2.2648  1.1231  2.2097
10887TIP3    H254153   6.407   2.094  16.095  0.2643  2.2684  0.7803
10888TIP3   OH254154   1.731   1.722  16.964 -0.2119 -0.5427  0.3977
10888TIP3    H154155   1.803   1.667  16.932  0.1020 -0.4003  0.8633
10888TIP3    H254156   1.757   1.811  16.941 -0.0722 -0.4571  0.8900
10889TIP3   OH254157   1.775   5.485  11.771  0.1714  0.1672 -0.1236
10889TIP3    H154158   1.770   5.488  11.676  0.8515  1.6917 -0.1360
10889TIP3    H254159   1.701   5.537  11.801  0.6284  0.6708  0.1515
10890TIP3   OH254160   5.426   0.400  16.936 -0.4411  0.3523  0.8534
10890TIP3    H154161   5.518   0.425  16.942 -1.0208  2.2119  3.7864
10890TIP3    H254162   5.413   0.335  17.005 -1.1172 -0.9415 -0.4128
10891TIP3   OH254163   0.926   2.171  12.645  0.4936  0.2940 -0.1921
10891TIP3    H154164   0.882   2.087  12.654  0.4686  0.4341  1.2509
10891TIP3    H254165   0.882   2.214  12.572  0.5462 -0.9559 -0.9830
10892TIP3   OH254166   0.748   2.389   5.429  1.3001  0.8602  0.1448
10892TIP3    H154167   0.668   2.369   5.379  2.3741  1.8931 -2.1447
10892TIP3    H254168   0.733   2.477   5.464  0.1270 -0.2620  2.6672
10893TIP3   OH254169   0.562   2.846  13.719 -0.1844  0.2217  0.4193
10893TIP3    H154170   0.504   2.785  13.765 -0.0958  0.3466  0.6942
10893TIP3    H254171   0.545   2.828  13.626  0.3814 -0.7320  0.4869
10894TIP3   OH254172   4.581   6.760   4.921  0.0100  0.4087 -0.5765
10894TIP3    H154173   4.491   6.789   4.935  1.0043  2.2747  3.1585
10894TIP3    H254174   4.587   6.676   4.966  0.0978  0.1178 -1.1148
10895TIP3   OH254175   6.288   2.853   4.393  0.3991  0.2680  0.5143
10895TIP3    H154176   6.380   2.863   4.370  0.1879  0.3312 -0.3236
10895TIP3    H254177   6.281   2.764   4.428  0.7254  0.1798  0.3538
10896TIP3   OH254178   2.733   5.136  16.742 -0.2959  0.2061  0.2468
10896TIP3    H154179   2.688   5.055  16.765  0.6160 -0.4746 -0.2991
10896TIP3    H254180   2.818   5.108  16.709  0.5275  1.4550  1.2057
10897TIP3   OH254181   2.627   4.045  11.166 -0.1201  0.1870 -0.2552
10897TIP3    H154182   2.696   4.050  11.099  1.0591  0.3955  0.9332
10897TIP3    H254183   2.561   4.107  11.137  1.1278  1.4881 -0.4217
10898TIP3   OH254184   2.242   4.067   3.013 -0.8685 -0.2016  0.0822
10898TIP3    H154185   2.199   4.061   3.098  0.3603  0.6482  0.8032
10898TIP3    H254186   2.208   4.148   2.974 -2.5180 -1.3220 -0.9060
10899TIP3   OH254187   4.430   5.767  15.148 -0.0125  0.1296 -0.1902
10899TIP3    H154188   4.376   5.846  15.151  0.0136  0.1178  0.9320
10899TIP3    H254189   4.498   5.782  15.214 -0.1653 -0.9376  0.2314
10900TIP3   OH254190   5.115   5.740   3.018  0.3235 -0.0524  0.0521
10900TIP3    H154191   5.169   5.809   3.058 -0.1916  0.3117  0.1285
10900TIP3    H254192   5.089   5.685   3.091  1.6606 -0.9893 -0.1522
10901TIP3   OH254193   0.098   2.153   5.431 -0.5661 -0.3478 -0.0693
10901TIP3    H154194   0.077   2.186   5.344 -1.4265 -1.2388 -0.2109
10901TIP3    H254195   0.140   2.228   5.475  1.4996 -0.3899 -1.7921
10902TIP3   OH254196   3.486   6.791   3.232  0.5755 -0.5722  0.6443
10902TIP3    H154197   3.411   6.803   3.289  1.4218  2.4272  1.2751
10902TIP3    H254198   3.528   6.711   3.264 -0.3697 -0.3489  2.5407
10903TIP3   OH254199   6.666   3.072   1.037  0.1627  0.6259 -0.5458
10903TIP3    H154200   6.622   3.061   0.953  0.3258 -2.0356 -0.3497
10903TIP3    H254201   6.598   3.055   1.102  0.5060  0.6947 -0.1673
10904TIP3   OH254202   0.914   5.235   4.512 -0.1056  0.0343 -0.3638
10904TIP3    H154203   0.833   5.184   4.526  0.4835 -0.7386  0.3416
10904TIP3    H254204   0.964   5.223   4.592  0.6498  0.6375 -0.7307
10905TIP3   OH254205   0.037   6.695   3.409 -0.1794  0.2851  0.0653
10905TIP3    H154206  -0.050   6.659   3.389 -1.1731  2.1638  0.8187
10905TIP3    H254207   0.020   6.779   3.450  1.9853 -0.0466  1.8449
10906TIP3   OH254208   0.867   5.737   1.804  0.3082  0.1553  0.3680
10906TIP3    H154209   0.862   5.719   1.710  2.7691  0.7325  0.0804
10906TIP3    H254210   0.893   5.828   1.810  0.3068  0.0834  1.6192
10907TIP3   OH254211   1.581   3.387  16.287 -0.4529 -0.3777 -0.2947
10907TIP3    H154212   1.587   3.354  16.377 -1.1615  1.3168  0.4210
10907TIP3    H254213   1.496   3.356  16.255  0.9668 -3.4043 -1.4850
10908TIP3   OH254214   2.045   4.878  13.569 -0.0027 -0.6905  0.2281
10908TIP3    H154215   2.001   4.834  13.497 -0.0449 -1.2883  0.6067
10908TIP3    H254216   2.050   4.970  13.543 -2.3347 -0.4186  0.6035
10909TIP3   OH254217   0.708   0.469  11.109 -0.2038 -0.0778  0.4106
10909TIP3    H154218   0.681   0.415  11.184  0.6742 -1.0490  0.0498
10909TIP3    H254219   0.735   0.552  11.148 -0.0673 -0.4526  1.1437
10910TIP3   OH254220   1.401   6.680   2.396  0.1719  0.2927 -0.2847
10910TIP3    H154221   1.350   6.645   2.468  1.9363 -0.3250  0.7209
10910TIP3    H254222   1.428   6.603   2.345  0.0882  0.6125 -0.8275
10911TIP3   OH254223   3.975   2.342  11.676  0.1544  0.0378 -0.3203
10911TIP3    H154224   3.922   2.265  11.694  0.2787 -0.0466 -0.3164
10911TIP3    H254225   3.985   2.385  11.762  0.5193 -0.2199 -0.2316
10912TIP3   OH254226   5.408   0.440   1.093 -0.1153 -0.0784  0.4151
10912TIP3    H154227   5.483   0.485   1.054 -0.5182  0.5543  0.3642
10912TIP3    H254228   5.359   0.405   1.018  0.7517 -1.5300  0.4891
10913TIP3   OH254229   1.644   3.578   2.390  0.0082 -0.5240 -0.4416
10913TIP3    H154230   1.706   3.597   2.320 -0.7252 -1.9908 -1.5261
10913TIP3    H254231   1.611   3.491   2.370 -0.7455 -0.6906  1.3550
10914TIP3   OH254232   6.306   3.791   1.282  0.0664  0.0164  0.8801
10914TIP3    H154233   6.233   3.799   1.343 -0.7803  0.5196 -0.1543
10914TIP3    H254234   6.351   3.710   1.307 -0.4458  0.0561  1.9512
10915TIP3   OH254235   3.264   3.124  16.662  0.4678  0.4031  0.0286
10915TIP3    H154236   3.292   3.145  16.573 -1.7485  0.8501 -0.6286
10915TIP3    H254237   3.251   3.029  16.662  1.9886  0.1672  0.3881
10916TIP3   OH254238   2.632   6.535   1.282 -0.2812  0.1296  0.5916
10916TIP3    H154239   2.658   6.445   1.261 -2.5527 -0.2668 -0.8918
10916TIP3    H254240   2.644   6.583   1.200 -0.9018  0.7036  0.8296
10917TIP3   OH254241   5.152   1.039  11.447 -0.0156  0.0552  0.1716
10917TIP3    H154242   5.234   0.990  11.455  0.7471  1.3741  0.8837
10917TIP3    H254243   5.092   0.979  11.403  0.8242 -1.5558  1.1250
10918TIP3   OH254244   3.569   4.562  15.457 -0.6915  0.2626  0.1497
10918TIP3    H154245   3.628   4.593  15.527  0.5849  0.1490 -0.8390
10918TIP3    H254246   3.572   4.467  15.464  2.0081  0.0611 -1.9860
10919TIP3   OH254247   5.184   3.230  13.858  0.2662 -0.4061 -0.0558
10919TIP3    H154248   5.155   3.140  13.867 -1.5200  0.1835  0.4977
10919TIP3    H254249   5.140   3.277  13.929  1.3048  0.8829 -0.2128
10920TIP3   OH254250   5.427   6.236  12.588 -0.2657 -0.4178 -0.1138
10920TIP3    H154251   5.418   6.284  12.505 -0.7434 -0.6277 -0.1931
10920TIP3    H254252   5.483   6.162  12.566  1.8627  0.9608  0.3986
10921TIP3   OH254253   5.289   2.179  14.392 -0.4140 -1.1523 -0.1622
10921TIP3    H154254   5.337   2.262  14.382 -1.7849 -0.2170  0.6092
10921TIP3    H254255   5.322   2.124  14.321  0.0322  0.3149 -1.1560
10922TIP3   OH254256   0.042   6.617  16.111 -0.1164 -0.1418  0.0594
10922TIP3    H154257  -0.009   6.549  16.067 -1.8702  0.5979  0.8707
10922TIP3    H254258   0.067   6.576  16.194  2.1820 -1.1129 -1.0109
10923TIP3   OH254259   2.168   4.644  16.834  0.0795  0.2036 -0.0215
10923TIP3    H154260   2.091   4.658  16.889 -0.9185 -0.1083 -1.2888
10923TIP3    H254261   2.201   4.732  16.815 -0.2412  0.3626  0.1579
10924TIP3   OH254262   3.009   5.818   5.153  0.1426  0.3594  0.1973
10924TIP3    H154263   2.973   5.757   5.089 -1.4740  0.1247  1.2790
10924TIP3    H254264   3.000   5.773   5.237 -1.4093  2.1814  1.0683
10925TIP3   OH254265   3.314   4.439  12.528 -0.2104 -0.3852 -1.0130
10925TIP3    H154266   3.245   4.374  12.536  0.4063 -0.8281  1.4903
10925TIP3    H254267   3.394   4.393  12.553  0.3483  1.1000  0.1039
10926TIP3   OH254268   3.434   0.306   1.492 -0.3780 -0.0315 -0.8990
10926TIP3    H154269   3.407   0.395   1.514 -1.6649 -0.7757  0.7626
10926TIP3    H254270   3.530   0.308   1.499 -0.5113  0.6334  1.7802
10927TIP3   OH254271   4.986   6.372  12.619  0.2208  0.7775  0.3117
10927TIP3    H154272   4.932   6.417  12.554  1.1787 -1.3468 -2.1696
10927TIP3    H254273   4.997   6.283  12.583  1.0190 -0.4630  3.3276
10928TIP3   OH254274   5.352   2.769  13.137  0.6198  0.8332  0.6808
10928TIP3    H154275   5.258   2.771  13.121  0.6611 -0.8257  0.0477
10928TIP3    H254276   5.383   2.855  13.109 -0.4500  0.7388 -0.8814
10929TIP3   OH254277   6.174   4.852  15.778 -0.3660  0.4826  0.2022
10929TIP3    H154278   6.185   4.829  15.871  0.1188  1.5271  0.4247
10929TIP3    H254279   6.216   4.938  15.770  0.3540  0.0418 -1.1669
10930TIP3   OH254280   3.743   5.236   2.162 -0.0255 -0.5106  0.0675
10930TIP3    H154281   3.817   5.177   2.144 -2.4631 -4.2393  1.2129
10930TIP3    H254282   3.665   5.183   2.145 -2.4974  2.6637  0.5982
10931TIP3   OH254283   4.345   5.229  14.972  0.2367 -0.1006  0.0508
10931TIP3    H154284   4.292   5.308  14.977 -2.1726 -1.6690  1.2883
10931TIP3    H254285   4.324   5.190  14.887  0.0000 -0.3463  0.2227
10932TIP3   OH254286   5.485   3.077  16.140 -0.0450 -0.3453  0.2176
10932TIP3    H154287   5.560   3.124  16.102 -0.1448  1.0906  1.6804
10932TIP3    H254288   5.521   3.036  16.219 -1.1841  2.1598  2.1494
10933TIP3   OH254289   0.883   1.228  14.597  0.3300 -0.3077  0.2796
10933TIP3    H154290   0.791   1.234  14.624  0.4517  1.3848  0.4353
10933TIP3    H254291   0.894   1.137  14.570 -1.1622 -0.7561  1.0590
10934TIP3   OH254292   5.769   2.909  11.562 -0.4815 -0.0243 -0.0109
10934TIP3    H154293   5.814   2.974  11.508  0.0342  0.2062  0.6837
10934TIP3    H254294   5.816   2.827  11.545  0.8779  0.4020  1.4556
10935TIP3   OH254295   3.731   6.511  10.945 -0.0095  0.3301 -0.0782
10935TIP3    H154296   3.805   6.450  10.951  0.2907  0.7590  0.7660
10935TIP3    H254297   3.686   6.502  11.029 -1.2362 -0.3051 -0.7767
10936TIP3   OH254298   4.777   0.294   3.067  0.0452 -0.0974 -0.7951
10936TIP3    H154299   4.744   0.218   3.116  0.3293  0.2350 -0.0659
10936TIP3    H254300   4.719   0.301   2.991  0.0965 -1.1193 -0.9425
10937TIP3   OH254301   5.851   2.714   2.255  0.1195  0.3505  0.4034
10937TIP3    H154302   5.885   2.699   2.343 -0.3091  2.7377  1.0329
10937TIP3    H254303   5.756   2.702   2.264  0.1417 -0.1149  0.0783
10938TIP3   OH254304   1.147   1.827   1.392  0.7262 -0.1760 -0.1973
10938TIP3    H154305   1.162   1.741   1.431  0.3317 -0.1371  0.0482
10938TIP3    H254306   1.150   1.887   1.467 -0.5031 -0.1496 -0.1519
10939TIP3   OH254307   0.614   2.881  11.119  0.2365 -0.1099  0.5646
10939TIP3    H154308   0.680   2.831  11.071 -0.2315 -0.6390  0.4622
10939TIP3    H254309   0.564   2.926  11.050 -0.6676 -1.1540  0.5008
10940TIP3   OH254310   3.371   1.332   5.697 -0.3422  0.0746 -0.1959
10940TIP3    H154311   3.304   1.327   5.765 -0.0402 -0.5314  0.0543
10940TIP3    H254312   3.454   1.337   5.744 -0.1675  0.1861 -0.5116
10941TIP3   OH254313   3.930   5.077  16.190  0.6134 -0.1008 -0.5022
10941TIP3    H154314   3.915   5.020  16.116 -1.5768  0.2962 -0.4195
10941TIP3    H254315   3.949   5.018  16.263  0.4276 -0.5983 -0.8565
10942TIP3   OH254316   0.933   1.864   3.089  0.0783  0.4969 -0.6133
10942TIP3    H154317   0.842   1.849   3.064  0.3641 -0.8554 -0.9042
10942TIP3    H254318   0.945   1.811   3.167  0.3294  1.5447  0.0845
10943TIP3   OH254319   0.834   0.116   5.611  0.2336 -0.0208 -0.7545
10943TIP3    H154320   0.829   0.025   5.641  0.5867  0.1003 -0.3136
10943TIP3    H254321   0.923   0.144   5.632 -0.0628  0.6228 -0.2890
10944TIP3   OH254322   6.527   4.228   2.491 -0.0339  0.3223 -0.5203
10944TIP3    H154323   6.619   4.209   2.509 -0.1045 -0.3266 -0.8225
10944TIP3    H254324   6.484   4.217   2.576 -0.1368 -1.3192 -0.7622
10945TIP3   OH254325   4.656   1.773  11.142 -0.1882  0.5983  0.5122
10945TIP3    H154326   4.722   1.843  11.141  0.5593 -0.0966  0.0579
10945TIP3    H254327   4.646   1.751  11.235  1.4722 -0.4139  0.5000
10946TIP3   OH254328   3.193   3.894  11.815 -1.0092  0.0459 -0.3193
10946TIP3    H154329   3.182   3.952  11.890 -1.7914 -1.7249  1.0278
10946TIP3    H254330   3.104   3.870  11.790 -0.7036 -1.2417 -0.2485
10947TIP3   OH254331   5.494   3.623  12.244  0.1483 -0.0012  0.6175
10947TIP3    H154332   5.434   3.671  12.187  0.7261 -1.2126 -1.0519
10947TIP3    H254333   5.580   3.632  12.202  0.3529 -2.0877  0.4831
10948TIP3   OH254334   0.643   6.545  14.639 -0.3938 -0.3823 -0.3060
10948TIP3    H154335   0.554   6.511  14.627 -0.8535 -0.4709  2.6664
10948TIP3    H254336   0.632   6.639  14.649 -0.2535 -0.4692  0.7268
10949TIP3   OH254337   4.694   6.504   4.988 -0.0529 -0.2127  0.1608
10949TIP3    H154338   4.667   6.417   5.017  0.5997  0.2036  2.2253
10949TIP3    H254339   4.790   6.499   4.981  0.1302  0.6454  1.6018
10950TIP3   OH254340   0.672   5.134  14.144  0.1044 -0.7122  0.0901
10950TIP3    H154341   0.752   5.086  14.122  0.9190  0.8405 -0.5084
10950TIP3    H254342   0.636   5.160  14.059  0.5143  0.9841  0.4061
10951TIP3   OH254343   1.859   1.067  14.075 -0.2616  0.0859 -0.2616
10951TIP3    H154344   1.942   1.102  14.105 -0.3184  0.4455 -0.5236
10951TIP3    H254345   1.882   1.001  14.010 -0.0696 -1.7253  1.5518
10952TIP3   OH254346   0.895   0.786  16.949 -0.2401  0.3848 -0.4266
10952TIP3    H154347   0.959   0.854  16.926  0.3605 -0.3795 -1.1052
10952TIP3    H254348   0.879   0.799  17.042 -1.2535  2.3553 -0.8201
10953TIP3   OH254349   3.260   4.513   6.471 -0.6986  0.6561 -0.1702
10953TIP3    H154350   3.283   4.441   6.530 -0.2857  0.5811 -0.4154
10953TIP3    H254351   3.317   4.500   6.395 -2.8090 -0.5867 -1.6323
10954TIP3   OH254352   1.009   5.967   1.560 -0.7291  0.3635  0.0676
10954TIP3    H154353   1.069   6.003   1.495  0.3745  0.0930  0.9127
10954TIP3    H254354   1.025   6.020   1.639 -0.9373 -0.3006  0.5685
10955TIP3   OH254355   6.337   5.921   4.225  0.0978 -0.0445  0.1540
10955TIP3    H154356   6.345   5.833   4.188 -0.0161 -1.3053  2.8615
10955TIP3    H254357   6.244   5.942   4.218 -0.7641 -2.1140  3.3112
10956TIP3   OH254358   5.022   6.597  14.821 -0.8104  0.6826  0.3200
10956TIP3    H154359   5.100   6.558  14.781  0.0449  1.7986  0.8254
10956TIP3    H254360   4.986   6.527  14.875 -0.4174  0.0063 -0.2741
10957TIP3   OH254361   1.533   3.364  13.150 -0.3505 -0.3221 -0.4661
10957TIP3    H154362   1.557   3.306  13.223  0.8898 -0.1071 -0.6680
10957TIP3    H254363   1.617   3.395  13.117 -0.9078 -0.3572 -1.9539
10958TIP3   OH254364   6.406   6.680   5.949  0.5849 -0.4636  0.7149
10958TIP3    H154365   6.390   6.766   5.989  0.8973 -0.8448  1.7061
10958TIP3    H254366   6.383   6.618   6.018 -0.6490 -1.2254 -0.3546
10959TIP3   OH254367   6.041   1.552  10.692  0.2605  0.3432  0.2409
10959TIP3    H154368   6.135   1.563  10.697  0.4634  0.0094 -2.1129
10959TIP3    H254369   6.022   1.535  10.600 -1.8961 -1.4082  0.8986
10960TIP3   OH254370   5.345   3.050   1.843  0.8969  0.2770 -0.0739
10960TIP3    H154371   5.253   3.076   1.843  0.8229  0.4195 -3.2291
10960TIP3    H254372   5.344   2.955   1.830  1.2402  0.0487  1.3568
10961TIP3   OH254373   3.331   3.424  16.880  0.2548  0.0717  0.0362
10961TIP3    H154374   3.381   3.474  16.945 -0.0981 -0.3457  0.6367
10961TIP3    H254375   3.287   3.356  16.931  0.1419 -0.3953 -0.6703
10962TIP3   OH254376   0.648   0.705   2.226 -0.5607  0.5104  0.1822
10962TIP3    H154377   0.677   0.787   2.266  0.7662  0.0125  0.3023
10962TIP3    H254378   0.564   0.726   2.186  0.9648  2.7381 -2.2232
10963TIP3   OH254379   0.488   4.077  16.042  0.9382  0.4036  0.3579
10963TIP3    H154380   0.436   4.046  15.967 -0.2533  1.5830  0.6685
10963TIP3    H254381   0.431   4.066  16.117  2.3359 -1.3261  1.2451
10964TIP3   OH254382   0.444   3.419   3.092 -0.0200  0.3312 -0.6196
10964TIP3    H154383   0.368   3.375   3.131  0.5370  1.8406  2.4615
10964TIP3    H254384   0.410   3.503   3.061  0.4889  1.5191  1.8347
10965TIP3   OH254385   3.687   0.593  16.974 -0.7880  0.4622  0.0158
10965TIP3    H154386   3.652   0.569  16.888 -0.9375  0.0355  0.1911
10965TIP3    H254387   3.695   0.688  16.971 -0.7312  0.4453 -0.4920
10966TIP3   OH254388   3.654   4.377  16.916  0.3487 -0.4067  0.0214
10966TIP3    H154389   3.629   4.466  16.938 -0.2553 -0.5256 -0.1583
10966TIP3    H254390   3.668   4.378  16.821  0.2402 -0.5271  0.0043
10967TIP3   OH254391   2.989   1.949  12.690 -0.0736  0.5594  0.1102
10967TIP3    H154392   2.983   1.952  12.595  3.4279 -0.7979 -0.2958
10967TIP3    H254393   3.004   2.041  12.715  0.0720  0.7935 -0.7855
10968TIP3   OH254394   3.646   3.170   4.553  0.2976 -0.4772  0.0565
10968TIP3    H154395   3.649   3.261   4.582  0.8210 -0.4910  0.0513
10968TIP3    H254396   3.573   3.168   4.490  0.0240 -0.1549  0.3558
10969TIP3   OH254397   1.319   6.283   1.417  0.0377 -0.2531 -0.2944
10969TIP3    H154398   1.249   6.327   1.464 -0.2452 -0.5842 -0.4002
10969TIP3    H254399   1.312   6.191   1.445  0.4813 -0.2716 -0.2390
10970TIP3   OH254400   2.148   4.711   1.889  0.4662  0.2908 -0.2088
10970TIP3    H154401   2.207   4.785   1.875  0.0211  0.6123 -0.3777
10970TIP3    H254402   2.154   4.693   1.983  1.1831  0.0266 -0.2948
10971TIP3   OH254403   2.097   2.554   4.606  0.0567 -0.1278  0.5035
10971TIP3    H154404   2.119   2.506   4.526  0.4769  0.5254  0.2269
10971TIP3    H254405   2.005   2.533   4.622 -0.0902 -0.0762 -0.2733
10972TIP3   OH254406   4.890   0.198   4.562 -0.2901  0.1541 -0.6140
10972TIP3    H154407   4.853   0.256   4.496 -2.0247 -0.2871 -0.0841
10972TIP3    H254408   4.852   0.227   4.645  0.3474 -0.5045 -0.0683
10973TIP3   OH254409   5.047   0.607   5.499  0.0082 -0.0328  0.2829
10973TIP3    H154410   5.037   0.518   5.465 -0.2352  0.3672 -0.7275
10973TIP3    H254411   5.102   0.597   5.577  0.7171 -0.9650 -0.3164
10974TIP3   OH254412   6.578   5.367   5.716 -0.3369  0.1121  0.2244
10974TIP3    H154413   6.533   5.449   5.736 -0.3041 -0.0318  0.9078
10974TIP3    H254414   6.625   5.385   5.634 -1.5923  0.2760 -0.4787
10975TIP3   OH254415   5.720   5.938   1.894 -0.4581 -0.6307 -0.7344
10975TIP3    H154416   5.635   5.978   1.911 -0.5092 -0.4477 -1.3915
10975TIP3    H254417   5.744   5.895   1.976 -0.9430 -0.2394 -0.3860
10976TIP3   OH254418   2.836   3.256   3.959  1.0032  0.1044  0.3681
10976TIP3    H154419   2.741   3.250   3.974  0.9690 -0.8676 -0.1653
10976TIP3    H254420   2.868   3.168   3.977  1.8058  0.4040  0.4448
10977TIP3   OH254421   2.760   1.041  12.267  0.2098  0.1846 -0.1266
10977TIP3    H154422   2.722   1.128  12.260  0.6504  0.3238 -0.9768
10977TIP3    H254423   2.758   1.021  12.360 -1.3885  0.4226 -0.0906
10978TIP3   OH254424   2.417   3.445  15.485 -0.6738  0.3393 -0.2386
10978TIP3    H154425   2.423   3.375  15.550  1.0433 -0.7524 -1.4605
10978TIP3    H254426   2.325   3.443  15.457 -1.1887  0.1247  1.3574
10979TIP3   OH254427   0.220   5.906   2.060  0.4828 -0.0088 -0.4770
10979TIP3    H154428   0.314   5.907   2.042  0.8164 -0.9061  1.0310
10979TIP3    H254429   0.188   5.828   2.015  0.0602  1.3414 -2.6270
10980TIP3   OH254430   4.408   5.169  16.511 -0.3742 -0.4279  0.3416
10980TIP3    H154431   4.377   5.093  16.461 -0.1178 -0.8697  0.8493
10980TIP3    H254432   4.501   5.175  16.490 -0.6788  0.6083 -0.8047
10981TIP3   OH254433   4.306   2.062   3.321 -0.0543  0.3971  0.1200
10981TIP3    H154434   4.229   2.089   3.372 -0.0071 -0.0333  0.4228
10981TIP3    H254435   4.375   2.050   3.386  0.3389  1.0134 -0.1752
10982TIP3   OH254436   5.870   1.015  12.259 -0.0357  0.0706 -0.1480
10982TIP3    H154437   5.876   1.086  12.324 -0.2809 -0.2599  0.2405
10982TIP3    H254438   5.932   0.949  12.289 -2.6558 -1.7069  1.8199
10983TIP3   OH254439   1.336   0.507  13.310 -0.2940 -0.1624 -0.1515
10983TIP3    H154440   1.269   0.439  13.299 -0.0763 -0.1108 -2.1571
10983TIP3    H254441   1.368   0.495  13.400 -1.6622 -1.3978  0.2126
10984TIP3   OH254442   5.332   1.678   0.326  0.0537  0.4670 -0.2519
10984TIP3    H154443   5.240   1.656   0.311 -0.1816  2.2809 -1.7781
10984TIP3    H254444   5.329   1.746   0.394  0.2195  0.8335 -0.6075
10985TIP3   OH254445   2.506   4.126   4.910 -0.4504  0.2877  0.4168
10985TIP3    H154446   2.522   4.056   4.974  0.5542  0.1296  0.0196
10985TIP3    H254447   2.462   4.083   4.837 -0.4731  0.2093  0.4770
10986TIP3   OH254448   5.053   1.350   6.272 -0.1319  0.4408  0.0191
10986TIP3    H154449   5.083   1.337   6.362  1.3059  0.7024 -0.3965
10986TIP3    H254450   5.080   1.439   6.250  0.2794  0.1050 -0.9236
10987TIP3   OH254451   4.211   0.448   3.209  0.0031 -0.4883  0.0472
10987TIP3    H154452   4.128   0.482   3.242  0.0141 -0.5862  0.1745
10987TIP3    H254453   4.245   0.394   3.280  0.0706 -0.6242 -0.0876
10988TIP3   OH254454   6.501   4.535  11.286  0.1239  0.5159 -0.2908
10988TIP3    H154455   6.592   4.553  11.262  0.5683 -2.3005 -1.1247
10988TIP3    H254456   6.469   4.478  11.216 -1.5960 -0.3093  1.1024
10989TIP3   OH254457   2.963   2.549  11.833 -0.3243 -0.5153  0.0522
10989TIP3    H154458   2.915   2.610  11.777 -0.5360 -0.3509  0.4089
10989TIP3    H254459   2.900   2.525  11.902  0.1210 -0.2637  0.5511
10990TIP3   OH254460   0.624   1.493   5.578  0.6272 -0.1309 -0.6318
10990TIP3    H154461   0.695   1.437   5.610  0.0016  0.3477  1.7838
10990TIP3    H254462   0.633   1.574   5.627 -1.0629  0.2774 -0.9229
10991TIP3   OH254463   3.054   1.482  12.503  0.2553 -0.2065  0.8084
10991TIP3    H154464   2.969   1.464  12.543  0.3045  0.1355  1.0691
10991TIP3    H254465   3.080   1.568  12.537  1.3013 -0.8690  1.7363
10992TIP3   OH254466   0.570   5.457   3.361 -0.0489 -0.0335 -0.8797
10992TIP3    H154467   0.529   5.527   3.310 -1.4283 -0.9371 -1.0693
10992TIP3    H254468   0.600   5.500   3.441 -1.0656  0.7303 -0.8918
10993TIP3   OH254469   1.235   0.191   4.622 -0.3574 -0.4183  0.3911
10993TIP3    H154470   1.153   0.169   4.666  0.7576 -2.3920  1.6178
10993TIP3    H254471   1.258   0.277   4.656 -0.9032 -0.7387  1.6458
10994TIP3   OH254472   3.799   5.227  12.061 -0.3058  0.0107  0.2992
10994TIP3    H154473   3.803   5.141  12.019 -1.6762  0.0066  0.1402
10994TIP3    H254474   3.711   5.232  12.097 -0.0342  1.1072  0.8418
10995TIP3   OH254475   4.543   1.596  12.360 -0.0399 -0.5145  0.4723
10995TIP3    H154476   4.625   1.564  12.321  0.0319  2.6724 -2.4190
10995TIP3    H254477   4.571   1.663  12.421 -0.4305  0.4596 -0.3958
10996TIP3   OH254478   0.973   3.967   4.937 -0.0368 -0.6897 -0.3175
10996TIP3    H154479   0.983   4.046   4.990 -0.2254 -0.4403 -0.6484
10996TIP3    H254480   1.039   3.975   4.868  1.6701 -2.0368  1.0850
10997TIP3   OH254481   5.194   5.299   0.231 -0.2703 -0.1771 -0.1334
10997TIP3    H154482   5.231   5.229   0.178  0.9099 -0.6898  1.3030
10997TIP3    H254483   5.143   5.255   0.298  0.6742  0.2749  0.9309
10998TIP3   OH254484   6.279   0.201  15.536  0.1036 -0.3267 -0.1471
10998TIP3    H154485   6.292   0.228  15.445 -1.0839 -1.6774 -0.7620
10998TIP3    H254486   6.312   0.274  15.587  1.6721  0.0909 -1.6311
10999TIP3   OH254487   3.065   0.997  16.123  0.2681  0.1281 -0.2190
10999TIP3    H154488   3.131   1.066  16.114 -0.1313  0.2931 -2.3872
10999TIP3    H254489   3.083   0.937  16.051 -1.9735  0.2094 -0.8963
11000TIP3   OH254490   2.463   0.287  12.638 -0.4257  0.4491  0.0189
11000TIP3    H154491   2.466   0.368  12.689  1.0957 -0.2519  1.1267
11000TIP3    H254492   2.376   0.286  12.599 -0.5081  2.5653  0.0398
11001TIP3   OH254493   6.254   2.336   0.036 -0.0961 -0.5331 -0.5219
11001TIP3    H154494   6.263   2.308   0.127 -0.3441 -0.8942 -0.6074
11001TIP3    H254495   6.162   2.362   0.028  0.6352  2.7296  0.2389
11002TIP3   OH254496   6.319   3.493   4.525  0.0243 -0.4588 -0.3715
11002TIP3    H154497   6.376   3.478   4.600  1.2300 -3.3662 -1.7082
11002TIP3    H254498   6.349   3.576   4.487  0.7881 -0.0202  1.1324
11003TIP3   OH254499   5.966   4.796   1.298 -0.3156 -0.3813  0.0351
11003TIP3    H154500   6.026   4.838   1.236 -0.1295  0.7256  0.9441
11003TIP3    H254501   5.950   4.862   1.365  0.6399 -2.0458  1.9781
11004TIP3   OH254502   6.076   6.553   1.201 -0.2450 -0.2494 -0.5601
11004TIP3    H154503   6.170   6.573   1.204 -0.1835 -0.5559  1.4859
11004TIP3    H254504   6.047   6.584   1.116  1.2606  2.0102 -0.3356
11005TIP3   OH254505   1.792   6.114  12.912 -0.0155  0.4362 -0.7721
11005TIP3    H154506   1.785   6.200  12.953  3.0584  0.9472 -1.0494
11005TIP3    H254507   1.861   6.069  12.962 -2.4255 -2.4722  0.2142
11006TIP3   OH254508   4.560   2.377  16.607  0.3126  0.1259 -0.3670
11006TIP3    H154509   4.501   2.327  16.549  0.4964  0.3288 -0.7286
11006TIP3    H254510   4.604   2.439  16.549 -0.5331  1.2987  0.2096
11007TIP3   OH254511   6.163   0.484  14.124  0.3643  0.2906 -0.6913
11007TIP3    H154512   6.123   0.570  14.130  1.3703  0.8035 -0.9917
11007TIP3    H254513   6.241   0.490  14.180 -0.5939 -1.0684  0.8753
11008TIP3   OH254514   4.633   1.267  12.195 -0.0443 -0.2825 -0.1668
11008TIP3    H154515   4.664   1.306  12.277 -1.4903 -0.3890  0.4562
11008TIP3    H254516   4.614   1.176  12.216  0.1499 -0.4716 -0.7798
11009TIP3   OH254517   0.127   3.804   3.250  0.1217  0.0170  0.0394
11009TIP3    H154518   0.187   3.829   3.320  1.2663 -0.0228 -0.8964
11009TIP3    H254519   0.124   3.880   3.193 -0.8981  0.0928  0.1786
11010TIP3   OH254520   2.654   4.240  15.128 -0.7033  0.1780  0.5673
11010TIP3    H154521   2.748   4.260  15.125 -0.3011 -1.6753 -1.0999
11010TIP3    H254522   2.611   4.323  15.107  0.6447  0.6401 -0.5352
11011TIP3   OH254523   0.073   4.888   1.575 -0.3772 -0.4111 -0.4631
11011TIP3    H154524   0.146   4.865   1.632 -1.2836 -0.2941  0.8023
11011TIP3    H254525   0.026   4.957   1.622 -1.5630 -0.8158 -0.9924
11012TIP3   OH254526   5.455   5.741  11.889  0.1935  0.0752  0.6590
11012TIP3    H154527   5.396   5.762  11.816 -0.0624  0.3619  0.9504
11012TIP3    H254528   5.476   5.649  11.875  1.2053  0.4525 -0.5372
11013TIP3   OH254529   0.518   1.822  13.286  0.3375  0.1584 -0.2587
11013TIP3    H154530   0.570   1.807  13.207  0.7466  0.5261 -0.0646
11013TIP3    H254531   0.435   1.778  13.268  0.4959  0.0672 -0.8122
11014TIP3   OH254532   1.563   3.727  12.241 -0.0566 -0.0683  0.0089
11014TIP3    H154533   1.594   3.653  12.188 -1.1329 -0.7316  0.2710
11014TIP3    H254534   1.621   3.799  12.218  0.2771 -0.6787 -1.1488
11015TIP3   OH254535   0.616   5.390   0.866  0.1147  0.2103 -0.1044
11015TIP3    H154536   0.699   5.378   0.910  0.8651  2.6992 -0.6826
11015TIP3    H254537   0.559   5.429   0.932  0.0185  0.3041 -0.2407
11016TIP3   OH254538   3.420   2.639  14.909  0.0248  0.6718  0.1493
11016TIP3    H154539   3.488   2.603  14.851  0.0167  2.7182 -1.2445
11016TIP3    H254540   3.369   2.563  14.935  1.0837 -0.5585 -1.1566
11017TIP3   OH254541   6.071   6.392   0.765 -0.1488 -0.1655 -0.0014
11017TIP3    H154542   6.022   6.317   0.800  0.3924 -1.3979 -1.7883
11017TIP3    H254543   6.024   6.417   0.686 -0.8522  2.0266  1.0476
11018TIP3   OH254544   4.299   0.656  16.785 -0.0922 -0.2842  0.6186
11018TIP3    H154545   4.303   0.637  16.879  0.9414 -0.4061  0.5598
11018TIP3    H254546   4.336   0.744  16.777  1.3978 -0.9235  0.1527
11019TIP3   OH254547   5.357   1.019  16.050  0.3704  0.2625  0.2533
11019TIP3    H154548   5.413   1.095  16.066  1.2362 -0.3093  0.0460
11019TIP3    H254549   5.362   0.968  16.131 -1.7635  1.3492  1.1359
11020TIP3   OH254550   2.341   6.220  16.038  0.3416  0.9118  0.0650
11020TIP3    H154551   2.360   6.154  16.104 -0.2692 -0.1835 -0.8099
11020TIP3    H254552   2.342   6.303  16.085  1.8030  0.3600  1.0576
11021TIP3   OH254553   4.953   2.510  14.057 -0.2567  0.2549 -0.1192
11021TIP3    H154554   5.027   2.536  14.111  1.0425 -0.7522 -1.3459
11021TIP3    H254555   4.936   2.587  14.002 -1.1047  1.0127  1.1536
11022TIP3   OH254556   6.398   0.472   4.565 -0.4641 -0.2449  0.2897
11022TIP3    H154557   6.390   0.546   4.504  0.0182 -0.0768  0.4254
11022TIP3    H254558   6.354   0.399   4.520 -0.7485  0.0639  0.0574
11023TIP3   OH254559   6.507   0.283   5.608  0.0070  0.0607 -0.7999
11023TIP3    H154560   6.521   0.377   5.618  2.1743 -0.2743  0.0074
11023TIP3    H254561   6.511   0.268   5.513 -2.8248  1.0195 -1.1709
11024TIP3   OH254562   5.609   5.012   3.405 -0.6997 -0.3518  0.0882
11024TIP3    H154563   5.570   5.084   3.454  1.8772 -0.1009  2.0039
11024TIP3    H254564   5.631   5.050   3.319 -0.3076  0.8637  0.7074
11025TIP3   OH254565   0.255   5.992   3.452  0.2867 -0.2900 -0.1573
11025TIP3    H154566   0.193   5.921   3.467  1.5277 -1.2342  0.6554
11025TIP3    H254567   0.314   5.990   3.527  1.3440  0.5336 -0.9244
11026TIP3   OH254568   0.151   2.544   0.333  0.2878  0.5688  0.2841
11026TIP3    H154569   0.211   2.574   0.265  0.6638  0.5778  0.6164
11026TIP3    H254570   0.182   2.586   0.413 -0.3270  0.7922  0.4152
11027TIP3   OH254571   5.471   0.037   3.721 -0.5427  0.2076  0.1194
11027TIP3    H154572   5.547   0.001   3.765 -1.8172 -1.0693  1.3897
11027TIP3    H254573   5.504   0.113   3.674  1.4540 -0.1927  0.7882
11028TIP3   OH254574   6.333   2.151   4.116  0.0108 -0.2024  0.5218
11028TIP3    H154575   6.304   2.183   4.031 -0.8912 -1.5104  0.3063
11028TIP3    H254576   6.315   2.222   4.177  1.0032  0.8947 -0.4178
11029TIP3   OH254577   5.725   6.376   6.215  0.3320 -0.8149  0.4078
11029TIP3    H154578   5.635   6.404   6.198  0.2860 -2.1595 -1.8944
11029TIP3    H254579   5.724   6.348   6.307 -1.2047  0.4909  0.8417
11030TIP3   OH254580   3.279   3.146   2.922  0.2144 -0.7297  0.4759
11030TIP3    H154581   3.343   3.199   2.971 -1.1702  2.6946 -1.1228
11030TIP3    H254582   3.195   3.169   2.961 -0.8521  1.4827 -2.7345
11031TIP3   OH254583   1.449   3.294  15.969 -0.4833  0.5567  0.7279
11031TIP3    H154584   1.543   3.278  15.960 -0.2876  0.1425  3.0805
11031TIP3    H254585   1.411   3.258  15.889  1.1378 -1.2835  0.7232
11032TIP3   OH254586   1.737   1.174  13.853 -0.2860  0.1533  0.2362
11032TIP3    H154587   1.822   1.206  13.825 -0.8867  1.6443  0.0637
11032TIP3    H254588   1.752   1.142  13.942  0.6483 -0.5027 -0.1380
11033TIP3   OH254589   2.273   0.714   2.360  0.1265  0.3665 -0.2255
11033TIP3    H154590   2.320   0.776   2.304 -0.7473 -0.8000 -2.3603
11033TIP3    H254591   2.328   0.706   2.438  1.7841  1.5192 -1.2029
11034TIP3   OH254592   5.847   4.362   2.760 -0.6219  0.4174  0.4772
11034TIP3    H154593   5.894   4.370   2.843  0.7495 -0.1395 -0.2133
11034TIP3    H254594   5.816   4.271   2.759 -0.0227  0.2159  0.0704
11035TIP3   OH254595   6.170   3.799   6.418  0.2269 -0.4496 -0.5732
11035TIP3    H154596   6.230   3.750   6.474  0.4265  0.8671  0.4179
11035TIP3    H254597   6.135   3.734   6.357  1.6256 -1.5053 -0.2982
11036TIP3   OH254598   2.554   3.205  11.218 -0.4527 -0.3737 -0.8131
11036TIP3    H154599   2.523   3.261  11.146 -2.0369 -2.7649 -2.1419
11036TIP3    H254600   2.632   3.162  11.183 -1.1765 -1.4775 -1.1259
11037TIP3   OH254601   3.384   4.237   2.194 -0.0389  0.4778 -0.3800
11037TIP3    H154602   3.400   4.321   2.151  0.6730  0.5237 -0.0299
11037TIP3    H254603   3.300   4.249   2.238 -0.0596  0.9261 -0.5340
11038TIP3   OH254604   6.616   1.972   5.781 -0.2521  0.2559 -0.5108
11038TIP3    H154605   6.627   1.951   5.874 -1.5538  0.0350 -0.3877
11038TIP3    H254606   6.675   2.046   5.766 -0.1259  0.3760  0.5144
11039TIP3   OH254607   6.160   3.746   2.107  0.8028 -0.3597  0.4944
11039TIP3    H154608   6.168   3.791   2.191  0.5873 -0.6030  0.6485
11039TIP3    H254609   6.168   3.815   2.041  0.5156 -0.1048  0.7257
11040TIP3   OH254610   6.090   5.987   1.192 -0.6031 -0.1148 -0.6867
11040TIP3    H154611   6.166   6.042   1.212  0.7031 -1.4066 -1.8108
11040TIP3    H254612   6.076   6.000   1.098 -0.2150 -1.6947 -0.9945
11041TIP3   OH254613   0.028   0.993   3.984  0.2384 -0.6327 -0.4922
11041TIP3    H154614   0.003   0.914   3.936 -0.4703 -0.4642 -0.4183
11041TIP3    H254615  -0.045   1.008   4.044 -0.9276  1.5062 -2.2776
11042TIP3   OH254616   2.445   2.172   3.112  0.0912 -0.1075 -0.1551
11042TIP3    H154617   2.406   2.113   3.046 -1.6592 -1.2166  1.7366
11042TIP3    H254618   2.376   2.235   3.130  0.0928 -0.5159  1.4022
11043TIP3   OH254619   3.706   5.163   0.464 -0.7165 -0.1145 -0.1442
11043TIP3    H154620   3.747   5.240   0.504 -1.2436  0.7904 -1.2882
11043TIP3    H254621   3.705   5.097   0.534  2.8246 -0.2859 -0.0571
11044TIP3   OH254622   1.819   6.265   0.032  0.4446 -0.0383 -0.1098
11044TIP3    H154623   1.743   6.207   0.036 -0.1524  0.7184 -0.2929
11044TIP3    H254624   1.888   6.216   0.077 -0.6711  0.0525  1.8279
11045TIP3   OH254625   4.329   6.458   4.914  0.4068 -0.2007 -0.7322
11045TIP3    H154626   4.278   6.426   4.839 -0.6692  0.5634 -0.3517
11045TIP3    H254627   4.420   6.440   4.890  0.1447  0.5614 -2.4951
11046TIP3   OH254628   0.294   4.849  16.295  0.0747 -0.0512 -0.0187
11046TIP3    H154629   0.266   4.761  16.268 -1.1806  0.7755 -1.5553
11046TIP3    H254630   0.274   4.853  16.388  0.6091 -1.5584  0.1915
11047TIP3   OH254631   0.434   0.520  10.708  0.5517  0.2015  0.0152
11047TIP3    H154632   0.471   0.567  10.782  0.3113 -0.1199  0.3483
11047TIP3    H254633   0.481   0.437  10.706  2.4483  1.2488 -1.8610
11048TIP3   OH254634   4.445   5.634   4.733  0.6058 -0.2522 -0.6087
11048TIP3    H154635   4.506   5.654   4.662  1.2838 -1.4731 -0.4009
11048TIP3    H254636   4.500   5.633   4.811  0.7835 -3.3557 -0.6583
11049TIP3   OH254637   3.886   0.674   5.388  0.1345 -0.5856 -0.1891
11049TIP3    H154638   3.823   0.640   5.451 -0.9698  0.4947 -0.6780
11049TIP3    H254639   3.881   0.613   5.314 -0.5878 -0.3435 -0.3528
11050TIP3   OH254640   1.590   1.386   4.668  0.7532 -0.5102  0.0650
11050TIP3    H154641   1.632   1.470   4.650  0.6670 -0.6798 -1.0343
11050TIP3    H254642   1.661   1.322   4.668  0.5049 -0.8903 -2.4315
11051TIP3   OH254643   1.726   6.813   2.944  0.5980 -0.2979 -0.3782
11051TIP3    H154644   1.697   6.783   2.858 -2.0198  0.0285  0.3080
11051TIP3    H254645   1.753   6.733   2.990  0.3791 -0.7006 -0.9372
11052TIP3   OH254646   2.644   6.489   2.684  0.4542  0.4383 -0.0423
11052TIP3    H154647   2.561   6.519   2.647  0.6038 -1.0820 -1.7419
11052TIP3    H254648   2.710   6.539   2.636  0.6066 -0.7577 -1.1371
11053TIP3   OH254649   0.325   5.155  17.073 -0.1003  0.0471 -0.2871
11053TIP3    H154650   0.420   5.142  17.077 -0.0055  0.5625 -0.6715
11053TIP3    H254651   0.290   5.072  17.044 -0.0833 -1.2324  2.9295
11054TIP3   OH254652   2.173   4.051  15.580 -0.3225 -0.0082  0.1986
11054TIP3    H154653   2.175   4.129  15.524 -1.6670  0.8759  1.3214
11054TIP3    H254654   2.188   3.978  15.520 -2.1435  0.8674 -1.4036
11055TIP3   OH254655   4.327   5.328   1.180  0.2470 -0.3758 -0.0211
11055TIP3    H154656   4.385   5.403   1.194  0.8446 -0.8957  0.3113
11055TIP3    H254657   4.283   5.347   1.097 -0.4240  0.8691  0.5956
11056TIP3   OH254658   1.003   4.390   5.416 -0.2791  0.2213 -0.0244
11056TIP3    H154659   0.991   4.472   5.368 -0.1942 -0.0680 -0.5451
11056TIP3    H254660   0.961   4.406   5.501 -0.8424  0.5826 -0.3602
11057TIP3   OH254661   0.812   5.705   1.124 -0.3026 -0.4239 -0.8246
11057TIP3    H154662   0.861   5.626   1.147 -0.1611  0.0137  0.5111
11057TIP3    H254663   0.854   5.737   1.044  0.8773 -0.6823 -0.3398
11058TIP3   OH254664   1.367   3.869   4.413  0.3315 -0.1324 -0.2161
11058TIP3    H154665   1.272   3.874   4.422  0.4457  1.6730  0.4229
11058TIP3    H254666   1.391   3.785   4.453 -0.8574  0.0327  0.8870
11059TIP3   OH254667   2.568   6.250   0.936 -0.2474  0.3789 -0.1096
11059TIP3    H154668   2.509   6.296   0.875  0.2823  1.7836  0.3868
11059TIP3    H254669   2.525   6.258   1.021 -0.1512 -0.0776 -0.0161
11060TIP3   OH254670   4.501   0.201   0.729 -0.3556  0.4431  0.7837
11060TIP3    H154671   4.411   0.221   0.754  0.2898  1.1419  2.6658
11060TIP3    H254672   4.530   0.277   0.679 -0.3024  0.9344  1.5587
11061TIP3   OH254673   5.481   0.276  12.158 -0.3247  0.0555 -0.1958
11061TIP3    H154674   5.500   0.209  12.093 -1.9573 -0.8084  0.1637
11061TIP3    H254675   5.531   0.250  12.235 -1.1960 -0.9754  0.0489
11062TIP3   OH254676   5.984   2.931   3.099 -0.0883  0.1878  0.0067
11062TIP3    H154677   5.916   2.900   3.039 -1.7917  1.7749  0.9894
11062TIP3    H254678   5.995   2.859   3.162 -0.4284 -0.3229 -0.5092
11063TIP3   OH254679   5.686   1.674  13.977  0.2533  0.0817 -0.1623
11063TIP3    H154680   5.745   1.696  14.049  1.0191 -1.2439 -0.3570
11063TIP3    H254681   5.700   1.744  13.913  0.4573  0.6174  0.4582
11064TIP3   OH254682   5.131   0.887  11.916  0.4442 -0.5985  0.2036
11064TIP3    H154683   5.102   0.942  11.843  0.9939  1.4923  1.4631
11064TIP3    H254684   5.052   0.840  11.943 -0.1310 -0.1898 -0.7160
11065TIP3   OH254685   6.164   6.122   6.531 -0.2140  0.3743 -0.3343
11065TIP3    H154686   6.251   6.090   6.506 -0.4882 -0.7709  0.1150
11065TIP3    H254687   6.116   6.127   6.448 -0.0102  0.0732 -0.4743
11066TIP3   OH254688   1.170   1.763   7.134 -0.2895  0.2177 -0.2876
11066TIP3    H154689   1.111   1.728   7.067 -0.0014 -0.1436 -0.3531
11066TIP3    H254690   1.241   1.804   7.084  0.0640 -0.2841 -0.2081
11067TIP3   OH254691   2.893   3.928   0.727  0.4186  0.3032  0.2623
11067TIP3    H154692   2.856   4.016   0.729  0.4724  0.3214  0.4695
11067TIP3    H254693   2.942   3.921   0.809 -0.3926 -0.2723  0.7135
11068TIP3   OH254694   2.471   5.056  11.074 -0.2209 -0.1585 -0.2991
11068TIP3    H154695   2.445   4.984  11.017 -1.4735  0.8189 -1.0128
11068TIP3    H254696   2.421   5.132  11.042 -0.4505  0.5891  1.6775
11069TIP3   OH254697   5.096   6.231  16.733  0.2959  0.3096  0.1436
11069TIP3    H154698   5.160   6.238  16.663 -1.4921 -2.0549 -1.9066
11069TIP3    H254699   5.072   6.138  16.735 -1.4885  0.7251  2.2611
11070TIP3   OH254700   1.817   4.188   2.692 -0.7656 -0.0647 -0.1341
11070TIP3    H154701   1.747   4.199   2.626 -1.1501 -0.6905  0.1608
11070TIP3    H254702   1.798   4.104   2.733 -1.0809  0.7322  1.4304
11071TIP3   OH254703   0.881   5.262   3.629  0.3254 -0.0729  0.5974
11071TIP3    H154704   0.974   5.261   3.654 -0.0864  1.2087  2.3737
11071TIP3    H254705   0.835   5.286   3.709 -1.5285 -0.2886 -0.3533
11072TIP3   OH254706   2.782   5.976  16.142  0.1401  0.2524 -0.3987
11072TIP3    H154707   2.791   6.038  16.070  1.2290 -0.6837 -1.1091
11072TIP3    H254708   2.701   5.928  16.123  0.8107 -0.5130 -1.4527
11073TIP3   OH254709   1.334   0.834   0.283 -0.9974 -0.0139 -0.1024
11073TIP3    H154710   1.325   0.742   0.259  0.4189 -0.3654  0.6061
11073TIP3    H254711   1.336   0.834   0.379 -0.0220  0.6360 -0.1055
11074TIP3   OH254712   4.569   2.355  17.101  0.0250  0.2451  0.3418
11074TIP3    H154713   4.498   2.381  17.042  1.9638  1.0285 -1.7657
11074TIP3    H254714   4.557   2.409  17.179 -0.9653  1.2567 -0.4909
11075TIP3   OH254715   4.282   1.635   2.658  0.3341  0.0325  0.4785
11075TIP3    H154716   4.258   1.673   2.742  0.7037 -0.5663  0.8641
11075TIP3    H254717   4.269   1.541   2.670 -1.8421  0.0902 -0.8674
11076TIP3   OH254718   6.011   1.062  12.821  0.0748  0.2000  0.1684
11076TIP3    H154719   6.037   0.976  12.789 -1.2535 -0.8111  1.6521
11076TIP3    H254720   5.966   1.102  12.747  0.4057 -0.4958 -0.4340
11077TIP3   OH254721   4.270   4.573  16.047 -0.3419  0.4440 -0.1354
11077TIP3    H154722   4.187   4.588  16.094  0.0328  1.2504  0.2928
11077TIP3    H254723   4.251   4.598  15.957 -0.6127  0.4747 -0.0722
11078TIP3   OH254724   4.441   0.365  13.527  0.1502  0.2384 -0.7699
11078TIP3    H154725   4.369   0.349  13.587  0.1805 -2.2583 -1.2965
11078TIP3    H254726   4.403   0.418  13.457 -1.6941 -2.2542 -1.8147
11079TIP3   OH254727   0.461   3.332  12.781  0.0758  0.0175 -0.0210
11079TIP3    H154728   0.555   3.333  12.799 -0.0132 -1.7448  0.7876
11079TIP3    H254729   0.455   3.313  12.687  0.5018  1.9687 -0.4811
11080TIP3   OH254730   4.806   2.955  13.308 -0.5087 -0.2409 -0.2529
11080TIP3    H154731   4.733   2.933  13.250 -1.3744  1.6654  0.0190
11080TIP3    H254732   4.842   3.036  13.270 -0.7250  0.7210  1.5009
11081TIP3   OH254733   5.648   3.109   3.872 -0.2913  0.3556 -0.1022
11081TIP3    H154734   5.578   3.136   3.812  0.1140  1.2655 -0.1942
11081TIP3    H254735   5.652   3.180   3.936 -1.2416 -0.9764  1.4857
11082TIP3   OH254736   2.801   6.353  15.682  0.3428 -0.6591  0.1987
11082TIP3    H154737   2.734   6.357  15.750  0.9273  0.6386  0.7458
11082TIP3    H254738   2.826   6.444  15.668  2.6023 -1.1280  0.6640
11083TIP3   OH254739   2.493   6.565   3.726 -0.3339 -0.5130 -0.5621
11083TIP3    H154740   2.537   6.586   3.808 -0.4221  1.2186 -0.9256
11083TIP3    H254741   2.551   6.600   3.658 -0.9628 -0.6174 -1.1633
11084TIP3   OH254742   2.781   6.119   2.158 -0.7364  0.0633 -0.0802
11084TIP3    H154743   2.869   6.106   2.195 -0.7400 -2.2635 -0.6994
11084TIP3    H254744   2.794   6.179   2.085  0.4383 -0.5641 -0.4212
11085TIP3   OH254745   1.389   3.877   0.449  0.0711 -0.0455  0.3273
11085TIP3    H154746   1.472   3.839   0.420  0.2582 -1.1058  2.1124
11085TIP3    H254747   1.349   3.809   0.503 -2.1465  0.3144 -0.7557
11086TIP3   OH254748   2.238   3.379  15.113  0.4533  0.6171 -0.5115
11086TIP3    H154749   2.241   3.388  15.018 -0.3599  1.5128 -0.4725
11086TIP3    H254750   2.144   3.381  15.134  0.6027 -0.0402  0.2730
11087TIP3   OH254751   3.363   3.082   0.864 -0.9662  0.1000  0.1134
11087TIP3    H154752   3.369   2.995   0.826 -1.5282 -0.2204  0.7301
11087TIP3    H254753   3.342   3.139   0.790  1.8296  0.1478 -0.7589
11088TIP3   OH254754   3.485   4.767  11.931  0.0416 -0.6081 -0.3874
11088TIP3    H154755   3.432   4.806  11.860  1.2790 -0.1939 -1.1125
11088TIP3    H254756   3.547   4.710  11.886 -1.1060 -2.7293  0.6033
11089TIP3   OH254757   6.325   2.653   0.408  0.7481  0.4152  0.2226
11089TIP3    H154758   6.362   2.572   0.371 -0.4346  0.1243 -0.3749
11089TIP3    H254759   6.308   2.631   0.500 -2.5250 -1.1708 -0.6095
11090TIP3   OH254760   2.109   3.886   0.663  0.0558 -0.0142  0.0670
11090TIP3    H154761   2.153   3.805   0.690 -0.3574  0.3856  2.1345
11090TIP3    H254762   2.019   3.860   0.645  0.3309 -0.2861 -0.9499
11091TIP3   OH254763   5.572   6.345   1.030 -0.4200  0.3738 -0.0742
11091TIP3    H154764   5.652   6.305   1.064  0.2553  0.5987 -1.3020
11091TIP3    H254765   5.503   6.317   1.090  0.6726  0.6910  1.3734
11092TIP3   OH254766   2.838   5.694  12.639 -0.3242  0.4040  0.7520
11092TIP3    H154767   2.814   5.644  12.561 -1.2521  0.7128  0.8337
11092TIP3    H254768   2.831   5.785  12.612  0.9037  0.5114  0.7442
11093TIP3   OH254769   4.770   1.028  11.880  0.0577 -0.0154  0.0772
11093TIP3    H154770   4.689   1.012  11.928  0.5786  0.8771  1.2825
11093TIP3    H254771   4.817   1.092  11.932  1.2730 -0.0510 -0.9316
11094TIP3   OH254772   2.179   5.904   2.408 -0.8820  0.3002  0.5861
11094TIP3    H154773   2.113   5.844   2.371 -1.4590  1.3702 -0.2006
11094TIP3    H254774   2.205   5.864   2.491 -0.6377 -1.4466 -0.2909
11095TIP3   OH254775   6.627   5.932  15.199  0.1258  0.0034  0.3331
11095TIP3    H154776   6.546   5.892  15.168 -0.4507  1.9083 -0.8126
11095TIP3    H254777   6.602   5.976  15.281 -0.1931  1.1051 -0.3324
11096TIP3   OH254778   3.388   3.278   2.235  0.2106  0.2722  0.0201
11096TIP3    H154779   3.379   3.186   2.260  1.6606  0.2826  0.6983
11096TIP3    H254780   3.477   3.301   2.263  0.1151  1.6820 -0.7793
11097TIP3   OH254781   1.845   2.075  15.880 -0.3704 -0.7090  0.5958
11097TIP3    H154782   1.750   2.076  15.876 -0.3866  0.1867  0.8798
11097TIP3    H254783   1.874   2.097  15.792 -0.4769  1.2600  1.0064
11098TIP3   OH254784   5.265   2.348  10.882 -0.4884 -0.1383  0.3862
11098TIP3    H154785   5.309   2.411  10.824 -0.1955  0.7286  1.5020
11098TIP3    H254786   5.173   2.355  10.858 -0.1182 -1.8999 -1.9114
11099TIP3   OH254787   1.545   6.066  14.738  0.6208 -0.1600 -0.7611
11099TIP3    H154788   1.624   6.011  14.739  0.0352 -1.1615 -3.0517
11099TIP3    H254789   1.536   6.092  14.647 -1.3143  0.5475 -0.4008
11100TIP3   OH254790   5.659   2.859  11.013 -0.2667  0.5231  0.1311
11100TIP3    H154791   5.640   2.767  10.993 -0.4302  0.4897  0.4367
11100TIP3    H254792   5.744   2.858  11.056 -0.0262  0.5700 -0.3440
11101TIP3   OH254793   4.033   1.928  12.559  0.6911  0.0382 -0.1454
11101TIP3    H154794   4.105   1.939  12.621  0.8399  0.1008 -0.3315
11101TIP3    H254795   4.039   2.003  12.500  1.6155 -0.9255 -1.3199
11102TIP3   OH254796   1.240   2.282   5.531  0.3591  0.6686 -0.0467
11102TIP3    H154797   1.249   2.329   5.614 -1.3234  0.9759  0.0048
11102TIP3    H254798   1.298   2.328   5.470  1.9914  0.1433  1.0388
11103TIP3   OH254799   3.730   5.038  16.999 -0.1307 -0.4742 -0.7016
11103TIP3    H154800   3.690   5.124  17.016  0.1766 -0.0828 -1.8701
11103TIP3    H254801   3.784   5.052  16.921  2.4827 -0.9326  0.8983
11104TIP3   OH254802   5.443   3.725   5.240 -0.1673  0.1533  0.2072
11104TIP3    H154803   5.493   3.794   5.284 -0.7562  1.0581 -0.5167
11104TIP3    H254804   5.365   3.714   5.295 -0.5083  0.7099 -0.1549
11105TIP3   OH254805   5.224   0.733   0.586  0.0282  0.1620  0.1005
11105TIP3    H154806   5.186   0.677   0.654 -2.5712  0.8369 -0.6571
11105TIP3    H254807   5.294   0.681   0.547 -0.1201 -1.2174  1.5918
11106TIP3   OH254808   0.793   4.483   1.027 -0.2522  0.1430  0.1645
11106TIP3    H154809   0.857   4.538   1.072 -0.6999 -0.0943  1.1205
11106TIP3    H254810   0.711   4.496   1.076 -0.9396  0.4319 -1.0195
11107TIP3   OH254811   5.023   1.656  14.494 -0.6673 -0.4730 -0.9672
11107TIP3    H154812   4.956   1.635  14.559 -0.8609  2.1822 -0.1851
11107TIP3    H254813   4.976   1.654  14.410 -1.5001  0.2607 -0.5439
11108TIP3   OH254814   3.545   6.073  14.943  0.0155  0.5611 -0.5177
11108TIP3    H154815   3.582   6.156  14.973 -1.2891  0.8298  0.4107
11108TIP3    H254816   3.549   6.016  15.020 -0.7987  0.3708 -0.6043
11109TIP3   OH254817   5.805   4.173   0.244  0.1940 -0.2197  0.2891
11109TIP3    H154818   5.862   4.168   0.321  0.3597  0.9739  0.2578
11109TIP3    H254819   5.759   4.256   0.254  0.7459  0.2978 -1.2619
11110TIP3   OH254820   5.926   0.218   3.789 -0.2438  0.1827  0.4482
11110TIP3    H154821   5.919   0.216   3.693 -0.6691  1.1592  0.4530
11110TIP3    H254822   5.980   0.142   3.810 -0.5598 -0.3273 -0.5292
11111TIP3   OH254823   4.573   1.831  14.635 -0.0365  0.0043  0.7159
11111TIP3    H154824   4.580   1.750  14.686  0.0365  0.1190  0.8897
11111TIP3    H254825   4.482   1.833  14.605 -0.8112  1.1527  2.9028
11112TIP3   OH254826   5.237   3.086  16.893  0.2392 -0.1045 -0.1284
11112TIP3    H154827   5.259   3.113  16.804 -0.6071  0.0704 -0.2910
11112TIP3    H254828   5.315   3.108  16.945 -0.7978  4.0754  0.0463
11113TIP3   OH254829   6.501   0.671   1.339 -0.3892  0.8899  0.0846
11113TIP3    H154830   6.575   0.654   1.397  0.2802 -1.5634 -1.3570
11113TIP3    H254831   6.519   0.620   1.260 -3.0471  1.1166 -0.7883
11114TIP3   OH254832   3.744   5.809   3.402 -0.6419 -0.0622 -0.2657
11114TIP3    H154833   3.661   5.763   3.420 -0.8843  0.1104 -0.9266
11114TIP3    H254834   3.807   5.739   3.385 -1.4692 -0.1896 -3.3317
11115TIP3   OH254835   2.576   5.800  15.363  0.2962 -0.1122 -0.0987
11115TIP3    H154836   2.596   5.854  15.440 -0.8799  0.3021 -0.0694
11115TIP3    H254837   2.658   5.799  15.313  0.6759  0.7455  0.4761
11116TIP3   OH254838   4.744   1.207   2.774  0.0984 -0.8141  0.3674
11116TIP3    H154839   4.807   1.191   2.844 -1.4701 -1.6183  1.6789
11116TIP3    H254840   4.781   1.165   2.697  2.8981  1.9021  0.0478
11117TIP3   OH254841   5.648   2.893  14.028 -0.2440 -0.2392 -0.5125
11117TIP3    H154842   5.577   2.927  13.974 -1.3154  0.5188  1.2762
11117TIP3    H254843   5.728   2.925  13.986 -0.9766 -0.4083 -2.0965
11118TIP3   OH254844   0.725   3.185  15.541 -0.2969  0.2793  0.3704
11118TIP3    H154845   0.672   3.252  15.584 -0.3797  0.9594 -0.7655
11118TIP3    H254846   0.721   3.207  15.448  1.3687 -0.0801  0.1792
11119TIP3   OH254847   4.627   4.487  16.013 -0.0342  0.2268  0.6502
11119TIP3    H154848   4.675   4.508  16.093  2.5822  0.5621 -0.8791
11119TIP3    H254849   4.598   4.572  15.980  0.5818  0.3069  0.2916
11120TIP3   OH254850   6.753   1.815   2.226 -0.2809 -0.8333 -0.0734
11120TIP3    H154851   6.742   1.796   2.319 -0.7352  0.2087  0.0951
11120TIP3    H254852   6.665   1.835   2.195  0.2669  2.2885  0.0798
11121TIP3   OH254853   3.031   3.906  15.707  0.0757 -0.3602 -0.0368
11121TIP3    H154854   2.988   3.879  15.626  0.8508  0.4325 -0.7385
11121TIP3    H254855   2.959   3.916  15.770 -0.9025  1.6072 -1.3610
11122TIP3   OH254856   5.355   6.214  16.486  0.1814 -0.4550 -0.1833
11122TIP3    H154857   5.286   6.241  16.426 -0.9238 -0.0904  1.1946
11122TIP3    H254858   5.431   6.268  16.462  0.7993 -2.4218 -3.1888
11123TIP3   OH254859   6.162   4.922  12.899 -0.1238  0.0159 -0.7449
11123TIP3    H154860   6.086   4.865  12.885 -1.2623  0.7127  1.9367
11123TIP3    H254861   6.129   5.010  12.883  0.1946  0.2874  0.0489
11124TIP3   OH254862   2.773   4.581   1.004 -0.1433 -0.2372 -0.0099
11124TIP3    H154863   2.867   4.570   0.994 -0.1746 -1.1265  0.6214
11124TIP3    H254864   2.763   4.644   1.075 -0.0267  0.5768 -0.6951
11125TIP3   OH254865   0.739   2.556  13.138 -0.7290 -0.0866  0.3661
11125TIP3    H154866   0.745   2.474  13.089  0.2282 -1.0605  2.0495
11125TIP3    H254867   0.806   2.612  13.098 -1.2844 -0.1423 -0.6930
11126TIP3   OH254868   5.312   6.042  10.703 -0.3444 -0.5677  0.2415
11126TIP3    H154869   5.225   6.027  10.667 -0.8373 -2.3683  1.9594
11126TIP3    H254870   5.371   5.988  10.650 -0.2496  0.5695 -0.8532
11127TIP3   OH254871   3.997   5.145  11.363  0.0542  0.2857 -0.5150
11127TIP3    H154872   4.021   5.056  11.337  1.7156  0.0733  1.5280
11127TIP3    H254873   3.930   5.170  11.300  1.3650 -1.4312 -2.7839
11128TIP3   OH254874   5.226   4.209   2.565 -0.7708 -0.1765 -0.0463
11128TIP3    H154875   5.231   4.118   2.592  0.2094 -0.3097 -0.6375
11128TIP3    H254876   5.208   4.257   2.646 -1.8355 -0.9370  0.1791
11129TIP3   OH254877   4.762   0.005   4.755 -0.5201 -0.5841 -0.5455
11129TIP3    H154878   4.722   0.071   4.699 -1.3449 -0.1633  0.4922
11129TIP3    H254879   4.690  -0.026   4.811  0.3863 -0.5504  0.6782
11130TIP3   OH254880   2.209   6.131  14.965 -0.2220 -0.2029 -0.0777
11130TIP3    H154881   2.245   6.204  14.915  1.7397  0.0594  1.5830
11130TIP3    H254882   2.286   6.078  14.990 -1.3393 -1.4751  0.8369
11131TIP3   OH254883   5.064   1.714   4.320  0.1170 -0.4107  0.0127
11131TIP3    H154884   5.062   1.667   4.236 -0.6774 -0.4541  0.0491
11131TIP3    H254885   5.099   1.651   4.382  3.5570  0.4977 -0.7945
11132TIP3   OH254886   2.607   0.731   5.655  0.4150 -0.3120  0.1535
11132TIP3    H154887   2.553   0.659   5.689 -0.8284 -0.3458 -1.7119
11132TIP3    H254888   2.544   0.798   5.630  1.4316  0.6499  0.1196
11133TIP3   OH254889   6.285   3.044   0.697  0.3584 -0.3815  0.4361
11133TIP3    H154890   6.298   3.003   0.612  2.3055 -0.6136  0.8034
11133TIP3    H254891   6.373   3.060   0.730 -0.3371 -0.5773  2.5541
11134TIP3   OH254892   6.363   4.260   0.652 -0.5065 -0.1590  0.0526
11134TIP3    H154893   6.451   4.270   0.615  0.1126 -0.5746  1.3590
11134TIP3    H254894   6.375   4.277   0.745 -1.7104 -0.8001  0.3351
11135TIP3   OH254895   3.512   1.638  15.344 -0.4751 -0.4927  0.4965
11135TIP3    H154896   3.500   1.697  15.270 -2.5278 -2.4545 -0.8798
11135TIP3    H254897   3.429   1.644  15.393 -0.0808 -1.0151  1.2549
11136TIP3   OH254898   4.340   6.283   3.996  0.4760  0.7293 -0.6797
11136TIP3    H154899   4.256   6.313   3.962  0.2082  0.3978 -0.3118
11136TIP3    H254900   4.403   6.347   3.963  0.4164 -0.2333 -2.8130
11137TIP3   OH254901   2.155   2.661   2.741  0.2376  0.6741  0.2115
11137TIP3    H154902   2.203   2.625   2.666  0.8534  1.7910  0.0411
11137TIP3    H254903   2.223   2.678   2.807 -0.2838 -0.1905  0.9902
11138TIP3   OH254904   4.815   3.239   1.815  0.3483 -0.4256  0.2171
11138TIP3    H154905   4.808   3.239   1.719 -1.0086  0.3315  0.2919
11138TIP3    H254906   4.754   3.172   1.844  0.4994 -0.4096  0.5766
11139TIP3   OH254907   5.817   2.245   6.320 -0.1742 -0.3076 -0.0311
11139TIP3    H154908   5.726   2.220   6.305  0.1849 -0.9397 -1.3959
11139TIP3    H254909   5.830   2.324   6.267  0.2472 -0.6422 -0.4458
11140TIP3   OH254910   3.366   0.794   3.063  0.4594  0.1004 -0.0412
11140TIP3    H154911   3.305   0.721   3.072  0.7728 -0.1838 -0.1972
11140TIP3    H254912   3.415   0.774   2.984 -0.3378  1.1410 -0.8222
11141TIP3   OH254913   0.194   3.113   4.842 -0.3060  0.0410  0.1261
11141TIP3    H154914   0.188   3.142   4.933  0.3362 -0.1317  0.2255
11141TIP3    H254915   0.192   3.017   4.848 -1.1587  0.0330 -0.1121
11142TIP3   OH254916   0.152   1.516  16.782 -0.6777  0.0471 -0.1637
11142TIP3    H154917   0.093   1.475  16.845  0.2509  0.0046  0.7073
11142TIP3    H254918   0.105   1.595  16.753 -0.5470  0.8517  1.6705
11143TIP3   OH254919   2.124   3.492  16.911 -0.5968 -0.0037 -0.8118
11143TIP3    H154920   2.185   3.531  16.848  0.2528 -0.9183 -0.5639
11143TIP3    H254921   2.179   3.454  16.979 -1.4273 -1.0279 -0.6893
11144TIP3   OH254922   6.329   3.263   6.340 -0.1143  0.2149 -0.1389
11144TIP3    H154923   6.408   3.314   6.358  0.5821 -0.7579 -0.3465
11144TIP3    H254924   6.308   3.221   6.423 -1.0815  1.3285  0.2135
11145TIP3   OH254925   0.773   3.288   1.706 -0.2751 -0.0132  0.4703
11145TIP3    H154926   0.770   3.255   1.617  1.4933  0.0272  0.3640
11145TIP3    H254927   0.717   3.366   1.705 -1.4689 -0.8579 -0.1991
11146TIP3   OH254928   6.793   6.813   0.258 -0.0221 -0.8217 -0.1576
11146TIP3    H154929   6.882   6.844   0.273 -0.0949 -0.2064 -0.9095
11146TIP3    H254930   6.786   6.804   0.163 -0.3280 -2.2146 -0.0178
11147TIP3   OH254931   0.915   1.436   3.473  0.0269 -0.5918  0.4725
11147TIP3    H154932   0.941   1.384   3.549 -1.3583 -0.1760  1.2599
11147TIP3    H254933   0.994   1.482   3.447  0.6476 -1.1435  1.3315
11148TIP3   OH254934   3.513   1.692   2.413  0.6668 -0.0410  0.7773
11148TIP3    H154935   3.504   1.674   2.319 -0.6735  0.0788  0.8639
11148TIP3    H254936   3.447   1.759   2.431 -1.2116 -2.1659  2.3578
11149TIP3   OH254937   2.599   4.172  12.236 -0.1451 -0.1858  0.1614
11149TIP3    H154938   2.527   4.129  12.283  0.2543 -1.1689 -0.1140
11149TIP3    H254939   2.647   4.100  12.195  1.2967  0.4218  0.7496
11150TIP3   OH254940   2.253   5.316  14.353  0.3907 -0.3790 -0.2473
11150TIP3    H154941   2.289   5.400  14.381 -0.4150 -0.2490  0.4554
11150TIP3    H254942   2.262   5.316  14.258 -0.5134  0.9531 -0.3660
11151TIP3   OH254943   1.609   1.951  15.694 -0.3972  0.0752 -0.1465
11151TIP3    H154944   1.645   1.870  15.659 -1.8611  0.0763 -1.8033
11151TIP3    H254945   1.621   2.015  15.624  1.0567  1.4487  1.2520
11152TIP3   OH254946   1.650   5.391   3.111  0.3234 -0.2683  0.6193
11152TIP3    H154947   1.600   5.447   3.052 -0.8085 -0.9915  0.8713
11152TIP3    H254948   1.639   5.430   3.197  2.6100  1.2345  0.3092
11153TIP3   OH254949   1.579   1.713  16.025  0.2814 -0.8292 -0.5259
11153TIP3    H154950   1.503   1.737  15.972 -1.4716 -2.6760  1.0141
11153TIP3    H254951   1.651   1.707  15.962 -1.2594 -0.8785 -2.3587
11154TIP3   OH254952   1.751   3.451  15.437 -0.3546 -0.1293 -0.8435
11154TIP3    H154953   1.671   3.495  15.466 -0.1843  1.0632 -2.0610
11154TIP3    H254954   1.775   3.497  15.356  1.4161 -0.6247 -0.6383
11155TIP3   OH254955   5.949   4.492  16.460 -0.8536 -0.3923  0.2126
11155TIP3    H154956   6.034   4.454  16.438 -0.9548 -0.6514  0.2670
11155TIP3    H254957   5.958   4.517  16.552 -0.5984  0.2351  0.0246
11156TIP3   OH254958   4.546   4.908  15.111  0.0319 -0.0575  0.1850
11156TIP3    H154959   4.583   4.838  15.165  0.0364 -0.4019 -0.2578
11156TIP3    H254960   4.551   4.874  15.021  0.3935  0.6674 -0.0759
11157TIP3   OH254961   3.367   5.769   2.909 -0.3266 -0.0463  0.2018
11157TIP3    H154962   3.460   5.786   2.924 -0.4777 -0.9778  2.6542
11157TIP3    H254963   3.337   5.843   2.857  2.0264 -0.3744 -1.8175
11158TIP3   OH254964   0.749   4.976  10.701  0.0149  0.3458  0.0861
11158TIP3    H154965   0.713   5.020  10.624  1.7879  1.2414 -0.2909
11158TIP3    H254966   0.812   4.913  10.666 -0.8831 -0.9556  0.7330
11159TIP3   OH254967   2.211   4.477   1.626  0.0804 -0.3315 -0.9286
11159TIP3    H154968   2.161   4.407   1.585  0.7924 -0.4377 -1.6270
11159TIP3    H254969   2.158   4.503   1.702  0.3548 -2.4427  0.0627
11160TIP3   OH254970   3.624   3.704  14.188 -0.1411  0.3226  0.3324
11160TIP3    H154971   3.535   3.714  14.155  0.6468  1.7672 -1.5649
11160TIP3    H254972   3.627   3.616  14.224 -2.1378  0.0094 -0.1809
11161TIP3   OH254973   3.338   3.171   5.609 -0.1893 -0.1192  0.0310
11161TIP3    H154974   3.289   3.235   5.557 -0.4934 -0.5579 -0.2283
11161TIP3    H254975   3.427   3.206   5.612 -0.6757  1.0740  1.1581
11162TIP3   OH254976   3.156   6.655  15.165 -0.3744 -0.1272 -0.2529
11162TIP3    H154977   3.073   6.608  15.170 -1.3391  1.4006 -1.0998
11162TIP3    H254978   3.131   6.746  15.151  1.4439  0.5022  0.3471
11163TIP3   OH254979   4.427   5.174  12.206 -0.2927  0.0991 -0.4618
11163TIP3    H154980   4.435   5.249  12.148 -2.4468 -1.4323 -2.9891
11163TIP3    H254981   4.402   5.212  12.291 -0.1945  2.2650 -1.3344
11164TIP3   OH254982   2.483   4.113   2.178 -0.2762  0.5840  0.3908
11164TIP3    H154983   2.560   4.151   2.220 -0.3806  1.2448 -0.0007
11164TIP3    H254984   2.505   4.112   2.085  0.0083 -0.9837  0.4451
11165TIP3   OH254985   5.828   3.612  16.526  0.1583  0.8948  0.0574
11165TIP3    H154986   5.902   3.649  16.574  0.3922  1.2939 -0.5960
11165TIP3    H254987   5.751   3.637  16.576  0.3428  1.9720 -0.1837
11166TIP3   OH254988   1.367   1.925   4.160 -0.1306 -0.1314 -0.2725
11166TIP3    H154989   1.356   1.887   4.247 -0.5822 -1.4778 -0.8894
11166TIP3    H254990   1.439   1.876   4.121 -1.7479 -1.5478 -1.6685
11167TIP3   OH254991   1.064   0.128  11.374 -0.2602  0.5675  0.5223
11167TIP3    H154992   1.002   0.054  11.374  0.0964  0.2673  0.3254
11167TIP3    H254993   1.135   0.100  11.317 -0.9530  1.7702 -1.0005
11168TIP3   OH254994   3.521   5.727   0.460  0.1981 -0.5056  0.1981
11168TIP3    H154995   3.563   5.789   0.519  1.4575  0.4925 -1.6400
11168TIP3    H254996   3.590   5.664   0.439  0.5639  0.5339 -2.0161
11169TIP3   OH254997   5.931   3.732  12.391 -0.3208  0.3507  0.6744
11169TIP3    H154998   5.942   3.637  12.401  0.8842  0.0817 -2.2736
11169TIP3    H254999   5.941   3.748  12.297  1.8130  3.6825  1.3052
11170TIP3   OH255000   1.508   2.505   0.415 -0.2677 -0.0238 -0.2529
11170TIP3    H155001   1.525   2.560   0.338 -0.1528 -1.3946 -1.2511
11170TIP3    H255002   1.591   2.461   0.433 -0.3373  0.1603  0.5709
11171TIP3   OH255003   6.375   3.239  15.941 -0.1045  0.0692 -0.5319
11171TIP3    H155004   6.459   3.286  15.942 -1.2412  2.2129 -0.7962
11171TIP3    H255005   6.399   3.147  15.958  2.0613  0.9712  2.0019
11172TIP3   OH255006   0.875   4.310   3.684  0.2529  0.1609  0.1992
11172TIP3    H155007   0.891   4.273   3.597 -1.4432  1.2830 -0.6546
11172TIP3    H255008   0.840   4.397   3.666 -0.0739  0.4331  2.0250
11173TIP3   OH255009   5.714   3.197   0.683 -0.2467  0.2974 -0.3972
11173TIP3    H155010   5.620   3.182   0.694  0.2652 -1.6821  2.5904
11173TIP3    H255011   5.738   3.249   0.760  1.6393 -2.5177  1.0504
11174TIP3   OH255012   1.127   5.163   3.778 -0.7818  0.5358 -0.3062
11174TIP3    H155013   1.122   5.085   3.721 -0.9620  0.8596 -0.7373
11174TIP3    H255014   1.144   5.127   3.865 -0.5028  0.0315 -0.5627
11175TIP3   OH255015   1.148   0.727  15.529 -0.2544  0.1739 -1.0579
11175TIP3    H155016   1.238   0.694  15.528 -0.5370 -0.6187 -1.0970
11175TIP3    H255017   1.109   0.693  15.449 -0.5997  0.4863 -1.0232
11176TIP3   OH255018   1.524   5.647   2.552 -0.8083  0.1486  0.0814
11176TIP3    H155019   1.497   5.648   2.460  0.9899  1.2277 -0.5099
11176TIP3    H255020   1.564   5.734   2.566 -0.8957 -0.0525  1.8356
11177TIP3   OH255021   4.837   6.195   1.321 -0.1941  0.2862 -0.0437
11177TIP3    H155022   4.794   6.220   1.403  1.3859 -0.1961  0.9834
11177TIP3    H255023   4.897   6.267   1.302  0.8433 -0.4617  0.3011
11178TIP3   OH255024   0.280   6.510  14.259  0.0206 -0.5265 -0.4041
11178TIP3    H155025   0.329   6.435  14.293  0.7369 -0.2809 -0.8759
11178TIP3    H255026   0.329   6.586  14.289  0.4922 -0.2975 -1.6772
11179TIP3   OH255027   0.608   1.667  12.563 -0.3326 -0.0217  0.8021
11179TIP3    H155028   0.517   1.649  12.538 -0.5561  1.3306  0.5534
11179TIP3    H255029   0.600   1.720  12.642  0.1500  1.8489 -0.3521
11180TIP3   OH255030   5.242   5.404  11.177 -0.1332  0.3252 -0.2228
11180TIP3    H155031   5.163   5.441  11.138  0.0014  2.8131  1.6314
11180TIP3    H255032   5.312   5.462  11.150  0.2958  0.8207  1.8220
11181TIP3   OH255033   6.623   4.172   5.754  0.3960  0.4209  0.0531
11181TIP3    H155034   6.661   4.084   5.749 -0.5577  0.0584 -2.3523
11181TIP3    H255035   6.657   4.217   5.676 -2.2328  0.8172 -0.9615
11182TIP3   OH255036   2.074   6.267   0.994  0.1151 -0.3738  0.2250
11182TIP3    H155037   2.106   6.198   1.052 -2.3224 -0.8771  1.1084
11182TIP3    H255038   2.029   6.220   0.924 -0.7958  0.2904  0.3507
11183TIP3   OH255039   1.571   0.920   5.211 -0.2710  0.2373  0.5345
11183TIP3    H155040   1.554   0.977   5.136 -1.6794  0.3712  0.9409
11183TIP3    H255041   1.506   0.851   5.204 -0.0349 -0.0709  1.3147
11184TIP3   OH255042   2.323   4.722   1.568  0.3842 -0.2953  0.7027
11184TIP3    H155043   2.272   4.646   1.597 -0.0453 -0.4988 -0.5101
11184TIP3    H255044   2.332   4.776   1.646  0.7104 -1.5899  1.6007
11185TIP3   OH255045   4.742   2.093  14.730 -0.0185  0.2328  0.3750
11185TIP3    H155046   4.779   2.055  14.810 -0.9057 -1.6808 -0.0606
11185TIP3    H255047   4.648   2.098  14.746 -0.1595  0.2233 -0.3775
11186TIP3   OH255048   4.652   3.958  12.188  0.1614  0.2191 -0.1809
11186TIP3    H155049   4.709   3.932  12.260  0.2207  0.5880 -0.0937
11186TIP3    H255050   4.687   3.910  12.112  0.6762  0.5513 -0.1592
11187TIP3   OH255051   3.511   5.626  16.462 -0.4628  0.1699 -0.4124
11187TIP3    H155052   3.561   5.622  16.381 -1.8367  1.4386 -1.3810
11187TIP3    H255053   3.547   5.556  16.516  0.7480 -0.4571 -1.9560
11188TIP3   OH255054   2.457   4.212   3.654 -0.0397  0.0675  0.0924
11188TIP3    H155055   2.498   4.288   3.612 -1.6022  0.6054 -0.5085
11188TIP3    H255056   2.510   4.198   3.733  0.3644  1.6902  0.1550
11189TIP3   OH255057   0.187   0.333  12.079  0.1449 -0.2158 -0.0579
11189TIP3    H155058   0.230   0.247  12.084  1.0272  0.0598 -1.9792
11189TIP3    H255059   0.256   0.396  12.101  0.4537  0.1699 -2.0230
11190TIP3   OH255060   1.871   5.650  12.804 -0.1586 -0.0714 -0.1621
11190TIP3    H155061   1.837   5.684  12.886 -3.0426 -2.6457 -0.1117
11190TIP3    H255062   1.865   5.723  12.743  0.0869  1.2923  1.3850
11191TIP3   OH255063   6.038   3.269   5.130  0.3062 -0.1602  0.0999
11191TIP3    H155064   6.091   3.348   5.120  0.1829 -0.0672  0.1891
11191TIP3    H255065   6.100   3.202   5.160  0.9827 -0.7813 -2.4236
11192TIP3   OH255066   2.547   0.130  13.824  0.3213 -0.2356 -0.4129
11192TIP3    H155067   2.456   0.115  13.848  0.7486 -0.2675  1.2876
11192TIP3    H255068   2.595   0.056  13.861  1.1389  0.1285 -0.6993
11193TIP3   OH255069   2.121   1.333  15.196 -0.0811  0.9536  0.2302
11193TIP3    H155070   2.164   1.248  15.201 -2.2026 -0.2278 -0.3480
11193TIP3    H255071   2.177   1.391  15.247  2.0816 -0.4780 -0.3886
11194TIP3   OH255072   1.753   3.477  13.809  0.1819 -0.2082 -0.8833
11194TIP3    H155073   1.683   3.423  13.772 -0.7253  0.8339 -0.7460
11194TIP3    H255074   1.735   3.478  13.903 -0.0161  0.6110 -0.9264
11195TIP3   OH255075   1.878   3.391  16.308  0.0942 -0.7511 -0.3499
11195TIP3    H155076   1.818   3.407  16.381  0.2285 -2.2065  0.1138
11195TIP3    H255077   1.895   3.296  16.311  0.9609 -0.6620 -1.6045
11196TIP3   OH255078   0.892   6.063   3.800  0.3309 -0.2806  0.3588
11196TIP3    H155079   0.917   6.036   3.888  1.6372 -0.9430 -0.1884
11196TIP3    H255080   0.922   6.154   3.794  1.7278 -0.7279  0.0848
11197TIP3   OH255081   4.994   5.680  12.942  0.5987  0.7322 -0.3539
11197TIP3    H155082   5.047   5.676  13.022 -1.0434 -0.9190  0.7217
11197TIP3    H255083   4.963   5.771  12.939  0.0378  0.6368  1.3685
11198TIP3   OH255084   5.512   6.588  12.656  0.1508  0.1539 -0.1913
11198TIP3    H155085   5.604   6.574  12.634  0.0963 -2.0858  0.7606
11198TIP3    H255086   5.496   6.530  12.730 -2.3827 -0.6300 -1.2370
11199TIP3   OH255087   1.279   4.579  11.928  0.2985 -0.1426 -0.2025
11199TIP3    H155088   1.268   4.630  12.009 -0.6960 -0.6429 -0.0113
11199TIP3    H255089   1.352   4.521  11.947  0.7071  0.4181 -0.0149
11200TIP3   OH255090   6.281   6.243  14.076 -0.2503 -0.0813  0.1422
11200TIP3    H155091   6.218   6.206  14.014 -0.1657  0.8547 -0.5158
11200TIP3    H255092   6.228   6.274  14.149 -0.3622 -1.0482  0.4895
11201TIP3   OH255093   1.554   6.680  16.464  0.3467 -0.3740 -0.0438
11201TIP3    H155094   1.622   6.707  16.402  1.2003 -0.7388  0.6987
11201TIP3    H255095   1.485   6.745  16.453  1.5028  0.9759  0.3035
11202TIP3   OH255096   1.453   1.890   1.383  0.2305 -0.1338  0.7085
11202TIP3    H155097   1.489   1.814   1.428  0.1922  1.2955  3.3477
11202TIP3    H255098   1.365   1.862   1.356  0.7619 -1.4619  0.2436
11203TIP3   OH255099   3.259   1.461   1.849  0.4522 -0.4198 -0.2414
11203TIP3    H155100   3.215   1.524   1.906  0.3053 -0.3269 -0.4580
11203TIP3    H255101   3.323   1.514   1.801 -0.7077 -0.1426 -1.5468
11204TIP3   OH255102   4.514   3.094  12.801 -0.4035  0.4709 -0.5861
11204TIP3    H155103   4.504   3.188  12.787 -1.9696  0.0386 -3.1453
11204TIP3    H255104   4.429   3.066  12.835  0.2394  0.0254  0.7072
11205TIP3   OH255105   0.535   0.843   3.146 -0.5157 -0.4142 -0.2128
11205TIP3    H155106   0.581   0.784   3.205  1.0120  0.0739 -0.8633
11205TIP3    H255107   0.514   0.919   3.200  0.6835 -0.0596 -0.2097
11206TIP3   OH255108   5.335   0.127   5.986 -0.3743 -0.1648 -0.5591
11206TIP3    H155109   5.253   0.155   5.947 -0.7212  0.4497  0.5824
11206TIP3    H255110   5.402   0.153   5.922 -0.9098  1.0199 -0.6632
11207TIP3   OH255111   0.272   1.887  16.040  0.1742  0.5940  0.3245
11207TIP3    H155112   0.271   1.980  16.016 -0.2718  0.7026  0.7371
11207TIP3    H255113   0.192   1.852  16.001  1.2626 -0.0517 -1.4265
11208TIP3   OH255114   6.567   5.459   2.758 -0.1641  0.1339 -0.4293
11208TIP3    H155115   6.480   5.484   2.791  0.5564 -0.7066  2.4424
11208TIP3    H255116   6.550   5.417   2.674 -2.3028  1.8042 -0.9306
11209TIP3   OH255117   4.456   4.836   3.133 -0.2925 -0.2719  0.1355
11209TIP3    H155118   4.455   4.913   3.075 -0.8216  0.0708  0.5896
11209TIP3    H255119   4.547   4.831   3.164 -0.6641  1.3596  1.6481
11210TIP3   OH255120   4.866   5.644  14.471  0.7024 -0.2771 -0.0903
11210TIP3    H155121   4.832   5.565  14.513 -0.6037 -0.2802 -1.0714
11210TIP3    H255122   4.825   5.716  14.518 -1.1356 -0.2860 -1.5375
11211TIP3   OH255123   6.423   2.553  16.272 -0.0208 -0.2518 -0.4234
11211TIP3    H155124   6.436   2.509  16.356  0.1367  0.3703 -0.1170
11211TIP3    H255125   6.330   2.541  16.253 -0.0159 -0.5640 -0.2576
11212TIP3   OH255126   1.711   6.352   5.785 -0.2182 -0.2915  0.1154
11212TIP3    H155127   1.728   6.271   5.835 -0.5763  0.1423  0.9641
11212TIP3    H255128   1.787   6.407   5.806 -0.8859  0.2974  1.0586
11213TIP3   OH255129   4.030   2.812   5.523  0.1967  0.0318  0.4132
11213TIP3    H155130   3.969   2.859   5.580 -1.8251 -0.9830 -0.7926
11213TIP3    H255131   4.113   2.812   5.571 -0.4349  2.3663  1.6811
11214TIP3   OH255132   4.651   2.770   0.920  0.1199  0.2238  1.1040
11214TIP3    H155133   4.742   2.742   0.904 -0.6405 -2.2932  0.7378
11214TIP3    H255134   4.636   2.752   1.012  0.2549  1.5955  1.4173
11215TIP3   OH255135   1.216   3.693   2.308  0.1246  0.1379  0.4107
11215TIP3    H155136   1.291   3.719   2.360 -0.4425  2.2246  0.3008
11215TIP3    H255137   1.140   3.717   2.361 -0.4570  1.8026 -1.0576
11216TIP3   OH255138   2.773   3.625  15.643  0.1306  0.6122  0.4223
11216TIP3    H155139   2.800   3.580  15.563  0.5269 -1.9682  1.9075
11216TIP3    H255140   2.852   3.626  15.698 -0.3693  1.4804  1.1547
11217TIP3   OH255141   4.972   5.150  13.095  0.5708 -0.4379 -0.2985
11217TIP3    H155142   4.887   5.175  13.131  0.7012 -1.5709  0.8718
11217TIP3    H255143   4.957   5.064  13.056  1.1923 -0.6701 -0.0380
11218TIP3   OH255144   4.674   6.445   2.662  0.0490  0.3149 -0.2919
11218TIP3    H155145   4.668   6.389   2.740  0.9019  0.7158  0.0688
11218TIP3    H255146   4.725   6.393   2.599 -0.3629  0.1239 -0.4752
11219TIP3   OH255147   5.311   4.657   3.123  0.6425  0.0769 -0.5629
11219TIP3    H155148   5.277   4.654   3.034  0.0787 -0.6598 -0.3310
11219TIP3    H255149   5.376   4.727   3.122 -2.1744  2.9197 -0.5573
11220TIP3   OH255150   4.577   5.295  12.614  0.0577 -0.0671 -0.5116
11220TIP3    H155151   4.615   5.372  12.657 -1.1525 -0.1287  0.7511
11220TIP3    H255152   4.524   5.330  12.543  2.2444  0.0277 -2.1919
11221TIP3   OH255153   3.777   1.766  12.678  0.1246 -0.4519 -0.1219
11221TIP3    H155154   3.770   1.679  12.639 -0.8878 -0.7049  0.5682
11221TIP3    H255155   3.851   1.807  12.633  0.5104 -1.6002 -0.5775
11222TIP3   OH255156   3.858   2.453   2.121  0.6657 -0.2009 -0.3067
11222TIP3    H155157   3.897   2.431   2.205 -0.0052 -0.0863  0.0480
11222TIP3    H255158   3.855   2.549   2.120 -1.2558 -0.2068  0.4859
11223TIP3   OH255159   3.376   2.819   5.789  0.0162  0.3628  0.4077
11223TIP3    H155160   3.288   2.848   5.766 -0.4707 -2.1917 -1.4568
11223TIP3    H255161   3.364   2.730   5.821  1.7796  0.5468  1.7282
11224TIP3   OH255162   5.463   4.885   0.300 -0.1767  0.5145  0.3773
11224TIP3    H155163   5.440   4.905   0.391 -0.7804  1.6226 -0.0004
11224TIP3    H255164   5.448   4.791   0.291  1.4717  0.0437  1.8680
11225TIP3   OH255165   4.272   5.836  12.939  0.4828  0.2576 -0.5512
11225TIP3    H155166   4.233   5.923  12.933  0.7922  0.4172 -0.1813
11225TIP3    H255167   4.196   5.777  12.936  0.3124  0.5009 -1.5434
11226TIP3   OH255168   4.719   3.816  13.531 -0.2032 -0.2444 -0.1790
11226TIP3    H155169   4.629   3.812  13.500 -0.1622  1.0246 -0.5258
11226TIP3    H255170   4.753   3.899  13.496  0.6081  0.0618  1.2398
11227TIP3   OH255171   4.923   1.473  16.016 -1.1001  0.2448 -0.2713
11227TIP3    H155172   4.832   1.469  16.047 -1.6392  2.4249 -1.3921
11227TIP3    H255173   4.955   1.558  16.045  0.4674 -0.3154 -0.2754
11228TIP3   OH255174   6.314   5.286   0.203 -0.1202 -0.7908 -0.1552
11228TIP3    H155175   6.293   5.227   0.130  3.3572 -1.1466 -1.0529
11228TIP3    H255176   6.308   5.374   0.166 -2.2137 -0.7107  0.2979
11229TIP3   OH255177   4.434   1.756   1.954  0.6314  0.1346  0.0208
11229TIP3    H155178   4.498   1.692   1.984 -0.3196 -1.4208 -1.1039
11229TIP3    H255179   4.386   1.781   2.033  0.2048 -1.5153  0.3200
11230TIP3   OH255180   1.602   3.935   2.543  0.7900 -0.2393 -1.2038
11230TIP3    H155181   1.622   4.016   2.495  1.3072  0.5186  0.2450
11230TIP3    H255182   1.555   3.964   2.621  0.4985 -1.4008 -0.9236
11231TIP3   OH255183   0.295   0.696   3.447  0.0683 -0.0697  0.6703
11231TIP3    H155184   0.307   0.660   3.535  1.1566 -3.3328 -0.6435
11231TIP3    H255185   0.344   0.778   3.447 -2.1840  1.4905  3.7806
11232TIP3   OH255186   5.279   3.251  15.639  0.5846  0.7184 -0.3794
11232TIP3    H155187   5.192   3.212  15.648  0.2003  1.7774  0.7716
11232TIP3    H255188   5.270   3.312  15.566 -0.0805  1.8535  0.5970
11233TIP3   OH255189   2.649   0.954  12.940 -0.3661 -0.6263 -0.1201
11233TIP3    H155190   2.664   0.885  13.004  0.4980  0.7323  1.1931
11233TIP3    H255191   2.683   1.033  12.981 -0.7546  0.4856 -1.8375
11234TIP3   OH255192   4.047   1.824  16.772 -0.3088  0.6110 -0.2503
11234TIP3    H155193   4.095   1.899  16.737 -0.9290  2.1803  1.9963
11234TIP3    H255194   4.061   1.829  16.866  0.9499 -3.1035 -0.1071
11235TIP3   OH255195   0.081   1.654  15.625 -0.1872 -0.1388  0.2521
11235TIP3    H155196   0.030   1.573  15.632  1.7896 -1.5201 -0.1801
11235TIP3    H255197   0.032   1.709  15.565 -1.4289 -1.1675  0.2810
11236TIP3   OH255198   0.567   4.826  16.786  0.3159  0.0791 -0.2515
11236TIP3    H155199   0.641   4.846  16.844  0.3941  0.6437 -0.5256
11236TIP3    H255200   0.574   4.892  16.717  0.9405 -1.2971 -1.5597
11237TIP3   OH255201   2.635   6.659   1.046  0.4552  0.0081  0.0538
11237TIP3    H155202   2.682   6.681   0.966 -0.4738 -1.2359 -0.8742
11237TIP3    H255203   2.551   6.706   1.038  0.1265 -0.5757 -0.0007
11238TIP3   OH255204   5.481   1.182  11.537 -0.7953 -0.5948 -0.4435
11238TIP3    H155205   5.442   1.110  11.487 -2.3763  0.4583 -0.7801
11238TIP3    H255206   5.529   1.232  11.471  1.4111 -1.9619 -0.0119
11239TIP3   OH255207   0.632   5.840  12.746 -0.0930 -0.3810 -0.3199
11239TIP3    H155208   0.649   5.748  12.722  0.6952 -0.1513 -0.6904
11239TIP3    H255209   0.702   5.862  12.808 -1.1985 -0.4859  0.9973
11240TIP3   OH255210   5.442   5.023  16.232  0.0619  0.1584  0.0690
11240TIP3    H155211   5.438   4.972  16.151  0.0267 -1.7288  1.1877
11240TIP3    H255212   5.356   5.064  16.239  0.0005  0.1918 -0.7577
11241TIP3   OH255213   2.165   5.135  16.056 -0.6456  0.1991 -0.5450
11241TIP3    H155214   2.126   5.065  16.109 -1.2320  0.4635 -0.6147
11241TIP3    H255215   2.176   5.208  16.118  1.0230 -0.3019 -0.1916
11242TIP3   OH255216   0.379   6.809   0.893  0.1633  0.7546  0.7340
11242TIP3    H155217   0.390   6.904   0.885 -2.9331  1.1357 -0.7653
11242TIP3    H255218   0.284   6.796   0.882  0.6247 -2.6178 -0.2180
11243TIP3   OH255219   5.758   1.339  14.578 -0.4312  0.1474  0.1618
11243TIP3    H155220   5.663   1.334  14.584 -0.3698 -0.4120  0.6642
11243TIP3    H255221   5.777   1.433  14.583 -0.9181  0.2224  0.6047
11244TIP3   OH255222   6.006   4.636   0.282  0.0715 -0.5644  0.9732
11244TIP3    H155223   6.079   4.646   0.221  0.9233  2.5747  2.2913
11244TIP3    H255224   5.932   4.611   0.228  1.1772  0.4124 -1.1095
11245TIP3   OH255225   3.933   3.109   3.207  0.1996  0.4351  0.1789
11245TIP3    H155226   3.842   3.081   3.215  0.2292 -0.0419 -1.0161
11245TIP3    H255227   3.928   3.202   3.188  0.0105  0.6561  1.2439
11246TIP3   OH255228   0.197   1.967  16.400 -0.1668 -0.0027 -0.1479
11246TIP3    H155229   0.249   2.013  16.333 -1.4201  1.5476 -0.0944
11246TIP3    H255230   0.192   2.028  16.473 -1.8600 -0.2084 -0.0618
11247TIP3   OH255231   0.827   0.621   3.592 -0.5941  0.3475 -0.1093
11247TIP3    H155232   0.854   0.634   3.683 -1.0190 -0.8513  0.2185
11247TIP3    H255233   0.904   0.584   3.549 -1.2081 -1.8327  0.5075
11248TIP3   OH255234   4.418   4.705   0.947 -0.0053  0.2273 -0.5937
11248TIP3    H155235   4.504   4.723   0.909 -0.4641 -0.4715 -2.0483
11248TIP3    H255236   4.358   4.761   0.899 -0.2409  1.7145  1.3270
11249TIP3   OH255237   1.258   0.674   2.748  0.1363 -0.5439  0.3220
11249TIP3    H155238   1.181   0.674   2.805  0.5605  0.0217  0.9149
11249TIP3    H255239   1.225   0.698   2.662 -0.3687 -0.4487  0.5422
11250TIP3   OH255240   6.102   4.455  15.586 -0.6794  0.3956  0.5305
11250TIP3    H155241   6.162   4.424  15.518 -0.6171  1.3688  0.1250
11250TIP3    H255242   6.142   4.428  15.668 -1.5334 -2.1873  0.1752
11251TIP3   OH255243   2.780   6.730  16.310  0.4063 -0.0927  0.5782
11251TIP3    H155244   2.840   6.733  16.235  0.4416 -1.0752  0.5514
11251TIP3    H255245   2.826   6.675  16.374 -0.3196 -0.5785  0.6881
11252TIP3   OH255246   4.161   2.446  14.409 -0.8613  0.2041 -0.4576
11252TIP3    H155247   4.235   2.404  14.454 -1.6076  1.1628  1.8291
11252TIP3    H255248   4.193   2.533  14.386 -1.2617  0.6867  0.6958
11253TIP3   OH255249   5.275   2.912   3.497 -0.4263 -0.1872 -0.8780
11253TIP3    H155250   5.198   2.870   3.461 -0.9473 -0.7314  0.7904
11253TIP3    H255251   5.241   2.975   3.560  0.4442 -2.4559  2.0943
11254TIP3   OH255252   1.389   3.167   0.557 -0.7130  0.0804  0.5948
11254TIP3    H155253   1.436   3.250   0.548 -1.9643  1.0686  2.5791
11254TIP3    H255254   1.437   3.120   0.625 -0.1029 -0.8331 -0.4120
11255TIP3   OH255255   5.603   5.733   2.219  0.1372  0.1130 -0.3607
11255TIP3    H155256   5.692   5.765   2.231  0.1751 -0.1233 -0.0269
11255TIP3    H255257   5.552   5.775   2.289  0.0708 -0.0915 -0.2860
11256TIP3   OH255258   1.920   1.788   2.246 -0.5261 -0.0548 -0.2878
11256TIP3    H155259   1.854   1.778   2.178 -0.3715 -0.4715 -0.3769
11256TIP3    H255260   1.995   1.828   2.202 -0.2821 -0.6853 -0.4519
11257TIP3   OH255261   3.140   3.617  16.742  1.0014  0.3866 -0.3737
11257TIP3    H155262   3.218   3.568  16.765  0.2787 -0.4627  0.3256
11257TIP3    H255263   3.072   3.551  16.732  0.2651  1.1471 -0.5544
11258TIP3   OH255264   6.054   5.381   0.240  0.1174  0.2085  0.4145
11258TIP3    H155265   6.123   5.313   0.246  0.6225  0.6565 -0.2463
11258TIP3    H255266   6.085   5.440   0.172 -0.9491  0.4085  0.1014
11259TIP3   OH255267   5.729   4.821  11.852  0.1896 -0.0384 -0.9123
11259TIP3    H155268   5.695   4.841  11.939  2.9719  0.1251  0.2328
11259TIP3    H255269   5.777   4.900  11.826  2.5006 -1.3371 -0.9054
11260TIP3   OH255270   1.134   5.406   4.349  0.4533  0.3837  0.1927
11260TIP3    H155271   1.070   5.365   4.407  1.5087 -2.0382 -0.2379
11260TIP3    H255272   1.203   5.438   4.407  0.4847 -0.0813  0.4098
11261TIP3   OH255273   0.669   6.184  14.838  0.1071  0.0838  0.1686
11261TIP3    H155274   0.713   6.191  14.923  1.4339  1.6232 -0.6099
11261TIP3    H255275   0.581   6.218  14.854  0.8123  1.7888  0.6243
11262TIP3   OH255276   3.496   5.134   1.803 -0.1411  0.0785  0.8177
11262TIP3    H155277   3.545   5.182   1.869 -1.8487  0.7496  1.6802
11262TIP3    H255278   3.405   5.139   1.833 -0.8550 -0.4039 -1.1075
11263TIP3   OH255279   3.720   2.194  16.407 -0.2844  0.3036 -0.6602
11263TIP3    H155280   3.811   2.220  16.398 -0.5100  0.8365 -1.4515
11263TIP3    H255281   3.676   2.270  16.445 -1.2435  1.8608 -4.3667
11264TIP3   OH255282   6.072   2.234  15.487 -0.0558  0.1463 -1.0408
11264TIP3    H155283   6.030   2.207  15.405  0.5906  0.1442 -1.3865
11264TIP3    H255284   6.141   2.294  15.459 -2.2584  3.2660 -0.2249
11265TIP3   OH255285   1.470   6.216   2.897 -0.5266  0.0237 -0.3493
11265TIP3    H155286   1.527   6.239   2.970  1.1310  1.3981 -1.9708
11265TIP3    H255287   1.400   6.281   2.900 -0.7752 -0.2595  0.2934
11266TIP3   OH255288   4.130   4.603  11.974  0.1797 -0.6784  0.0218
11266TIP3    H155289   4.198   4.542  11.945 -0.3124 -1.2888  0.1354
11266TIP3    H255290   4.178   4.679  12.008  0.8156 -1.3665  0.6754
11267TIP3   OH255291   1.724   4.345  17.172  0.0878 -0.4206 -0.2023
11267TIP3    H155292   1.697   4.317  17.084 -2.0460 -0.6494  0.4727
11267TIP3    H255293   1.645   4.379  17.212  1.3717  1.2293  1.0917
11268TIP3   OH255294   4.835   0.472   1.119 -0.0669 -0.4244  0.4845
11268TIP3    H155295   4.883   0.547   1.084  4.2427 -2.1106  2.0453
11268TIP3    H255296   4.813   0.419   1.043  0.1471  0.6694 -0.3588
11269TIP3   OH255297   0.286   1.189   3.803  0.8976  0.0696 -0.3764
11269TIP3    H155298   0.250   1.272   3.771 -1.9278 -1.5518 -1.8497
11269TIP3    H255299   0.288   1.199   3.898  3.8516  2.9195 -0.5853
11270TIP3   OH255300   6.351   5.159   5.725 -0.5040  0.1113 -0.2963
11270TIP3    H155301   6.358   5.107   5.644 -0.3318 -1.3329  0.6171
11270TIP3    H255302   6.416   5.228   5.715 -0.3113 -0.1975 -1.2806
11271TIP3   OH255303   2.446   3.264  14.800 -0.0144  0.1389 -0.2844
11271TIP3    H155304   2.375   3.327  14.809  0.4212  0.7923 -1.2495
11271TIP3    H255305   2.461   3.258  14.705  2.9281  1.9773 -0.0525
11272TIP3   OH255306   6.034   4.614  17.125  0.2286  0.0287 -0.1523
11272TIP3    H155307   6.045   4.537  17.181 -0.2696  0.1140  0.0687
11272TIP3    H255308   5.955   4.595  17.074  2.7794 -1.9270 -3.8989
11273TIP3   OH255309   3.493   2.824  11.976  0.3116 -0.2481  0.0793
11273TIP3    H155310   3.498   2.913  11.941 -1.4822 -0.6220 -1.2614
11273TIP3    H255311   3.456   2.835  12.063 -2.9845  0.2046 -1.2231
11274TIP3   OH255312   4.153   1.055   3.676  0.1462 -0.4543  0.2478
11274TIP3    H155313   4.243   1.081   3.659 -0.0662 -1.0469 -2.1950
11274TIP3    H255314   4.100   1.121   3.632 -0.4994 -1.5906 -0.7752
11275TIP3   OH255315   4.227   6.203  12.608  0.5584 -0.4354 -0.1142
11275TIP3    H155316   4.226   6.112  12.578  1.1414 -0.5887  0.3064
11275TIP3    H255317   4.310   6.238  12.574  0.6114 -0.2327  0.2259
11276TIP3   OH255318   1.354   3.454  17.186  0.3897  0.1866  0.3536
11276TIP3    H155319   1.349   3.375  17.241  0.4654  1.2022  1.8869
11276TIP3    H255320   1.422   3.507  17.226 -1.2881  2.0930  0.8508
11277TIP3   OH255321   1.481   0.303   1.417 -0.1354 -0.0948 -0.1381
11277TIP3    H155322   1.575   0.291   1.425 -0.3956 -1.1722  1.9636
11277TIP3    H255323   1.461   0.377   1.474 -0.5800  0.0568 -0.4815
11278TIP3   OH255324   3.785   1.121  16.038 -0.1594  0.3504  0.4380
11278TIP3    H155325   3.791   1.124  15.943 -0.5256 -0.6232  0.3760
11278TIP3    H255326   3.852   1.182  16.068 -0.0367  0.6566 -0.4431
11279TIP3   OH255327   6.700   5.796  16.753 -0.6221 -0.7049 -0.0219
11279TIP3    H155328   6.785   5.753  16.767 -0.0179  0.1769 -0.8008
11279TIP3    H255329   6.636   5.735  16.789  0.2803 -1.7613 -0.1298
11280TIP3   OH255330   5.281   5.467  12.484 -0.0009  0.2721 -0.3094
11280TIP3    H155331   5.196   5.458  12.529 -0.5122 -4.0831 -1.6877
11280TIP3    H255332   5.264   5.529  12.413 -1.3848  1.1153  0.6976
11281TIP3   OH255333   0.877   4.328  13.331  0.0776  0.6073  0.3992
11281TIP3    H155334   0.855   4.418  13.355  0.3584  0.2049  2.3618
11281TIP3    H255335   0.972   4.323  13.338  0.0125 -0.0012  1.0273
11282TIP3   OH255336   3.266   3.528   5.766  0.1297  0.2828 -0.4837
11282TIP3    H155337   3.262   3.516   5.671  0.8862 -0.3213 -0.4513
11282TIP3    H255338   3.343   3.584   5.779  0.2711  0.0236 -0.2048
11283TIP3   OH255339   6.439   2.481   6.429 -0.0101  0.6605  0.3514
11283TIP3    H155340   6.451   2.387   6.414 -4.5189 -0.5287  2.6475
11283TIP3    H255341   6.488   2.499   6.509 -0.6576 -0.2090  0.9521
11284TIP3   OH255342   6.125   2.041  16.314 -0.4494  1.0158  0.1889
11284TIP3    H155343   6.038   2.070  16.284 -1.1550 -1.1713 -0.0780
11284TIP3    H255344   6.115   2.028  16.408 -0.0461  1.9100  0.3602
11285TIP3   OH255345   0.200   2.975   5.990  0.1679 -0.3303  0.0975
11285TIP3    H155346   0.119   3.016   5.958  1.9575  2.7079 -0.9248
11285TIP3    H255347   0.200   2.994   6.084 -0.2445 -0.2534  0.0844
11286TIP3   OH255348   6.259   5.727  14.507  0.3879 -0.1514  0.5036
11286TIP3    H155349   6.263   5.640  14.467 -0.8519 -0.2077  0.4507
11286TIP3    H255350   6.251   5.710  14.600 -1.1020 -0.1590  0.4032
11287TIP3   OH255351   2.894   3.444  14.431 -0.0129  0.3987 -0.4668
11287TIP3    H155352   2.824   3.495  14.470 -0.4214 -0.4075 -0.1214
11287TIP3    H255353   2.885   3.356  14.470  0.0683 -0.2031 -1.7543
11288TIP3   OH255354   5.101   4.142   3.885 -0.0381  0.2801  0.4788
11288TIP3    H155355   5.027   4.168   3.940 -0.0692  0.4852  0.3422
11288TIP3    H255356   5.166   4.108   3.946 -0.4033 -0.2719  0.5623
11289TIP3   OH255357   5.213   3.754  11.205  0.2762  0.0440 -0.6706
11289TIP3    H155358   5.284   3.806  11.168 -1.2160  1.0104 -2.3634
11289TIP3    H255359   5.251   3.666  11.216  2.1884  0.9121  0.1199
11290TIP3   OH255360   2.583   4.330   1.007  0.3732 -0.5343  0.1794
11290TIP3    H155361   2.497   4.322   0.964 -0.1703 -0.2791  1.1878
11290TIP3    H255362   2.615   4.416   0.980  0.8672 -1.0966 -1.1399
11291TIP3   OH255363   6.620   0.162   2.530 -0.0714 -0.4666 -0.2158
11291TIP3    H155364   6.587   0.215   2.603 -0.6029 -1.5752  0.3683
11291TIP3    H255365   6.692   0.111   2.567 -0.9083 -1.6891 -0.2089
11292TIP3   OH255366   3.743   3.554  16.355 -0.2559  0.3533  0.0787
11292TIP3    H155367   3.763   3.644  16.332 -0.2385  0.7151  1.4283
11292TIP3    H255368   3.766   3.547  16.448  1.1041 -1.4323 -0.3404
11293TIP3   OH255369   3.045   5.925   0.870  0.4411  0.1395 -0.2903
11293TIP3    H155370   3.098   5.876   0.807 -0.5180 -0.2815 -0.7867
11293TIP3    H255371   2.985   5.976   0.816 -0.0115  0.2113  0.2767
11294TIP3   OH255372   1.733   4.171   0.298 -0.0180  0.3658 -0.0117
11294TIP3    H155373   1.690   4.183   0.214  0.3217 -2.5094 -0.7102
11294TIP3    H255374   1.776   4.254   0.315  0.1211  0.9675 -2.8218
11295TIP3   OH255375   0.530   3.319  12.520  0.5002  0.0432 -0.1497
11295TIP3    H155376   0.559   3.410  12.524  2.4811 -0.5677  2.6161
11295TIP3    H255377   0.607   3.270  12.492  0.3509 -1.0206  1.1799
11296TIP3   OH255378   2.969   4.365  15.860 -0.1815 -0.2118  0.6153
11296TIP3    H155379   2.934   4.276  15.861 -0.1414 -0.2382  0.0191
11296TIP3    H255380   3.063   4.353  15.849 -0.1230 -0.1069  0.9984
11297TIP3   OH255381   6.185   2.711  12.932 -0.5997 -0.4827  0.9755
11297TIP3    H155382   6.250   2.641  12.923 -0.3064  0.0196 -1.4649
11297TIP3    H255383   6.101   2.668  12.916 -0.4841 -0.4540  0.2271
11298TIP3   OH255384   6.028   5.528  10.889  0.0614 -0.7343  0.0215
11298TIP3    H155385   6.020   5.538  10.794  0.7832  1.9650  0.1571
11298TIP3    H255386   5.938   5.515  10.920 -0.1192 -2.2214 -1.0416
11299TIP3   OH255387   5.000   2.276   2.142 -0.5676  0.3170 -0.5284
11299TIP3    H155388   4.981   2.225   2.064  3.5056 -2.1623 -0.1969
11299TIP3    H255389   5.082   2.321   2.123 -0.4354  1.1425  1.6353
11300TIP3   OH255390   0.118   5.718  16.751 -0.1143  0.5813 -0.1902
11300TIP3    H155391   0.167   5.659  16.694  2.6566 -0.0915  2.6003
11300TIP3    H255392   0.134   5.805  16.716  1.5830  0.1985 -0.4262
11301TIP3   OH255393   2.414   3.605   4.088 -0.3458  0.0348 -0.1081
11301TIP3    H155394   2.399   3.656   4.168 -0.7634 -0.8921  0.4119
11301TIP3    H255395   2.444   3.520   4.119  2.1769  0.5051 -1.0124
11302TIP3   OH255396   1.858   5.701  14.971  0.3667 -0.3850  0.0622
11302TIP3    H155397   1.844   5.751  15.052  0.4520 -0.0221 -0.1473
11302TIP3    H255398   1.937   5.650  14.989 -0.1241 -0.9919  0.5387
11303TIP3   OH255399   1.727   4.434  11.450  0.6215 -0.1847 -0.3068
11303TIP3    H155400   1.810   4.433  11.499  0.1459 -1.6693  0.5557
11303TIP3    H255401   1.661   4.457  11.515 -0.0432 -2.3279 -0.1475
11304TIP3   OH255402   3.903   2.697   4.445 -0.0809  0.3238  0.3853
11304TIP3    H155403   3.860   2.782   4.447 -0.5476  0.1026  0.0589
11304TIP3    H255404   3.979   2.709   4.387  0.3978  0.7552  1.0877
11305TIP3   OH255405   3.427   1.560  12.149  0.5619  0.7223  0.8507
11305TIP3    H155406   3.362   1.490  12.159  0.4713  1.0393  3.0435
11305TIP3    H255407   3.421   1.609  12.231  1.0746  2.9387 -0.3696
11306TIP3   OH255408   0.812   4.709   5.423  0.5238  0.0284 -0.0056
11306TIP3    H155409   0.759   4.781   5.457  1.2992  0.7174 -0.2029
11306TIP3    H255410   0.891   4.709   5.479  0.4613 -0.7788  0.0963
11307TIP3   OH255411   0.463   4.787   3.679  0.2742  0.2006 -0.2167
11307TIP3    H155412   0.531   4.832   3.629  0.4508 -0.2027 -0.3488
11307TIP3    H255413   0.386   4.791   3.623  1.0429 -2.2364 -1.6135
11308TIP3   OH255414   2.752   4.460  16.137 -0.2115 -0.5154 -0.7269
11308TIP3    H155415   2.723   4.548  16.114  2.5387  1.0599  1.1265
11308TIP3    H255416   2.846   4.460  16.116  0.9511 -1.2546  3.4065
11309TIP3   OH255417   1.516   3.027   2.991 -0.3590  0.2591 -0.0146
11309TIP3    H155418   1.549   3.105   2.946 -0.9877  0.5049 -0.0726
11309TIP3    H255419   1.582   2.960   2.975  1.3305  1.3501  1.8922
11310TIP3   OH255420   4.176   5.018   2.294  0.2772 -0.1821  0.9182
11310TIP3    H155421   4.264   5.040   2.264 -0.1039  1.1374  0.6859
11310TIP3    H255422   4.160   5.077   2.368 -0.5415 -0.1417  0.7252
11311TIP3   OH255423   0.013   5.711  17.146 -0.0071 -0.1409 -0.3149
11311TIP3    H155424  -0.045   5.736  17.074 -0.1075 -0.4653 -0.3484
11311TIP3    H255425   0.022   5.791  17.198 -0.5007 -0.0959 -0.2973
11312TIP3   OH255426   1.557   4.714   4.497 -0.2486 -0.1215 -0.0092
11312TIP3    H155427   1.514   4.647   4.443 -1.6187  1.0570 -0.4533
11312TIP3    H255428   1.565   4.673   4.583 -0.3637 -1.1233 -0.4527
11313TIP3   OH255429   0.515   6.003  13.317 -0.0391 -0.0014  0.3347
11313TIP3    H155430   0.489   6.093  13.334 -2.1969 -0.8517  1.9404
11313TIP3    H255431   0.581   5.984  13.384 -0.9431 -0.1491  1.2055
11314TIP3   OH255432   2.681   2.946  13.147 -0.2637  0.3273  0.0783
11314TIP3    H155433   2.755   2.894  13.115 -0.9114 -1.3574  1.1521
11314TIP3    H255434   2.663   2.910  13.234 -1.7040  1.3992  0.2618
11315TIP3   OH255435   2.605   0.932   1.178 -0.5528  0.0369 -0.0916
11315TIP3    H155436   2.515   0.900   1.181  0.6710 -3.8755 -0.1748
11315TIP3    H255437   2.642   0.908   1.263  0.2173  2.5888  0.3908
11316TIP3   OH255438   4.905   3.511   1.846  0.1032 -0.3278  0.3609
11316TIP3    H155439   4.908   3.417   1.827 -0.2077 -0.0574 -1.1959
11316TIP3    H255440   4.964   3.550   1.781 -0.1961  0.6007  0.6357
11317TIP3   OH255441   3.897   4.382   1.945 -0.5502  0.6816 -0.1735
11317TIP3    H155442   3.810   4.421   1.942  0.0839  2.0691 -1.1815
11317TIP3    H255443   3.927   4.397   2.035 -1.7005 -0.6940  0.4915
11318TIP3   OH255444   1.695   2.440  11.221  0.0656  0.0823 -0.1756
11318TIP3    H155445   1.656   2.525  11.197 -0.3647 -0.8444 -3.2008
11318TIP3    H255446   1.645   2.376  11.172  0.9138 -1.9016  1.4084
11319TIP3   OH255447   0.738   4.725  13.127 -0.1252  0.1623  0.0072
11319TIP3    H155448   0.680   4.688  13.194  2.4456 -1.3007  1.5978
11319TIP3    H255449   0.754   4.652  13.067  0.9972  0.1313  0.3128
11320TIP3   OH255450   1.421   0.083  16.498  0.1849 -0.5594  0.2203
11320TIP3    H155451   1.483   0.156  16.493 -2.4055  1.7056 -2.3177
11320TIP3    H255452   1.362   0.106  16.571 -0.2917 -0.3983 -0.2107
11321TIP3   OH255453   0.811   1.395  12.249 -0.6266 -0.2966  0.0153
11321TIP3    H155454   0.887   1.449  12.226 -0.9623 -0.4129 -1.5049
11321TIP3    H255455   0.806   1.400  12.344 -0.4836  2.1746 -0.0335
11322TIP3   OH255456   0.882   3.425  15.102 -0.2106  0.7092  0.9541
11322TIP3    H155457   0.814   3.446  15.038  0.7239 -0.8568 -0.6489
11322TIP3    H255458   0.860   3.338  15.133  1.3702 -0.1434 -0.1432
11323TIP3   OH255459   2.891   0.036   5.167  0.4761 -0.0223  0.3394
11323TIP3    H155460   2.939   0.106   5.123 -0.8956  1.8753  1.7314
11323TIP3    H255461   2.951   0.005   5.235  1.1095 -0.2889 -0.3205
11324TIP3   OH255462   4.056   4.792  15.146 -0.3850  0.0584  0.0606
11324TIP3    H155463   4.145   4.827  15.139 -0.7286  0.8093 -0.7069
11324TIP3    H255464   4.064   4.700  15.121 -0.0661  0.4983 -1.5841
11325TIP3   OH255465   4.806   0.273   4.239 -0.1710 -0.2928  0.2419
11325TIP3    H155466   4.742   0.338   4.208  0.0273 -0.5992 -0.8734
11325TIP3    H255467   4.846   0.314   4.316 -0.1873  0.8418 -0.3224
11326TIP3   OH255468   2.533   5.464   1.207  0.3922  0.3561 -0.4945
11326TIP3    H155469   2.580   5.382   1.218 -2.2715 -1.7258 -2.9445
11326TIP3    H255470   2.574   5.506   1.131  2.4592  2.0219  1.3899
11327TIP3   OH255471   0.357   4.033  13.010  0.0404  0.3405  0.0670
11327TIP3    H155472   0.444   4.015  12.976  0.3067  2.9167 -0.8557
11327TIP3    H255473   0.300   4.034  12.933 -1.0739 -2.2495  0.7482
11328TIP3   OH255474   4.330   4.017   5.263  0.0081  0.3953 -0.4702
11328TIP3    H155475   4.394   4.033   5.194 -0.0847  0.8929 -0.4418
11328TIP3    H255476   4.378   4.032   5.345 -0.1422  0.7690 -0.4488
11329TIP3   OH255477   4.466   4.526  13.688 -0.1168 -0.4369 -0.3210
11329TIP3    H155478   4.487   4.534  13.595 -1.2985 -2.5413 -0.8321
11329TIP3    H255479   4.452   4.433  13.702 -1.3426 -0.0275  1.6631
11330TIP3   OH255480   1.027   5.741  14.021 -0.9508  0.2259 -0.3565
11330TIP3    H155481   1.089   5.804  14.058  0.4341 -1.4140  0.2348
11330TIP3    H255482   1.020   5.766  13.929  0.5925  0.4890 -0.4285
11331TIP3   OH255483   0.603   5.029  14.398  0.9058 -0.0090  0.4978
11331TIP3    H155484   0.627   5.073  14.316  0.6566  0.2073  0.5376
11331TIP3    H255485   0.587   4.938  14.372  0.5259  0.1259  0.2470
11332TIP3   OH255486   3.740   5.894   1.620 -0.1157 -0.7327  0.1994
11332TIP3    H155487   3.741   5.821   1.558  1.0470 -1.3128  0.8481
11332TIP3    H255488   3.690   5.963   1.577  3.2522  0.1304 -2.8611
11333TIP3   OH255489   5.865   3.043  12.945 -0.1570  0.1555  0.3286
11333TIP3    H155490   5.880   3.057  13.039 -1.3750  1.4072  0.3745
11333TIP3    H255491   5.953   3.027  12.909  0.3148 -0.4272  1.6843
11334TIP3   OH255492   1.379   2.612  14.803  0.1827 -0.2918 -0.0917
11334TIP3    H155493   1.390   2.518  14.816 -2.3852 -0.5715  0.5541
11334TIP3    H255494   1.387   2.650  14.890 -1.2847 -0.2651  0.0633
11335TIP3   OH255495   4.261   2.375   0.217 -0.1689  0.1050 -0.4024
11335TIP3    H155496   4.180   2.420   0.241  0.0386 -0.3792  1.3562
11335TIP3    H255497   4.277   2.315   0.290  3.0638  1.8971  0.5510
11336TIP3   OH255498   1.845   2.293  11.570 -0.2567 -0.0893 -0.4897
11336TIP3    H155499   1.852   2.330  11.658 -2.4894  2.7163 -1.3362
11336TIP3    H255500   1.790   2.215  11.580  0.7371 -0.6431  0.7710
11337TIP3   OH255501   5.580   1.134  15.476 -0.3319 -0.4763  0.3869
11337TIP3    H155502   5.518   1.164  15.541 -0.1125  1.0841 -0.0939
11337TIP3    H255503   5.557   1.042  15.462 -1.6505 -0.2912  1.1905
11338TIP3   OH255504   2.543   5.285  16.625  0.6751  0.2045 -0.5201
11338TIP3    H155505   2.470   5.260  16.682  0.1324  0.8990 -0.8955
11338TIP3    H255506   2.620   5.243  16.665  0.2993  0.6053  0.6903
11339TIP3   OH255507   3.326   3.326  11.097  0.1969  0.1163  0.6648
11339TIP3    H155508   3.344   3.413  11.131  1.0158  0.0360  0.4672
11339TIP3    H255509   3.407   3.277  11.114  0.6283  0.0539 -1.3120
11340TIP3   OH255510   2.748   1.274  14.333 -0.0922 -0.1697 -0.0700
11340TIP3    H155511   2.732   1.357  14.288 -1.6251 -0.5260 -0.2214
11340TIP3    H255512   2.836   1.284  14.369  1.2534  0.1467 -3.1161
11341TIP3   OH255513   6.758   0.635  16.968  0.1939 -0.4910 -0.5325
11341TIP3    H155514   6.717   0.573  17.029 -1.8749 -0.2615 -1.5860
11341TIP3    H255515   6.794   0.704  17.024 -0.5469 -0.9097  0.4871
11342TIP3   OH255516   1.461   5.527   4.938 -0.0913  0.7175  0.2892
11342TIP3    H155517   1.396   5.468   4.977 -1.2054  1.8448  0.2114
11342TIP3    H255518   1.414   5.610   4.928  0.3735  0.7328 -2.6536
11343TIP3   OH255519   5.057   1.497   1.925  0.5512 -0.0158 -0.1983
11343TIP3    H155520   5.090   1.499   1.835  1.5840 -1.7702  0.0901
11343TIP3    H255521   4.981   1.555   1.925 -0.0538 -0.7311 -2.4524
11344TIP3   OH255522   6.508   2.029   3.918  0.1279  0.1269  0.0401
11344TIP3    H155523   6.435   1.997   3.865  0.6859 -0.3099 -0.4757
11344TIP3    H255524   6.469   2.095   3.975 -0.9602 -1.0568  0.7447
11345TIP3   OH255525   0.425   1.785   1.385  0.0541 -0.3538  0.5857
11345TIP3    H155526   0.460   1.696   1.394 -0.0410 -0.6000 -1.2444
11345TIP3    H255527   0.495   1.835   1.343 -0.4959  0.0183  0.0943
11346TIP3   OH255528   3.485   4.210  17.085 -0.2651  0.7210  0.2736
11346TIP3    H155529   3.455   4.233  17.173 -0.1858  1.5949  0.0812
11346TIP3    H255530   3.543   4.282  17.060  0.7837 -0.1910  0.0346
11347TIP3   OH255531   4.992   0.062  12.539 -0.1961  0.2782 -0.8663
11347TIP3    H155532   4.898   0.054  12.558 -0.2646  2.3625 -0.0459
11347TIP3    H255533   5.002   0.150  12.504  1.3307 -0.2932 -1.9512
11348TIP3   OH255534   4.834   0.099   5.284 -0.0311  0.6214  0.3448
11348TIP3    H155535   4.894   0.029   5.259  2.1024  2.1455  0.9554
11348TIP3    H255536   4.785   0.064   5.359 -1.7437 -1.5248 -1.6226
11349TIP3   OH255537   2.196   4.808   1.347 -0.0539  0.6060 -0.2557
11349TIP3    H155538   2.247   4.776   1.421 -1.0228 -1.4600 -0.4138
11349TIP3    H255539   2.243   4.886   1.317  1.1708  0.6387  1.5886
11350TIP3   OH255540   0.755   4.886  17.009  0.2335 -0.6437  0.1647
11350TIP3    H155541   0.828   4.928  16.964  0.2617 -1.4436 -0.5706
11350TIP3    H255542   0.795   4.811  17.053 -0.0393 -0.7046  0.3105
11351TIP3   OH255543   3.345   3.790  13.334  0.1973 -0.2435  0.1428
11351TIP3    H155544   3.296   3.758  13.259  0.4605 -0.8035  0.2002
11351TIP3    H255545   3.436   3.792  13.304  0.4204 -1.2898  0.6933
11352TIP3   OH255546   4.103   0.482   0.584  0.1246 -0.2450  0.3447
11352TIP3    H155547   4.070   0.525   0.663  1.9282  0.0411  0.9680
11352TIP3    H255548   4.026   0.438   0.548 -1.9155  3.5113 -0.4002
11353TIP3   OH255549   2.598   5.962  12.673  0.8878  0.1536 -0.6145
11353TIP3    H155550   2.572   5.878  12.636  0.6205 -0.2371  0.4184
11353TIP3    H255551   2.693   5.965  12.664  0.9630 -0.5423 -0.0844
11354TIP3   OH255552   3.575   4.653  17.041  0.1051  0.6653  0.7647
11354TIP3    H155553   3.541   4.741  17.024 -0.2113  0.5553  0.8211
11354TIP3    H255554   3.499   4.595  17.031  0.1788  0.4644  1.3296
11355TIP3   OH255555   4.123   3.149   2.080  0.2957 -0.2957 -0.6365
11355TIP3    H155556   4.097   3.058   2.062  0.8176 -0.7139  0.5684
11355TIP3    H255557   4.045   3.187   2.122  0.6958 -0.7817  0.6098
11356TIP3   OH255558   0.196   4.571  11.684  0.1857  0.7576  0.3393
11356TIP3    H155559   0.221   4.583  11.592 -2.3622 -1.2189 -0.7380
11356TIP3    H255560   0.247   4.637  11.731  4.6925 -0.7435 -1.8851
11357TIP3   OH255561   1.428   2.827   4.738  0.5567  0.1873  0.0900
11357TIP3    H155562   1.403   2.748   4.785  1.4160  0.0089  0.2761
11357TIP3    H255563   1.365   2.893   4.765 -1.1967 -0.8152 -1.3238
11358TIP3   OH255564   1.429   5.661  16.107 -0.2565 -0.1686  0.1893
11358TIP3    H155565   1.410   5.568  16.093  1.2297 -0.3058 -1.1848
11358TIP3    H255566   1.366   5.708  16.051 -0.7521 -0.3444  0.5909
11359TIP3   OH255567   5.412   1.612   1.439 -0.6239  0.2082  0.1259
11359TIP3    H155568   5.420   1.523   1.473  1.2593  0.8824  1.6969
11359TIP3    H255569   5.497   1.652   1.458 -1.3669  2.2967 -0.6570
11360TIP3   OH255570   2.634   6.829  11.242 -0.1391  0.3677 -0.3977
11360TIP3    H155571   2.605   6.895  11.179 -1.2423 -0.8376 -1.1917
11360TIP3    H255572   2.657   6.753  11.190 -0.4898 -0.4503  0.5907
11361TIP3   OH255573   5.717   1.973  13.524  0.3667 -1.0384 -0.0447
11361TIP3    H155574   5.806   1.972  13.557  1.0609  5.2897 -0.5026
11361TIP3    H255575   5.726   1.969  13.428  0.1433 -0.6345 -0.0854
11362TIP3   OH255576   1.014   5.348  12.972  0.2209  0.3691  0.1602
11362TIP3    H155577   1.033   5.431  13.016 -0.8016  1.7337 -1.8245
11362TIP3    H255578   1.100   5.314  12.947  0.6234  1.0545  0.5798
11363TIP3   OH255579   0.175   4.223   4.140 -0.4613  0.2031  0.0539
11363TIP3    H155580   0.192   4.226   4.046  1.8149  0.1505  0.3916
11363TIP3    H255581   0.080   4.233   4.148 -0.5869  1.3950 -2.1698
11364TIP3   OH255582   0.149   1.667  13.446  0.0965  0.0240 -0.7925
11364TIP3    H155583   0.134   1.676  13.352 -1.3869  1.3385 -0.4867
11364TIP3    H255584   0.102   1.587  13.471 -0.0224  0.0037 -1.0842
11365TIP3   OH255585   1.198   0.295   5.193 -0.0103  0.5314  0.4113
11365TIP3    H155586   1.258   0.295   5.118 -1.8803 -0.3203 -1.1434
11365TIP3    H255587   1.200   0.386   5.225 -0.2305  1.2680 -1.5461
11366TIP3   OH255588   4.597   3.276  11.415 -0.3074 -0.1702 -0.0441
11366TIP3    H155589   4.578   3.370  11.413 -1.2473 -0.3587 -0.2130
11366TIP3    H255590   4.521   3.235  11.374 -0.4366 -1.0927  1.0741
11367TIP3   OH255591   1.446   1.496  13.545 -0.0366 -0.4571 -0.6962
11367TIP3    H155592   1.432   1.543  13.463 -1.1518 -3.0805 -2.1202
11367TIP3    H255593   1.541   1.487  13.551  0.2206  1.8629 -0.3637
11368TIP3   OH255594   5.972   3.087  13.189  0.0611 -0.3545  0.3020
11368TIP3    H155595   5.972   3.177  13.223  1.8923 -1.2562  3.0067
11368TIP3    H255596   5.953   3.033  13.265  0.8384 -2.3669 -0.8612
11369TIP3   OH255597   2.242   0.659  11.962  0.5054 -0.1907  0.4708
11369TIP3    H155598   2.176   0.667  12.031  0.3873  0.7003  0.2630
11369TIP3    H255599   2.209   0.589  11.906 -0.4003  0.4092  0.2328
11370TIP3   OH255600   4.976   5.185  16.036 -0.6001 -0.2957  0.1677
11370TIP3    H155601   4.930   5.127  15.975 -4.8767  0.8261  1.9458
11370TIP3    H255602   4.999   5.262  15.984 -1.5859 -0.5357 -0.6613
11371TIP3   OH255603   5.939   0.993   2.362  0.3726 -1.1219  0.0838
11371TIP3    H155604   5.979   0.941   2.293  2.0152 -0.2244  0.3158
11371TIP3    H255605   6.012   1.019   2.419 -0.6445 -0.1091  0.9968
11372TIP3   OH255606   6.711   3.450  15.085 -0.3788 -0.1869  0.7493
11372TIP3    H155607   6.655   3.468  15.009 -1.5408 -2.6771  0.9237
11372TIP3    H255608   6.689   3.361  15.110  2.4119 -0.6206  1.9866
11373TIP3   OH255609   2.505   4.912  16.876  0.4781  0.9030  0.1192
11373TIP3    H155610   2.412   4.918  16.852  0.4270  1.6297  0.4849
11373TIP3    H255611   2.532   4.827  16.842 -0.0970  1.0560 -0.7862
11374TIP3   OH255612   3.313   2.565  11.300 -0.0511  0.3978 -0.4397
11374TIP3    H155613   3.379   2.634  11.295 -1.8986  2.2894  0.0902
11374TIP3    H255614   3.253   2.594  11.369 -0.2590 -2.3501  0.6619
11375TIP3   OH255615   5.731   2.705  15.384  0.0894  0.3838 -0.2630
11375TIP3    H155616   5.730   2.794  15.420  2.4794  1.0261 -1.5379
11375TIP3    H255617   5.788   2.712  15.307 -1.0177 -1.9189 -1.3862
11376TIP3   OH255618   1.301   0.097  12.780  0.7970  0.3933  0.7749
11376TIP3    H155619   1.337   0.185  12.772 -2.3625  1.7849 -0.1027
11376TIP3    H255620   1.264   0.095  12.868  1.2183 -0.2257  0.9402
11377TIP3   OH255621   2.005   3.128   5.190  0.1652 -0.0221  0.0438
11377TIP3    H155622   1.943   3.157   5.123 -0.5316  0.6772  0.9631
11377TIP3    H255623   2.033   3.041   5.161 -2.2072 -0.9300  0.2174
11378TIP3   OH255624   5.269   2.757   1.787 -0.3498 -0.3659  0.7675
11378TIP3    H155625   5.223   2.707   1.854 -0.3464 -2.1741 -0.5033
11378TIP3    H255626   5.212   2.754   1.711  0.8566 -0.7382 -0.1569
11379TIP3   OH255627   3.870   1.150  15.782 -0.3139 -0.0190 -0.2183
11379TIP3    H155628   3.822   1.233  15.789  1.1629  0.8508  0.0022
11379TIP3    H255629   3.852   1.121  15.692 -1.6989 -0.0326  0.0323
11380TIP3   OH255630   1.263   0.960   2.968 -0.2656 -0.0465  0.4163
11380TIP3    H155631   1.254   1.013   2.889 -1.5210 -1.2907 -0.3064
11380TIP3    H255632   1.175   0.957   3.005  0.3270  0.6258  1.9732
11381TIP3   OH255633   5.287   5.650   2.812  0.0626  0.6484  0.6503
11381TIP3    H155634   5.224   5.683   2.876 -1.0467  0.9470 -0.5603
11381TIP3    H255635   5.258   5.561   2.793 -0.1355  0.8517 -0.0490
11382TIP3   OH255636   2.764   2.591   2.191 -0.5140 -0.4707  0.7028
11382TIP3    H155637   2.692   2.599   2.253 -1.3519 -0.0914 -0.2852
11382TIP3    H255638   2.752   2.505   2.151 -0.2782 -0.5064  0.7101
11383TIP3   OH255639   0.526   5.349   3.072  0.2541 -0.6094  0.0578
11383TIP3    H155640   0.524   5.431   3.022  0.0806 -0.3893  0.4265
11383TIP3    H255641   0.547   5.376   3.161  1.3207 -1.0692 -0.0336
11384TIP3   OH255642   0.027   3.303   1.845 -0.0308 -0.4285 -0.0055
11384TIP3    H155643   0.095   3.326   1.909 -0.1124 -1.1284  0.3448
11384TIP3    H255644  -0.051   3.348   1.876 -0.7351 -2.7767  1.8888
11385TIP3   OH255645   4.593   1.466  11.453 -0.5229 -0.6730 -0.2100
11385TIP3    H155646   4.591   1.562  11.461  1.8124 -0.5194 -0.6707
11385TIP3    H255647   4.565   1.434  11.538 -1.7698  0.3908 -0.1816
11386TIP3   OH255648   0.275   3.613   0.473  0.1412  0.6882  0.1058
11386TIP3    H155649   0.345   3.647   0.529  0.3230  0.2200  0.1688
11386TIP3    H255650   0.313   3.612   0.385  0.3141  0.1816  0.1801
11387TIP3   OH255651   6.036   2.083   6.322  0.0091 -0.2770  0.2844
11387TIP3    H155652   5.976   2.156   6.334  0.5786  0.2350  0.0675
11387TIP3    H255653   5.981   2.010   6.294 -0.4813  0.2323 -0.0761
11388TIP3   OH255654   6.085   3.527   4.939 -0.1223 -0.5191  0.0697
11388TIP3    H155655   6.101   3.458   4.874  1.9962 -1.0438  1.0575
11388TIP3    H255656   6.119   3.606   4.900  1.7784 -0.9592  0.7239
11389TIP3   OH255657   3.742   0.850   4.029 -0.1405 -0.3329 -1.0997
11389TIP3    H155658   3.781   0.882   3.948  2.1539 -1.2618 -0.4374
11389TIP3    H255659   3.812   0.856   4.094 -0.9532 -2.4417  0.0818
11390TIP3   OH255660   2.799   6.751   2.230 -0.3012 -0.9158 -0.0102
11390TIP3    H155661   2.757   6.837   2.228 -1.4182 -1.4318 -0.0551
11390TIP3    H255662   2.753   6.701   2.163  0.6447 -1.4153 -0.2932
11391TIP3   OH255663   4.858   1.554  13.477  0.3050 -0.0113 -0.7231
11391TIP3    H155664   4.842   1.474  13.527 -0.0832 -1.2896 -2.8066
11391TIP3    H255665   4.853   1.624  13.543 -0.2073 -1.5901  1.0107
11392TIP3   OH255666   4.499   0.229   2.319  0.2393  0.1344  0.5052
11392TIP3    H155667   4.561   0.205   2.388 -1.5955 -4.1830  1.0161
11392TIP3    H255668   4.431   0.280   2.364  1.1285  0.9824  0.9093
11393TIP3   OH255669   5.887   0.278  15.481  0.2694  0.2442  0.0915
11393TIP3    H155670   5.938   0.355  15.509 -0.6349  0.5100  1.0495
11393TIP3    H255671   5.806   0.315  15.447 -1.2125 -0.3326  2.7512
11394TIP3   OH255672   4.339   4.438   0.805  0.1682 -0.0661  0.2129
11394TIP3    H155673   4.334   4.526   0.844  0.1770 -0.3832  0.9603
11394TIP3    H255674   4.255   4.426   0.762 -0.6977 -0.4851  1.9045
11395TIP3   OH255675   5.478   1.263  14.053  0.2594 -0.3044 -0.3854
11395TIP3    H155676   5.452   1.350  14.021  0.9753  0.8760  2.0282
11395TIP3    H255677   5.520   1.222  13.978  0.4586  1.6694 -1.4258
11396TIP3   OH255678   3.196   3.297  11.927  0.0628  0.0988 -0.1716
11396TIP3    H155679   3.237   3.267  11.845 -0.0970 -0.2456 -0.1264
11396TIP3    H255680   3.116   3.245  11.934 -0.1636  0.4644 -0.0361
11397TIP3   OH255681   5.921   2.674   1.077  0.0466  0.1866  0.1127
11397TIP3    H155682   6.009   2.683   1.111 -0.1232  1.0440  0.3351
11397TIP3    H255683   5.900   2.581   1.089  1.0123 -0.0794 -0.1994
11398TIP3   OH255684   0.002   1.559   6.455 -0.5597  0.2938 -0.4707
11398TIP3    H155685   0.005   1.647   6.417 -0.1916 -0.2002 -1.6558
11398TIP3    H255686  -0.085   1.526   6.432 -0.4862  0.1429 -0.5359
11399TIP3   OH255687   2.150   1.970  15.109  0.1944  0.5052 -0.2851
11399TIP3    H155688   2.168   2.052  15.063  1.1922  0.3322 -0.2285
11399TIP3    H255689   2.225   1.958  15.167 -0.4796  0.1138  0.5166
11400TIP3   OH255690   0.812   2.725   0.696  0.2922 -0.1638  0.2178
11400TIP3    H155691   0.782   2.815   0.681  0.7556 -0.2180 -1.2173
11400TIP3    H255692   0.873   2.731   0.769 -0.2972  0.5490  0.6682
11401TIP3   OH255693   2.622   2.560  14.082  0.0023  0.5158 -0.8142
11401TIP3    H155694   2.708   2.580  14.120 -0.7144 -1.4418  2.2075
11401TIP3    H255695   2.564   2.627  14.117 -0.2119  0.1963 -0.5567
11402TIP3   OH255696   2.161   1.891  14.089  0.1681 -0.5124  0.2066
11402TIP3    H155697   2.212   1.831  14.034 -0.7014 -0.8080 -0.2913
11402TIP3    H255698   2.119   1.950  14.027  1.1661  0.7576  0.7040
11403TIP3   OH255699   6.667   3.954  16.022  0.4641  0.0006 -0.8567
11403TIP3    H155700   6.729   4.015  15.982 -0.5492  0.7112 -1.4003
11403TIP3    H255701   6.593   3.953  15.962 -0.7023  0.3590  0.5189
11404TIP3   OH255702   4.555   4.057   4.245  0.3566  0.3730  0.1609
11404TIP3    H155703   4.531   3.981   4.192 -0.0526  0.0066  0.8599
11404TIP3    H255704   4.501   4.050   4.324  0.5842  1.1872  0.4021
11405TIP3   OH255705   1.205   2.264  11.227  0.2783  0.0023 -0.0683
11405TIP3    H155706   1.284   2.239  11.274  1.2941  0.7339 -1.2973
11405TIP3    H255707   1.236   2.323  11.158 -1.4183  0.8226 -0.1933
11406TIP3   OH255708   4.134   3.002   3.590 -0.7475 -0.0418 -0.1045
11406TIP3    H155709   4.066   3.046   3.539  0.2329  2.3521  0.5152
11406TIP3    H255710   4.126   2.910   3.566 -2.9236  0.4299 -1.4987
11407TIP3   OH255711   6.736   2.109   6.025  0.2253  0.3399  0.1044
11407TIP3    H155712   6.759   2.201   6.022  0.1268  0.3470 -0.8268
11407TIP3    H255713   6.728   2.089   6.118  0.4294  1.2198  0.3200
11408TIP3   OH255714   4.099   1.365   0.908 -0.5993 -0.2587 -0.0324
11408TIP3    H155715   4.089   1.459   0.924 -0.5099 -0.0229 -1.2204
11408TIP3    H255716   4.068   1.323   0.988  2.2187  0.8469  1.7609
11409TIP3   OH255717   3.369   3.740  14.083 -0.3681 -0.0791 -0.5052
11409TIP3    H155718   3.426   3.745  14.006 -0.3326  0.1025 -0.4669
11409TIP3    H255719   3.303   3.808  14.069 -1.4976 -1.2797 -1.2822
11410TIP3   OH255720   1.841   4.862  16.913 -0.7178 -0.0784  0.2785
11410TIP3    H155721   1.898   4.921  16.963 -0.5367 -0.1181  0.1223
11410TIP3    H255722   1.872   4.774  16.935  0.3643 -0.0632 -1.0592
11411TIP3   OH255723   5.204   5.436  10.160  0.0593  0.5241  0.3525
11411TIP3    H155724   5.246   5.521  10.147 -0.5104  0.6569 -0.7214
11411TIP3    H255725   5.210   5.421  10.254 -0.2122  1.9566  0.6225
11412TIP3   OH255726   4.511   4.250   2.547  0.0400  0.0499  0.4286
11412TIP3    H155727   4.520   4.245   2.642 -0.7370  1.1789  0.5815
11412TIP3    H255728   4.506   4.344   2.528  4.5215  0.1578 -1.1882
11413TIP3   OH255729   0.920   5.175  14.895  0.1147 -0.8978 -0.0882
11413TIP3    H155730   0.927   5.165  14.990  0.2164 -1.4366 -0.1507
11413TIP3    H255731   0.963   5.097  14.859  3.2653  0.8931 -0.6294
11414TIP3   OH255732   1.106   6.041   1.329  0.1355 -0.3109  0.1358
11414TIP3    H155733   1.070   6.128   1.312 -0.1440  0.0666  2.4197
11414TIP3    H255734   1.050   5.982   1.279 -0.5343  0.6983 -0.3314
11415TIP3   OH255735   0.707   3.198   3.780  0.0643 -0.3021  0.5001
11415TIP3    H155736   0.729   3.203   3.873 -0.8019 -1.8432  0.8344
11415TIP3    H255737   0.782   3.153   3.740  1.1622  1.7662  0.1308
11416TIP3   OH255738   6.658   4.387  16.931  0.4492  0.0464  0.4026
11416TIP3    H155739   6.725   4.353  16.871 -1.0150  1.9334 -2.5468
11416TIP3    H255740   6.688   4.475  16.953 -0.7191  0.7315 -0.5717
11417TIP3   OH255741   6.753   0.292  16.871  0.0879  0.3723 -0.1149
11417TIP3    H155742   6.698   0.289  16.949  1.2051  0.8939  0.7080
11417TIP3    H255743   6.698   0.335  16.805 -1.0513 -0.5503  0.2039
11418TIP3   OH255744   2.463   5.460  12.970 -0.0520 -0.1441  0.1478
11418TIP3    H155745   2.474   5.478  12.877  1.1963  1.0003  0.4919
11418TIP3    H255746   2.389   5.515  12.996  0.0138  0.0307 -0.0297
11419TIP3   OH255747   3.751   3.305   2.632  0.0484  0.2924 -0.4103
11419TIP3    H155748   3.810   3.378   2.612  0.0285  0.0840 -1.2588
11419TIP3    H255749   3.796   3.227   2.600  0.8304 -0.3204  1.9828
11420TIP3   OH255750   1.510   1.436   4.024  0.4272 -0.2228  0.5116
11420TIP3    H155751   1.549   1.413   3.939  1.8724  0.9486  0.8250
11420TIP3    H255752   1.490   1.351   4.064 -0.4545 -0.8025 -1.0425
11421TIP3   OH255753   2.741   4.780   1.446  0.4974 -0.8367 -0.4822
11421TIP3    H155754   2.650   4.756   1.427  0.3223  0.0763 -0.8674
11421TIP3    H255755   2.757   4.747   1.534 -1.4371  2.1766  1.1975
11422TIP3   OH255756   4.239   1.158   5.603 -0.5769 -0.5476 -0.2981
11422TIP3    H155757   4.209   1.194   5.520  2.0238 -1.1022 -1.5811
11422TIP3    H255758   4.217   1.065   5.598 -1.1986 -0.4306  0.0610
11423TIP3   OH255759   4.714   4.024  14.054  0.1811  0.0226 -0.3470
11423TIP3    H155760   4.710   4.075  14.134 -3.3287  0.3540 -0.5761
11423TIP3    H255761   4.725   3.934  14.083  1.2887  0.3634  0.3385
11424TIP3   OH255762   3.891   2.489   4.170 -0.2977 -0.9272  0.4935
11424TIP3    H155763   3.933   2.564   4.211 -0.4071 -0.2715 -0.5777
11424TIP3    H255764   3.928   2.413   4.216  1.4483 -0.3461  0.1141
11425TIP3   OH255765   6.046   5.553   0.935  0.1115  0.0762  0.5130
11425TIP3    H155766   6.118   5.587   0.882 -0.2255 -0.3122 -0.2107
11425TIP3    H255767   6.086   5.527   1.017  0.7251  0.2507  0.2719
11426TIP3   OH255768   0.008   2.714  12.344  0.3918 -0.5194  0.5525
11426TIP3    H155769  -0.048   2.654  12.394 -1.3356 -0.4377 -1.1495
11426TIP3    H255770  -0.053   2.765  12.292  1.9691  1.2368  0.3182
11427TIP3   OH255771   0.909   3.462  15.703 -0.0546  0.2576 -0.3104
11427TIP3    H155772   0.864   3.532  15.750  0.8047  0.7417 -0.1789
11427TIP3    H255773   0.986   3.444  15.757 -0.0032 -0.4388 -0.6067
11428TIP3   OH255774   4.151   2.366  12.946  0.2075  0.0249  0.4439
11428TIP3    H155775   4.120   2.448  12.984 -0.9975 -0.1982 -0.0208
11428TIP3    H255776   4.074   2.309  12.946  0.6867 -0.6429 -0.4935
11429TIP3   OH255777   3.824   2.525   4.710  0.1542 -0.1372 -0.1484
11429TIP3    H155778   3.744   2.531   4.762 -0.3240 -1.3695 -0.7063
11429TIP3    H255779   3.798   2.558   4.624  0.6726  0.9344  0.0925
11430TIP3   OH255780   0.987   1.706   6.886  0.7444  0.1400 -0.0014
11430TIP3    H155781   1.018   1.786   6.844 -1.9462  0.7045 -1.1337
11430TIP3    H255782   0.900   1.693   6.850  0.7042 -2.7792  0.9249
11431TIP3   OH255783   1.948   6.297  14.513 -0.5650 -0.1875 -0.0092
11431TIP3    H155784   1.931   6.235  14.442  0.6589  0.1450 -0.6336
11431TIP3    H255785   1.861   6.323  14.543 -1.1261 -0.3966 -1.3413
11432TIP3   OH255786   0.977   2.829   2.399  0.3605 -0.3562 -0.1244
11432TIP3    H155787   0.998   2.738   2.415 -0.7020 -0.3603  1.5011
11432TIP3    H255788   0.918   2.827   2.324 -1.4534 -1.2790  1.2477
11433TIP3   OH255789   4.235   2.862  11.142  0.3824 -0.1526  0.1164
11433TIP3    H155790   4.161   2.875  11.083 -0.1436 -0.7310  0.6372
11433TIP3    H255791   4.215   2.918  11.217  0.9794  0.4728 -0.1798
11434TIP3   OH255792   0.470   3.303  15.020  0.1719 -0.2796 -0.1520
11434TIP3    H155793   0.556   3.263  15.035  0.0095  0.1305  2.2363
11434TIP3    H255794   0.425   3.241  14.963  1.6820 -1.0252 -0.5898
11435TIP3   OH255795   2.507   5.415   5.628 -0.3229  0.4477  0.6937
11435TIP3    H155796   2.501   5.396   5.722 -1.0304 -2.9511  0.0985
11435TIP3    H255797   2.562   5.345   5.592  0.3168  1.9215 -1.3929
11436TIP3   OH255798   3.379   4.437  14.338 -0.3771 -0.1022 -0.2202
11436TIP3    H155799   3.293   4.471  14.314 -0.0710  0.4410 -0.5857
11436TIP3    H255800   3.377   4.430  14.433 -0.8527 -0.1716 -0.2333
11437TIP3   OH255801   0.972   1.307   0.061 -0.6278 -0.0149 -0.2273
11437TIP3    H155802   0.963   1.268  -0.025  0.5554 -2.3989  0.6438
11437TIP3    H255803   0.913   1.257   0.117 -0.6741  0.8623  0.5433
11438TIP3   OH255804   1.013   2.127   3.066  0.4077  0.6216 -0.4038
11438TIP3    H155805   1.108   2.114   3.071  0.2739  0.0314  2.0813
11438TIP3    H255806   0.976   2.039   3.073 -0.3153  0.9807  0.6344
11439TIP3   OH255807   3.601   1.658  11.970 -0.1624  0.1309 -0.3483
11439TIP3    H155808   3.533   1.698  11.915 -0.4165 -0.5534 -0.5416
11439TIP3    H255809   3.553   1.601  12.030  0.1165  0.8572  0.5878
11440TIP3   OH255810   5.522   3.276   1.957  0.0659 -0.1373  0.6454
11440TIP3    H155811   5.521   3.357   1.908 -0.4212 -0.1857  0.5742
11440TIP3    H255812   5.467   3.216   1.907 -0.3293 -0.2264  1.1705
11441TIP3   OH255813   1.841   5.547   0.481 -0.2692  0.2558  0.3022
11441TIP3    H155814   1.830   5.513   0.392 -0.5854 -2.1135  1.1913
11441TIP3    H255815   1.752   5.573   0.508 -0.1154  1.3157 -0.1841
11442TIP3   OH255816   0.949   6.598   3.765 -1.2099  0.0501 -0.1383
11442TIP3    H155817   0.938   6.693   3.772 -0.9866  0.1171 -0.6342
11442TIP3    H255818   0.929   6.578   3.674 -0.6478 -0.2888 -0.1941
11443TIP3   OH255819   5.412   4.884   2.823  0.2271  0.0510  0.3390
11443TIP3    H155820   5.378   4.916   2.907 -0.1875 -1.4849  0.7946
11443TIP3    H255821   5.349   4.913   2.758  0.3946  0.9982  0.5857
11444TIP3   OH255822   1.243   3.317  15.746 -0.1640  0.2263 -0.0066
11444TIP3    H155823   1.326   3.337  15.703  0.5833 -0.1697  1.1827
11444TIP3    H255824   1.195   3.400  15.747 -0.6644  0.0371 -2.4540
11445TIP3   OH255825   6.388   1.982  12.259  0.1136 -0.1155  0.1808
11445TIP3    H155826   6.439   2.017  12.186 -1.5524  2.4359  0.1190
11445TIP3    H255827   6.395   1.887  12.250  2.2677  0.1292 -1.5828
11446TIP3   OH255828   6.205   1.083  14.621 -0.2996  0.8827  0.3106
11446TIP3    H155829   6.272   1.023  14.654  1.3405  2.8036  0.6784
11446TIP3    H255830   6.130   1.069  14.678  0.2485 -0.3695  0.7670
11447TIP3   OH255831   3.599   2.437  15.588  0.4381  0.0590 -0.2067
11447TIP3    H155832   3.542   2.504  15.625  1.4320  1.0430 -0.4083
11447TIP3    H255833   3.565   2.354  15.623 -0.8133  0.6598  0.0286
11448TIP3   OH255834   6.444   2.412  17.042  0.3460  0.2239 -0.8716
11448TIP3    H155835   6.370   2.381  17.093  1.9041 -1.7896  0.3230
11448TIP3    H255836   6.452   2.505  17.064 -1.5829  0.3976 -0.7891
11449TIP3   OH255837   5.384   0.429  16.520  0.0393 -0.0960  0.1139
11449TIP3    H155838   5.368   0.353  16.464  2.4477 -0.5237 -0.1286
11449TIP3    H255839   5.472   0.414  16.556  0.2467  2.1790  0.7285
11450TIP3   OH255840   2.298   5.688  14.987  0.1789 -0.2042  0.3684
11450TIP3    H155841   2.271   5.714  14.899 -0.5230 -0.7203  0.4203
11450TIP3    H255842   2.220   5.646  15.025  0.9621 -1.5043  0.6154
11451TIP3   OH255843   4.406   1.586  12.107  0.4217 -0.6587 -0.3781
11451TIP3    H155844   4.318   1.551  12.094 -0.5530  1.1828  0.9304
11451TIP3    H255845   4.422   1.576  12.201 -0.1601  2.7656  0.2071
11452TIP3   OH255846   3.859   0.455   5.181  0.1476  0.3746  0.3759
11452TIP3    H155847   3.774   0.410   5.184 -0.3369  1.0329 -1.6225
11452TIP3    H255848   3.920   0.392   5.219 -0.9644 -0.8362  0.2561
11453TIP3   OH255849   3.690   3.996  16.693 -0.4104  0.0428 -0.6440
11453TIP3    H155850   3.741   4.032  16.766 -2.2350  0.1473  0.6500
11453TIP3    H255851   3.696   4.063  16.625 -0.4546  0.9737  0.2335
11454TIP3   OH255852   1.917   2.584  15.311  0.4038 -0.2318 -0.1473
11454TIP3    H155853   1.938   2.548  15.397 -1.9510 -0.9708  0.1855
11454TIP3    H255854   1.953   2.520  15.249 -0.2445 -1.1013  0.3591
11455TIP3   OH255855   6.336   2.551  14.329  0.7027 -0.0089  0.0427
11455TIP3    H155856   6.285   2.597  14.263  1.9440  1.3053 -0.0394
11455TIP3    H255857   6.291   2.571  14.412  0.4437  0.1958 -0.1442
11456TIP3   OH255858   3.793   0.800   1.157  0.7835 -0.2981  0.2573
11456TIP3    H155859   3.747   0.729   1.203 -1.1666  1.8252  1.8588
11456TIP3    H255860   3.822   0.858   1.226  1.5683  0.9042 -1.0363
11457TIP3   OH255861   4.112   6.244   2.546  1.1475 -0.1235 -0.0764
11457TIP3    H155862   4.017   6.236   2.537  1.2692 -0.5790 -1.0995
11457TIP3    H255863   4.124   6.300   2.622  0.0274  1.3935 -0.9518
11458TIP3   OH255864   6.357   4.286  12.880  0.3657  1.1111 -0.5760
11458TIP3    H155865   6.371   4.365  12.932  0.6899  0.8322 -0.2359
11458TIP3    H255866   6.441   4.271  12.837  1.3355 -0.7747  1.7490
11459TIP3   OH255867   5.765   4.514   5.557 -0.4679 -0.0236 -0.3261
11459TIP3    H155868   5.798   4.575   5.623 -0.4231 -1.0403  0.6258
11459TIP3    H255869   5.713   4.451   5.607  0.1455 -1.2341 -1.1518
11460TIP3   OH255870   6.000   4.269  16.152 -0.0774  0.0244 -0.8186
11460TIP3    H155871   6.043   4.282  16.068  0.4159 -1.3247 -0.7876
11460TIP3    H255872   5.913   4.308  16.140  0.9853  2.5633 -0.9479
11461TIP3   OH255873   4.970   4.828  14.491 -0.6861  0.7073  0.5169
11461TIP3    H155874   5.057   4.800  14.519 -0.0112  0.5748 -1.5574
11461TIP3    H255875   4.985   4.911  14.446 -1.4604  0.2137 -0.7054
11462TIP3   OH255876   6.057   3.485   4.415 -0.8054 -0.2856  0.3607
11462TIP3    H155877   5.995   3.465   4.485  0.6801 -4.4787  0.7353
11462TIP3    H255878   6.143   3.469   4.454  0.1956 -0.4443 -1.7875
11463TIP3   OH255879   2.861   4.519   4.250  0.2419  0.3906  0.0294
11463TIP3    H155880   2.889   4.587   4.312 -1.0340  0.5744  0.4393
11463TIP3    H255881   2.917   4.444   4.270  0.7433  0.8802  0.5042
11464TIP3   OH255882   2.552   6.456  12.972  0.1089  0.3238  0.6167
11464TIP3    H155883   2.562   6.360  12.967  5.3928  0.5350  1.4390
11464TIP3    H255884   2.566   6.486  12.882  1.9250  0.3711  0.8814
11465TIP3   OH255885   5.991   4.100  13.521 -0.5031 -0.2971  0.2094
11465TIP3    H155886   6.076   4.142  13.514 -0.2805 -0.7358  0.2603
11465TIP3    H255887   5.955   4.132  13.604  0.5483 -1.7826  1.3046
11466TIP3   OH255888   5.226   4.107  11.215 -0.6751  0.2876 -0.2771
11466TIP3    H155889   5.209   4.134  11.124 -2.2007 -1.7593 -0.6790
11466TIP3    H255890   5.320   4.091  11.218 -0.6673 -0.0372 -1.6358
11467TIP3   OH255891   5.031   6.432   3.003 -0.3304 -0.3770 -0.6051
11467TIP3    H155892   5.055   6.417   3.094  0.2559 -1.6072 -0.9416
11467TIP3    H255893   4.943   6.470   3.007  0.1910  0.7857  0.5001
11468TIP3   OH255894   4.904   4.143  15.269 -0.2195  0.2659 -0.2604
11468TIP3    H155895   4.811   4.143  15.250 -0.8302  2.0520  2.1503
11468TIP3    H255896   4.938   4.220  15.223  0.5456 -1.4163 -2.6919
11469TIP3   OH255897   5.475   1.978  15.197  0.5109  0.0523  0.6781
11469TIP3    H155898   5.533   1.902  15.189  0.3974  0.1209 -1.1622
11469TIP3    H255899   5.386   1.941  15.191  0.4344  0.2487  0.5834
11470TIP3   OH255900   4.815   3.520   6.507  0.1346  0.0550 -0.1775
11470TIP3    H155901   4.899   3.479   6.526 -0.1543 -0.0551  0.9346
11470TIP3    H255902   4.752   3.448   6.503 -0.0388  0.2054 -0.2124
11471TIP3   OH255903   6.516   0.303   2.989  0.2496  0.3424  0.3455
11471TIP3    H155904   6.502   0.364   3.060 -0.6509  2.3360 -1.4441
11471TIP3    H255905   6.487   0.218   3.023 -3.6128  1.8455  1.2526
11472TIP3   OH255906   1.826   4.596  11.811  0.0099 -0.4931  0.0810
11472TIP3    H155907   1.818   4.690  11.829  2.3900 -0.1620 -0.2282
11472TIP3    H255908   1.898   4.590  11.748 -0.6294 -2.4795 -0.5253
11473TIP3   OH255909   2.023   5.539  12.023  0.0937 -0.2230 -0.5668
11473TIP3    H155910   1.975   5.599  11.966 -0.2433  0.1771  0.1277
11473TIP3    H255911   1.955   5.481  12.059 -0.3076  1.7726  2.2181
11474TIP3   OH255912   2.069   0.096   3.495  0.2854  0.1715 -0.1644
11474TIP3    H155913   2.118   0.016   3.477 -1.1059 -1.1114  1.4052
11474TIP3    H255914   2.095   0.156   3.426  0.7723 -1.8945 -1.8862
11475TIP3   OH255915   3.594   3.503   5.909 -0.0838  0.0447  0.2226
11475TIP3    H155916   3.537   3.519   5.984  0.4779 -0.1802  0.7054
11475TIP3    H255917   3.609   3.408   5.910  0.6419  0.1534  0.3662
11476TIP3   OH255918   1.627   3.354  16.811 -0.1096 -0.8307  0.0016
11476TIP3    H155919   1.560   3.304  16.859  0.0228 -1.0414 -0.0302
11476TIP3    H255920   1.708   3.338  16.860 -0.1865 -0.1161  0.3690
11477TIP3   OH255921   3.172   2.283  16.443  0.3313 -0.4288 -0.4046
11477TIP3    H155922   3.166   2.230  16.522 -0.3504 -0.9084 -0.7697
11477TIP3    H255923   3.234   2.352  16.465 -1.3903  0.6720  1.2631
11478TIP3   OH255924   2.963   2.122  13.805  0.0503  0.2440 -0.1075
11478TIP3    H155925   3.044   2.163  13.776  1.1373 -1.6650  0.1036
11478TIP3    H255926   2.984   2.084  13.890 -1.0563 -0.3106 -0.0671
11479TIP3   OH255927   6.454   0.993  14.296  0.1693  0.1911 -0.0663
11479TIP3    H155928   6.517   1.046  14.247  0.8985 -0.4805  0.1225
11479TIP3    H255929   6.430   1.047  14.372 -0.1023  0.7734 -0.5655
11480TIP3   OH255930   4.712   3.921   3.901 -0.1197 -0.1830 -0.0199
11480TIP3    H155931   4.690   3.968   3.820 -0.6062 -2.3199 -1.1891
11480TIP3    H255932   4.636   3.933   3.957  1.3811  3.9513  1.5610
11481TIP3   OH255933   2.417   1.895   2.761 -0.2274 -0.3011 -0.2899
11481TIP3    H155934   2.461   1.970   2.721 -0.4687  0.7657  1.3293
11481TIP3    H255935   2.364   1.858   2.691  0.9580  0.1937 -1.4822
11482TIP3   OH255936   5.799   5.406  14.046 -0.1304 -0.1673  0.2777
11482TIP3    H155937   5.849   5.487  14.036 -1.3260  0.7077  1.1866
11482TIP3    H255938   5.709   5.430  14.025 -0.1728 -1.8150 -1.7272
11483TIP3   OH255939   0.462   2.028  14.228  0.3581  0.0315  0.3839
11483TIP3    H155940   0.522   1.954  14.239  0.2442 -0.1903 -0.3843
11483TIP3    H255941   0.484   2.088  14.299  0.8953 -0.4458  0.6303
11484TIP3   OH255942   6.179   4.070   4.787  0.0179 -0.3924  0.0517
11484TIP3    H155943   6.181   4.022   4.704 -0.6915  0.9804 -0.8022
11484TIP3    H255944   6.139   4.154   4.765  3.6054  1.7311  0.8921
11485TIP3   OH255945   3.102   2.829  15.615  0.1091 -0.4085 -0.2477
11485TIP3    H155946   3.159   2.879  15.674  1.8082  0.6389 -2.6332
11485TIP3    H255947   3.013   2.852  15.643  0.6817 -1.8499  3.4053
11486TIP3   OH255948   5.603   5.859   3.851  0.0854 -0.4239  0.1759
11486TIP3    H155949   5.695   5.882   3.837 -0.5170  1.4220 -1.1461
11486TIP3    H255950   5.569   5.841   3.763 -1.0370 -0.1544  0.5400
11487TIP3   OH255951   3.059   4.377   5.325 -0.3513  0.2254  0.3949
11487TIP3    H155952   3.047   4.416   5.411 -0.5988  0.0507  0.4399
11487TIP3    H255953   3.153   4.375   5.312 -0.2960 -0.1043  0.8230
11488TIP3   OH255954   2.306   2.217  14.595 -0.5366  0.0499 -0.2865
11488TIP3    H155955   2.264   2.294  14.632  1.2169  0.9788 -0.0944
11488TIP3    H255956   2.255   2.143  14.627 -1.4933  1.0652  0.5946
11489TIP3   OH255957   0.377   0.362  11.220  0.0988  0.6367 -0.5317
11489TIP3    H155958   0.387   0.450  11.184 -0.7672  0.7192 -0.5984
11489TIP3    H255959   0.300   0.368  11.277  0.6934  0.1980  0.3556
11490TIP3   OH255960   6.781   3.032   4.449  1.1990 -0.1609  0.1816
11490TIP3    H155961   6.797   3.106   4.508  0.6225 -0.1940  0.3764
11490TIP3    H255962   6.745   2.963   4.505 -0.2592  0.1316 -0.3621
11491TIP3   OH255963   1.019   1.746   5.441  0.8269  0.3092 -0.4451
11491TIP3    H155964   1.110   1.721   5.462  0.6186 -0.6351 -0.6357
11491TIP3    H255965   1.001   1.819   5.501  1.8463  0.7909 -0.6947
11492TIP3   OH255966   1.200   1.126   0.143 -0.3290  0.4060 -0.6052
11492TIP3    H155967   1.207   1.198   0.080  1.2252  0.3964 -0.4778
11492TIP3    H255968   1.240   1.159   0.223  0.4372 -0.5886 -0.5486
11493TIP3   OH255969   0.019   2.313   1.632  0.1910  0.3907  0.3274
11493TIP3    H155970   0.003   2.407   1.634 -1.4272  0.1382  0.8426
11493TIP3    H255971  -0.064   2.274   1.660  0.4556 -1.2259 -0.9767
11494TIP3   OH255972   4.998   0.325   1.683  0.0397  0.3586 -1.4032
11494TIP3    H155973   5.008   0.327   1.778 -1.3108  1.7217 -1.2440
11494TIP3    H255974   4.956   0.241   1.665  1.1197 -0.3049 -0.9082
11495TIP3   OH255975   3.510   4.820   0.090  0.1306 -0.0206  0.2818
11495TIP3    H155976   3.414   4.818   0.094  0.1466 -1.3361  0.4155
11495TIP3    H255977   3.534   4.893   0.147 -0.7284 -1.1406  2.1815
11496TIP3   OH255978   0.953   5.971  16.497  0.3423  0.7930  0.7456
11496TIP3    H155979   1.013   6.032  16.540  0.2405  0.8218  0.8497
11496TIP3    H255980   0.886   6.028  16.458 -0.5801  0.6809  2.1192
11497TIP3   OH255981   6.573   2.691  16.093  0.0774  0.1833 -0.7376
11497TIP3    H155982   6.543   2.637  16.166 -1.2146  2.3090  0.4292
11497TIP3    H255983   6.506   2.679  16.026 -1.8454  2.3488  0.6067
11498TIP3   OH255984   4.458   4.492   5.781 -0.2808 -0.1671  0.0300
11498TIP3    H155985   4.438   4.522   5.870  0.0464 -1.4063  0.5392
11498TIP3    H255986   4.389   4.429   5.761 -0.9282  0.8438 -1.0017
11499TIP3   OH255987   5.145   0.286   5.841  1.0504  0.3426 -0.2057
11499TIP3    H155988   5.072   0.338   5.807  0.4917  1.6654  2.7604
11499TIP3    H255989   5.153   0.213   5.779  0.2537  2.5795 -3.1840
11500TIP3   OH255990   6.095   2.253   0.465 -0.2686 -0.5951 -0.0253
11500TIP3    H155991   6.163   2.209   0.516  0.6610  0.7440 -0.0434
11500TIP3    H255992   6.089   2.203   0.383  2.6655  0.7588 -1.1932
11501TIP3   OH255993   6.184   6.825   5.321  0.1067 -0.3631 -0.4832
11501TIP3    H155994   6.279   6.822   5.311  0.0494  0.1230 -1.2180
11501TIP3    H255995   6.167   6.913   5.355  0.0643 -1.0670  1.4379
11502TIP3   OH255996   2.472   1.216  15.292  0.3842 -0.0184 -0.1199
11502TIP3    H155997   2.454   1.310  15.292  1.2696  0.1899 -1.7548
11502TIP3    H255998   2.390   1.175  15.265 -0.0250  0.2832  0.6744
11503TIP3   OH255999   5.038   5.645  17.086 -0.0861 -0.3039 -0.0291
11503TIP3    H156000   4.976   5.573  17.099 -1.5201  0.7315 -0.8654
11503TIP3    H256001   5.081   5.655  17.171 -2.3603  0.0976  1.1497
11504TIP3   OH256002   4.129   4.807  14.202  0.1280  0.3779 -0.8874
11504TIP3    H156003   4.135   4.855  14.119 -1.5804  1.1838 -0.5840
11504TIP3    H256004   4.167   4.867  14.266  1.0108 -0.0513 -0.9939
11505TIP3   OH256005   3.751   4.362  13.746 -0.1506  0.0973  0.0474
11505TIP3    H156006   3.673   4.411  13.720  0.0029 -0.0023 -0.6253
11505TIP3    H256007   3.744   4.355  13.841 -0.4421  0.9629  0.0984
11506TIP3   OH256008   6.070   0.122   3.269  0.0416  0.0670 -0.4005
11506TIP3    H156009   6.030   0.074   3.196 -0.1655  1.9070 -1.5677
11506TIP3    H256010   6.125   0.188   3.227  1.4437 -0.0521  1.1534
11507TIP3   OH256011   0.954   4.672  12.796  0.1919 -0.4634 -0.3141
11507TIP3    H156012   1.045   4.652  12.772  0.8728  0.6101  1.1763
11507TIP3    H256013   0.959   4.759  12.835 -1.1752 -1.1373  1.4645
11508TIP3   OH256014   1.405   5.890  14.873 -0.3097  0.0060 -1.1112
11508TIP3    H156015   1.453   5.938  14.806 -1.6225  0.0535 -2.0361
11508TIP3    H256016   1.474   5.853  14.929  0.8150 -0.1241 -2.5281
11509TIP3   OH256017   4.543   2.140   4.544  0.2959  0.1841  0.1502
11509TIP3    H156018   4.458   2.160   4.506  0.0480 -0.4880  0.3289
11509TIP3    H256019   4.585   2.081   4.480  0.5046  0.2694  0.2054
11510TIP3   OH256020   5.475   1.091  14.675 -0.0695 -0.0600  0.2114
11510TIP3    H156021   5.382   1.071  14.685 -0.0531  0.0917  0.7321
11510TIP3    H256022   5.503   1.115  14.763  0.2428  0.8497 -0.1288
11511TIP3   OH256023   1.201   2.196   1.969 -0.3944 -0.0212 -0.5361
11511TIP3    H156024   1.124   2.143   1.948 -0.8307  1.1591 -2.1363
11511TIP3    H256025   1.195   2.211   2.064 -0.7641 -1.9879 -0.2208
11512TIP3   OH256026   6.351   0.383  12.894 -0.1357 -0.1311 -0.0501
11512TIP3    H156027   6.270   0.387  12.843  0.3740  1.4976 -0.7990
11512TIP3    H256028   6.411   0.331  12.842 -0.5224 -0.9122  0.2692
11513TIP3   OH256029   0.091   1.034   2.613  0.0429  0.4022  0.3381
11513TIP3    H156030   0.140   1.094   2.557  1.6773  0.8981  2.1750
11513TIP3    H256031   0.007   1.022   2.568  2.0410 -1.2079 -3.4548
11514TIP3   OH256032   0.693   6.254   2.278  0.4241 -0.0052  0.4312
11514TIP3    H156033   0.692   6.170   2.233  1.0021  0.0702  0.2753
11514TIP3    H256034   0.601   6.282   2.279  0.2717 -0.4938  0.2234
11515TIP3   OH256035   4.909   6.427   0.699 -0.1827  0.7429  0.0726
11515TIP3    H156036   4.844   6.358   0.687  0.8273  0.0438 -1.7035
11515TIP3    H256037   4.983   6.383   0.742  1.2261  0.1331 -2.7175
11516TIP3   OH256038   2.553   4.652  15.788  0.6396  0.4347 -0.3278
11516TIP3    H156039   2.557   4.687  15.699  0.8569  0.2662 -0.3860
11516TIP3    H256040   2.645   4.646  15.815  0.5289  1.5449  0.3259
11517TIP3   OH256041   3.392   4.109  12.191  0.3629  0.0892 -0.2954
11517TIP3    H156042   3.399   4.121  12.286 -0.2512  2.2299 -0.4779
11517TIP3    H256043   3.473   4.063  12.168  0.5315 -0.4694  1.2469
11518TIP3   OH256044   6.445   1.729  11.219 -0.2419  0.0933 -0.0026
11518TIP3    H156045   6.369   1.670  11.216 -0.0894 -0.0647 -1.7668
11518TIP3    H256046   6.486   1.719  11.133  1.9768 -0.0717  1.0168
11519TIP3   OH256047   4.598   1.471  15.655 -0.1627 -0.5419  0.1671
11519TIP3    H156048   4.578   1.541  15.593  2.5073 -0.2289 -0.4532
11519TIP3    H256049   4.518   1.419  15.659 -0.5077 -0.5106 -3.4741
11520TIP3   OH256050   3.851   3.229  12.305 -0.7204  0.0044  0.1275
11520TIP3    H156051   3.944   3.252  12.306 -1.0991  1.6820  1.7603
11520TIP3    H256052   3.808   3.299  12.355 -3.1054  0.2070 -2.0279
11521TIP3   OH256053   1.712   6.383   4.939  0.2987 -0.3644  0.0162
11521TIP3    H156054   1.624   6.356   4.965  0.6017 -0.8045  0.6101
11521TIP3    H256055   1.764   6.373   5.018  0.6787  0.8480 -0.0699
11522TIP3   OH256056   5.224   2.783  10.392  0.0989 -0.1974 -0.0141
11522TIP3    H156057   5.229   2.876  10.370  2.3862 -0.4801 -0.9848
11522TIP3    H256058   5.285   2.741  10.331 -2.3683 -2.6307 -1.0048
11523TIP3   OH256059   6.677   6.839  11.487  0.8864 -0.0158  0.0972
11523TIP3    H156060   6.718   6.753  11.475 -0.1278 -0.4187 -0.5802
11523TIP3    H256061   6.686   6.882  11.402 -0.1366 -0.1411 -0.0864
11524TIP3   OH256062   0.952   2.125  14.627  0.1017  0.4271 -0.7796
11524TIP3    H156063   0.878   2.070  14.652 -0.0288  0.8723 -0.1662
11524TIP3    H256064   0.994   2.078  14.555  0.3326 -0.7303  0.1033
11525TIP3   OH256065   5.937   6.180  11.997 -0.0367  0.7067  0.1060
11525TIP3    H156066   6.000   6.108  12.006 -0.5814  0.0852 -0.8800
11525TIP3    H256067   5.970   6.231  11.923  0.1220  1.2465  0.5427
11526TIP3   OH256068   0.408   2.068  14.733 -0.4610 -0.2370 -0.1166
11526TIP3    H156069   0.476   2.117  14.780 -0.2498 -1.1102  0.4934
11526TIP3    H256070   0.365   2.135  14.679  1.3654  0.2290 -1.1001
11527TIP3   OH256071   0.765   2.860   4.486  0.5934 -0.6921  0.2021
11527TIP3    H156072   0.698   2.876   4.552 -0.7881  0.9226 -1.4774
11527TIP3    H256073   0.754   2.767   4.463  1.4046 -1.4024  2.4712
11528TIP3   OH256074   5.268   5.299   2.009 -0.5447 -0.4793 -0.3183
11528TIP3    H156075   5.307   5.280   1.925 -0.2084 -1.6721  0.0872
11528TIP3    H256076   5.205   5.369   1.991  0.4973  0.2396 -1.2873
11529TIP3   OH256077   1.158   5.341   0.165 -0.3297  0.6841 -0.7252
11529TIP3    H156078   1.103   5.267   0.190 -0.5332  1.2319  0.5659
11529TIP3    H256079   1.237   5.330   0.218 -0.0122  0.9471 -1.1398
11530TIP3   OH256080   4.921   6.066  14.824 -0.0837 -0.1513  0.3348
11530TIP3    H156081   4.849   6.066  14.761  1.4083  1.1885 -1.4828
11530TIP3    H256082   4.948   5.975  14.830 -1.0890 -0.4829  0.0590
11531TIP3   OH256083   5.329   1.450   4.654  0.5490  0.1222  0.7013
11531TIP3    H156084   5.380   1.372   4.673  0.6080 -0.2205 -0.6943
11531TIP3    H256085   5.385   1.503   4.597 -0.1342  0.3524  0.2188
11532TIP3   OH256086   1.531   0.027  11.037 -0.5727  0.0786  0.2255
11532TIP3    H156087   1.575  -0.045  10.994  0.1267  0.5008  0.2223
11532TIP3    H256088   1.442   0.026  11.001 -0.8963 -1.4261  1.0187
11533TIP3   OH256089   3.011   5.647  10.921  0.0349  0.0605  0.0251
11533TIP3    H156090   3.086   5.589  10.911 -0.7370 -1.3872  2.0236
11533TIP3    H256091   2.952   5.624  10.849 -0.4154 -1.9404  0.9895
11534TIP3   OH256092   5.575   6.655  15.752  0.3470  0.4951 -0.0031
11534TIP3    H156093   5.534   6.736  15.720  1.1010  0.9318  0.1100
11534TIP3    H256094   5.588   6.670  15.845 -0.8514 -0.3537  0.3274
11535TIP3   OH256095   1.250   0.491  15.902 -0.8150  0.2758 -0.0939
11535TIP3    H156096   1.278   0.577  15.869  0.2147 -0.4486 -1.1963
11535TIP3    H256097   1.301   0.428  15.851 -0.0271 -0.9646  2.0920
11536TIP3   OH256098   6.389   0.036  15.947  0.1288 -0.3580 -0.6844
11536TIP3    H156099   6.473  -0.009  15.945 -0.2963 -1.1549 -1.6941
11536TIP3    H256100   6.331  -0.024  15.994  0.3480  0.6415  0.9217
11537TIP3   OH256101   3.370   4.072  12.467 -0.2071 -1.2770  0.8915
11537TIP3    H156102   3.441   4.029  12.513  0.4103  0.1274  1.2982
11537TIP3    H256103   3.319   4.116  12.535  0.1199 -0.0287  0.3634
11538TIP3   OH256104   6.281   6.156   2.332 -0.1466  1.1368 -0.4222
11538TIP3    H156105   6.365   6.189   2.364 -0.9107  2.7721  0.0615
11538TIP3    H256106   6.221   6.169   2.406 -0.8085 -0.1122 -0.7119
11539TIP3   OH256107   0.296   5.405  16.211  0.5817 -0.0370 -0.3917
11539TIP3    H156108   0.352   5.351  16.267  1.1788 -0.9586 -1.8139
11539TIP3    H256109   0.257   5.342  16.150 -0.0865  0.9353 -0.9857
11540TIP3   OH256110   3.972   2.615  16.253 -0.2192  0.3106 -0.9767
11540TIP3    H156111   3.907   2.607  16.183 -3.5964  2.6417  1.5644
11540TIP3    H256112   3.952   2.544  16.313 -0.3105  0.8995 -0.2931
11541TIP3   OH256113   0.880   3.633  15.270  0.1816 -0.0127 -0.4384
11541TIP3    H156114   0.869   3.549  15.225  0.1495  0.2862 -0.9999
11541TIP3    H256115   0.802   3.642  15.324  0.1083 -0.2717 -0.5006
11542TIP3   OH256116   3.290   1.506   0.474  0.3166 -0.2916  0.2204
11542TIP3    H156117   3.266   1.414   0.473 -2.4828  0.3172  1.6260
11542TIP3    H256118   3.246   1.542   0.551  3.5508  1.7133  1.3418
11543TIP3   OH256119   2.182   5.323  11.995  0.0509 -0.6918  0.2959
11543TIP3    H156120   2.135   5.406  11.984  0.0199 -0.8588 -0.9547
11543TIP3    H256121   2.147   5.287  12.077 -1.9625 -0.7715 -0.5440
11544TIP3   OH256122   4.116   1.731   4.141 -0.2157 -0.2167  0.5293
11544TIP3    H156123   4.076   1.787   4.074  0.7669  0.8645  0.8047
11544TIP3    H256124   4.043   1.706   4.198 -0.4371  2.5885  1.6505
11545TIP3   OH256125   0.865   3.436  16.411 -0.4824 -0.2679 -0.4330
11545TIP3    H156126   0.787   3.439  16.355 -0.5223 -0.3546 -0.3832
11545TIP3    H256127   0.934   3.405  16.353 -0.3250  0.4815 -0.6627
11546TIP3   OH256128   6.045   2.672  17.109  0.2070 -0.0927  0.0386
11546TIP3    H156129   5.953   2.649  17.105  0.3941 -1.0910  1.0051
11546TIP3    H256130   6.085   2.624  17.037  0.2019 -0.9178  0.5672
11547TIP3   OH256131   3.063   5.285  12.259 -0.0652 -0.0910  0.2319
11547TIP3    H156132   3.139   5.324  12.215 -0.1219  0.0736  0.2774
11547TIP3    H256133   3.076   5.307  12.351  0.2320 -0.7337  0.3475
11548TIP3   OH256134   2.317   1.752   1.658  0.7630 -0.1473 -0.2587
11548TIP3    H156135   2.352   1.706   1.734 -0.0123  0.5434  0.5258
11548TIP3    H256136   2.390   1.752   1.595  1.1860 -1.3279  0.1985
11549TIP3   OH256137   5.141   6.511  15.852 -0.7434  0.1998  1.0734
11549TIP3    H156138   5.201   6.451  15.896  0.1024  0.1134 -0.1448
11549TIP3    H256139   5.058   6.501  15.899 -1.2783 -3.5021 -0.2970
11550TIP3   OH256140   1.429   1.353   1.254 -0.6119  0.5342  0.5199
11550TIP3    H156141   1.473   1.270   1.235 -0.8474  0.7841 -1.2910
11550TIP3    H256142   1.478   1.418   1.203 -1.3332  1.2677  0.7373
11551TIP3   OH256143   5.652   0.571   3.924 -0.4105  0.5868  0.0313
11551TIP3    H156144   5.655   0.485   3.881  0.8752  1.1735 -1.1589
11551TIP3    H256145   5.741   0.585   3.957 -0.7240  1.2678  0.6216
11552TIP3   OH256146   5.341   2.290   0.143 -0.2201 -0.2380 -0.2017
11552TIP3    H156147   5.275   2.233   0.182 -0.2189  0.4282  0.8138
11552TIP3    H256148   5.419   2.276   0.197 -0.3639  1.0828  0.3698
11553TIP3   OH256149   1.780   3.958   2.880 -0.1361 -0.8800  0.1387
11553TIP3    H156150   1.809   3.945   2.970 -1.2418 -0.3811  0.5870
11553TIP3    H256151   1.850   3.920   2.827 -0.1616 -2.5940  1.2235
11554TIP3   OH256152   1.450   4.629  14.231 -0.1758 -0.6458 -0.6355
11554TIP3    H156153   1.534   4.668  14.210 -0.2791  1.0656  1.6526
11554TIP3    H256154   1.465   4.582  14.314 -1.1051 -1.7331 -1.0508
11555TIP3   OH256155   6.254   0.260  11.366  0.5099 -0.1641  1.0657
11555TIP3    H156156   6.197   0.336  11.356 -0.0127 -0.7227 -0.5755
11555TIP3    H256157   6.307   0.259  11.286  1.4627 -0.7696  1.6830
11556TIP3   OH256158   4.700   2.258  15.607 -0.6441  0.6307 -0.2404
11556TIP3    H156159   4.673   2.189  15.547 -1.3895 -0.0662  0.8547
11556TIP3    H256160   4.677   2.225  15.694  1.3558  1.1409  0.5519
11557TIP3   OH256161   2.743   4.482  14.874 -0.1210  0.0104  0.1147
11557TIP3    H156162   2.710   4.540  14.805  0.0292  0.7686  0.6710
11557TIP3    H256163   2.828   4.518  14.898  0.9205 -1.6091 -0.9099
11558TIP3   OH256164   0.925   6.677  12.189 -0.7443  0.6214 -0.0938
11558TIP3    H156165   1.002   6.687  12.134 -1.1688 -2.8643 -1.5788
11558TIP3    H256166   0.948   6.719  12.272  1.7238  1.8893 -1.3475
11559TIP3   OH256167   4.226   5.191   0.867 -0.3695 -0.0840 -0.3080
11559TIP3    H156168   4.294   5.185   0.799  1.5508 -1.5681  1.6065
11559TIP3    H256169   4.234   5.280   0.900  0.1172 -0.0045 -0.6256
11560TIP3   OH256170   1.824   6.682   5.055 -0.0194 -0.3165 -0.2548
11560TIP3    H156171   1.906   6.668   5.007 -0.2721  0.2559 -0.8687
11560TIP3    H256172   1.781   6.754   5.009 -1.7489 -1.8193 -1.0921
11561TIP3   OH256173   3.690   5.917  15.127 -0.1788 -0.4874  0.1902
11561TIP3    H156174   3.694   5.852  15.056  0.5804  0.4674 -0.6741
11561TIP3    H256175   3.776   5.911  15.170 -0.8348 -1.4605  1.4322
11562TIP3   OH256176   4.617   6.116   1.141  0.3096  0.2217  0.4665
11562TIP3    H156177   4.593   6.192   1.195 -0.3018 -0.9554  1.9054
11562TIP3    H256178   4.707   6.096   1.167  0.9756  1.2464 -0.9132
11563TIP3   OH256179   2.138   1.612   2.047 -0.7053  0.4423 -0.5940
11563TIP3    H156180   2.064   1.623   1.987 -0.0716 -0.4085 -1.5776
11563TIP3    H256181   2.134   1.689   2.104 -2.3358  0.4106 -0.6135
11564TIP3   OH256182   6.659   1.756  16.126  0.1912  0.0870  0.0873
11564TIP3    H156183   6.713   1.818  16.173  1.7208  0.8585 -2.5186
11564TIP3    H256184   6.629   1.803  16.048 -0.9788 -1.5601 -0.5281
11565TIP3   OH256185   0.079   2.941   5.366  0.1121  0.4586  0.0406
11565TIP3    H156186   0.071   3.033   5.342 -1.1476  0.7379  1.4159
11565TIP3    H256187  -0.010   2.907   5.364  0.1275  0.0793  2.5146
11566TIP3   OH256188   0.698   4.943   2.470  0.1442  0.0962  0.4809
11566TIP3    H156189   0.681   5.035   2.491  1.2144  0.2315  0.8160
11566TIP3    H256190   0.790   4.941   2.446 -0.6097 -0.3144 -2.8486
11567TIP3   OH256191   6.095   0.264   0.692  0.2472  0.5671 -0.4514
11567TIP3    H156192   6.028   0.331   0.681 -0.1310  0.0513 -1.4127
11567TIP3    H256193   6.174   0.303   0.654  0.6554  1.3536  1.0880
11568TIP3   OH256194   1.752   2.585   6.321 -0.3477 -0.0278 -0.4082
11568TIP3    H156195   1.773   2.596   6.228  0.0511  1.8751 -0.1461
11568TIP3    H256196   1.669   2.537   6.322  0.6888 -1.9625 -1.6569
11569TIP3   OH256197   6.031   0.640   2.288  0.2071  0.3363  0.1883
11569TIP3    H156198   6.038   0.725   2.244  2.5073 -0.1459 -0.5257
11569TIP3    H256199   6.056   0.658   2.379 -1.0206  0.7044  0.4662
11570TIP3   OH256200   6.756   4.283   2.874  0.0159 -0.1679 -0.4672
11570TIP3    H156201   6.803   4.294   2.956 -3.5347 -0.8219  1.8789
11570TIP3    H256202   6.785   4.198   2.841  0.5083 -0.5345  0.8399
11571TIP3   OH256203   2.938   6.254   4.228  0.0513  0.5605  0.3483
11571TIP3    H156204   2.999   6.277   4.159  0.0062 -0.8112 -0.1749
11571TIP3    H256205   2.949   6.160   4.240  0.1093  0.7550  2.2626
11572TIP3   OH256206   2.762   1.374  10.465 -0.2083  0.1691  0.5717
11572TIP3    H156207   2.708   1.295  10.470  1.7847 -1.5881 -2.4025
11572TIP3    H256208   2.849   1.344  10.491  0.0742  2.1927  2.2216
11573TIP3   OH256209   1.321   2.579   4.112  0.9798 -0.3303 -0.5884
11573TIP3    H156210   1.416   2.584   4.123  0.9204  0.0885 -0.2488
11573TIP3    H256211   1.290   2.668   4.128  0.5731 -0.3672 -1.1627
11574TIP3   OH256212   0.863   3.899   4.592  0.4491 -0.3303  0.4058
11574TIP3    H156213   0.802   3.889   4.519  0.2476  0.4990  0.4508
11574TIP3    H256214   0.847   3.823   4.647  1.2234 -1.4341 -0.8530
11575TIP3   OH256215   6.473   1.969   0.652  0.1195  0.0408 -0.1954
11575TIP3    H156216   6.541   2.016   0.701  0.3198 -0.1793 -0.2589
11575TIP3    H256217   6.520   1.927   0.580 -0.3547  1.3325 -1.2902
11576TIP3   OH256218   3.716   3.152   0.722  0.0226 -0.2575  0.0312
11576TIP3    H156219   3.648   3.102   0.676 -1.3583 -1.6436  3.3061
11576TIP3    H256220   3.755   3.089   0.782  1.5659  1.4963  0.9461
11577TIP3   OH256221   5.173   0.397   4.252 -0.2364  0.3244 -0.7359
11577TIP3    H156222   5.259   0.439   4.251 -1.3372  2.9386  1.3424
11577TIP3    H256223   5.157   0.380   4.345 -1.5768 -1.0783 -1.1923
11578TIP3   OH256224   4.169   6.352   5.264 -0.3410 -0.2752  0.5803
11578TIP3    H156225   4.190   6.377   5.354  0.3407  1.8805 -0.1237
11578TIP3    H256226   4.196   6.427   5.211 -1.7552 -1.0267 -1.3258
11579TIP3   OH256227   2.672   4.793  13.353  0.1063 -0.6799  0.4209
11579TIP3    H156228   2.641   4.860  13.292  1.7235  0.9180  1.2255
11579TIP3    H256229   2.666   4.711  13.304  1.3296  0.5116 -1.9394
11580TIP3   OH256230   1.773   6.166  10.266 -0.1590  0.2833 -0.3133
11580TIP3    H156231   1.784   6.260  10.276 -0.3723  0.2557  0.2080
11580TIP3    H256232   1.840   6.141  10.201 -0.8896  0.9629 -1.3682
11581TIP3   OH256233   2.805   1.431   6.456  0.5824 -0.1176  0.2296
11581TIP3    H156234   2.807   1.480   6.538  0.3408  1.4030 -0.6277
11581TIP3    H256235   2.713   1.407   6.444  0.8194 -1.5248  1.0413
11582TIP3   OH256236   6.186   4.160   0.273  0.3332  0.3980  0.5279
11582TIP3    H156237   6.235   4.227   0.320 -0.5210  0.0829  1.9529
11582TIP3    H256238   6.111   4.141   0.330 -0.9179  0.1731 -1.1086
11583TIP3   OH256239   5.751   3.899  13.583  0.2433  0.1632  0.2628
11583TIP3    H156240   5.785   3.977  13.627  0.6895  0.9557 -1.3991
11583TIP3    H256241   5.821   3.834  13.595 -0.0188  0.0713  1.4353
11584TIP3   OH256242   4.806   2.839   4.865  0.4553 -0.0967 -0.3418
11584TIP3    H156243   4.829   2.884   4.784  2.8405  2.6602  1.6786
11584TIP3    H256244   4.880   2.779   4.881  1.0027  0.8271  0.7237
11585TIP3   OH256245   3.405   0.989   5.878  0.5849 -0.0430  0.2047
11585TIP3    H156246   3.491   0.970   5.839  0.9324  1.5949  0.0758
11585TIP3    H256247   3.394   0.922   5.945  3.2886  1.2993  2.1896
11586TIP3   OH256248   3.739   3.901   2.794 -0.3507 -0.1325  0.3480
11586TIP3    H156249   3.758   3.964   2.725 -0.4702  0.3379  0.7413
11586TIP3    H256250   3.764   3.817   2.757  0.3248  0.2081  0.0187
11587TIP3   OH256251   4.135   1.855  11.067 -0.4164  0.4101  0.0133
11587TIP3    H156252   4.220   1.830  11.032 -1.1719 -0.7818 -1.0617
11587TIP3    H256253   4.076   1.785  11.039 -2.2179  2.3001 -1.2372
11588TIP3   OH256254   3.101   6.002  10.906 -0.5088 -0.1172 -0.1568
11588TIP3    H156255   3.174   6.047  10.948 -1.3495 -0.3741  1.6557
11588TIP3    H256256   3.142   5.941  10.845  0.7159  0.9234 -0.4096
11589TIP3   OH256257   4.435   1.212  13.380  0.0307 -0.1751  0.3571
11589TIP3    H156258   4.419   1.286  13.438  0.5432  0.2338 -0.0065
11589TIP3    H256259   4.523   1.229  13.344 -0.6773  0.1126 -1.3211
11590TIP3   OH256260   5.519   5.867  12.297 -0.1869 -0.2776 -0.4247
11590TIP3    H156261   5.429   5.838  12.308 -0.2929 -0.1777 -1.0018
11590TIP3    H256262   5.541   5.910  12.380 -0.0957 -1.8014  0.3849
11591TIP3   OH256263   1.150   0.781  13.038  0.1344  0.0190 -0.6381
11591TIP3    H156264   1.242   0.768  13.064 -0.0160  1.0047  0.4581
11591TIP3    H256265   1.120   0.854  13.092 -1.3448 -0.3731 -0.8979
11592TIP3   OH256266   2.145   1.232   5.348  0.5439 -0.5321  0.2377
11592TIP3    H156267   2.093   1.152   5.354 -1.1820  0.5056 -0.2255
11592TIP3    H256268   2.173   1.235   5.257  0.9314 -0.7950  0.3468
11593TIP3   OH256269   2.944   0.274  12.903  0.3789 -0.1302  0.6905
11593TIP3    H156270   2.966   0.294  12.994  1.7718 -0.3922  0.4335
11593TIP3    H256271   3.021   0.229  12.869 -0.2472 -0.3148 -0.5370
11594TIP3   OH256272   3.126   2.934  14.778 -0.2708  0.3586 -0.2477
11594TIP3    H156273   3.035   2.956  14.757 -0.1032 -0.7068 -2.4233
11594TIP3    H256274   3.131   2.839  14.767  1.0902  0.3945 -0.1471
11595TIP3   OH256275   1.202   1.808  16.882 -0.8732  0.6313  0.0373
11595TIP3    H156276   1.281   1.839  16.926 -0.3497 -0.7229  0.0795
11595TIP3    H256277   1.131   1.835  16.941 -0.1915 -1.1384  1.8046
11596TIP3   OH256278   1.283   3.465  12.259 -1.0213 -0.0279 -0.1589
11596TIP3    H156279   1.298   3.558  12.242 -0.7857  0.1902  1.1587
11596TIP3    H256280   1.358   3.437  12.311  0.1600 -1.5915 -2.5111
11597TIP3   OH256281   0.422   0.250  14.085  0.1819  0.3504 -0.0041
11597TIP3    H156282   0.488   0.181  14.085 -0.3503 -0.1790 -1.2432
11597TIP3    H256283   0.473   0.331  14.082  0.7906 -0.0422 -0.7070
11598TIP3   OH256284   0.068   0.926   2.859 -0.0875  0.1942  0.3003
11598TIP3    H156285   0.078   0.981   2.781 -0.1155  0.0010  0.1607
11598TIP3    H256286   0.036   0.843   2.826  1.5718 -0.4841  0.3127
11599TIP3   OH256287   6.755   0.217  12.848 -0.7379  0.3859 -0.2141
11599TIP3    H156288   6.779   0.179  12.764 -1.1830 -0.7487  0.1585
11599TIP3    H256289   6.663   0.241  12.838 -0.7730  0.3097 -0.0783
11600TIP3   OH256290   3.517   6.537   0.563  0.1667 -0.2411  0.5653
11600TIP3    H156291   3.517   6.603   0.494  1.5291 -1.7430 -0.9749
11600TIP3    H256292   3.511   6.586   0.644  4.5363  2.1426 -0.2560
11601TIP3   OH256293   1.079   6.048   0.678 -0.1843 -0.6734 -0.1145
11601TIP3    H156294   1.139   6.116   0.709 -1.8307  0.3130  1.0564
11601TIP3    H256295   1.123   6.011   0.601  0.3803  2.3317 -1.3662
11602TIP3   OH256296   2.640   3.196   3.570 -0.0992 -0.4021  0.3056
11602TIP3    H156297   2.571   3.190   3.636 -0.2547  2.2417  0.4769
11602TIP3    H256298   2.599   3.241   3.496  1.7803  2.8653  1.0802
11603TIP3   OH256299   2.933   1.719   3.498 -0.0267  0.0401  0.0864
11603TIP3    H156300   2.845   1.755   3.488 -0.8958 -1.3427  2.1610
11603TIP3    H256301   2.946   1.712   3.592  1.9986 -0.5234 -0.1947
11604TIP3   OH256302   5.136   3.774  15.666 -0.2565  0.3168  0.3498
11604TIP3    H156303   5.075   3.705  15.691  0.0490 -0.7430 -1.7000
11604TIP3    H256304   5.220   3.731  15.658 -0.1222  0.8066 -1.3115
11605TIP3   OH256305   6.461   4.372  14.631 -0.2572  0.4845 -0.0627
11605TIP3    H156306   6.413   4.372  14.714  0.0201  0.3929  0.1029
11605TIP3    H256307   6.542   4.325  14.652 -0.9423 -1.1266 -0.8295
11606TIP3   OH256308   2.050   1.631  14.850 -0.0140  0.0397 -0.2531
11606TIP3    H156309   1.966   1.636  14.804 -0.8380  0.3454  1.2367
11606TIP3    H256310   2.028   1.600  14.938  1.5250 -0.5503 -0.0385
11607TIP3   OH256311   6.771   5.057  11.624  0.3796 -0.3912  0.2755
11607TIP3    H156312   6.688   5.102  11.612  1.7714  2.2368 -0.0882
11607TIP3    H256313   6.763   4.978  11.570 -0.8594  1.2004 -2.0275
11608TIP3   OH256314   1.419   3.228  16.941 -0.0971  0.0638  0.4875
11608TIP3    H156315   1.359   3.302  16.936  0.2076  0.2367 -1.3164
11608TIP3    H256316   1.386   3.175  17.014 -2.5328  0.0982 -0.4938
11609TIP3   OH256317   0.904   0.215  13.875 -0.7770  0.6021  0.1982
11609TIP3    H156318   0.983   0.269  13.876 -0.3896  0.0736  1.9074
11609TIP3    H256319   0.842   0.264  13.821  0.4239  1.4373 -0.4690
11610TIP3   OH256320   4.692   6.379  12.657  0.2504 -0.3546 -0.1990
11610TIP3    H156321   4.597   6.373  12.645  0.1787  1.5223 -0.8278
11610TIP3    H256322   4.720   6.289  12.673 -1.6949 -0.8806  0.5035
11611TIP3   OH256323   2.385   2.207   1.010 -0.7777  0.0363  0.4708
11611TIP3    H156324   2.428   2.142   1.065 -0.3723  1.1348  1.4982
11611TIP3    H256325   2.443   2.283   1.013 -0.1814 -0.1870 -2.3587
11612TIP3   OH256326   5.851   2.384   0.577  0.3589  0.0362 -0.0394
11612TIP3    H156327   5.927   2.333   0.547  1.4466  0.7718  1.3568
11612TIP3    H256328   5.793   2.319   0.617  1.5100 -0.2163  1.2948
11613TIP3   OH256329   2.869   6.824  11.610 -0.1712 -0.3178 -0.2394
11613TIP3    H156330   2.941   6.761  11.608 -0.3533 -0.5882  0.7813
11613TIP3    H256331   2.793   6.772  11.637  0.0805  0.6629  2.6623
11614TIP3   OH256332   4.610   1.493  16.060 -0.4422 -0.1046  0.1818
11614TIP3    H156333   4.613   1.531  16.148 -1.2873  0.5656 -0.0620
11614TIP3    H256334   4.525   1.451  16.055 -0.1332 -0.7037 -0.0950
11615TIP3   OH256335   2.737   0.734  12.427  0.5230  0.3427  0.1402
11615TIP3    H156336   2.654   0.741  12.379  1.0773  2.3649 -0.6469
11615TIP3    H256337   2.743   0.642  12.452 -2.3043  0.2740  0.8839
11616TIP3   OH256338   6.691   5.130  10.951  0.6874 -0.1846  0.8404
11616TIP3    H156339   6.659   5.121  10.861 -2.9304 -1.5406  2.0994
11616TIP3    H256340   6.643   5.205  10.986  0.0248 -1.2598  2.3471
11617TIP3   OH256341   1.890   0.402  11.544  0.3955  0.0231 -0.1159
11617TIP3    H156342   1.870   0.339  11.474  1.5171 -0.6706  0.1715
11617TIP3    H256343   1.914   0.482  11.497  0.5283 -0.2472 -0.5145
11618TIP3   OH256344   4.575   1.700  10.884 -0.0443 -0.2389 -0.2247
11618TIP3    H156345   4.585   1.705  10.979  0.2365  0.9270 -0.3080
11618TIP3    H256346   4.484   1.724  10.869  0.1536  0.4444 -0.3184
11619TIP3   OH256347   1.618   3.244  11.959  0.2909 -0.2196 -0.1233
11619TIP3    H156348   1.530   3.259  11.924  0.2287 -0.3222 -0.0120
11619TIP3    H256349   1.671   3.226  11.882  0.4540  0.9427 -0.3065
11620TIP3   OH256350   5.266   2.913   5.568  0.2204  0.3086 -0.2919
11620TIP3    H156351   5.216   2.854   5.625  1.0380  1.1198  1.3194
11620TIP3    H256352   5.283   2.861   5.490 -1.1065 -0.7791  0.0977
11621TIP3   OH256353   1.254   5.757   4.925 -0.4295 -0.3977 -0.0533
11621TIP3    H156354   1.168   5.799   4.930  0.1206  0.7387  0.2781
11621TIP3    H256355   1.291   5.769   5.012 -0.8251 -2.9376  0.5580
11622TIP3   OH256356   2.960   5.094   2.835 -0.0676 -0.0637 -0.3625
11622TIP3    H156357   2.934   5.056   2.751  0.4506 -2.3044  0.4237
11622TIP3    H256358   2.888   5.151   2.860 -0.6804 -0.1613 -1.8294
11623TIP3   OH256359   4.043   0.761  10.488  0.1047 -0.7616 -0.0946
11623TIP3    H156360   4.071   0.827  10.552 -0.9210 -0.5414  0.1366
11623TIP3    H256361   4.121   0.746  10.435 -0.1029  2.1182 -1.4268
11624TIP3   OH256362   1.070   2.886  12.077 -0.0232 -0.0680 -0.6143
11624TIP3    H156363   1.018   2.936  12.013 -0.2881  1.4355  0.7038
11624TIP3    H256364   1.140   2.947  12.103 -0.6046 -0.1849  1.3645
11625TIP3   OH256365   3.263   5.997  12.550 -0.1508  0.0691  0.0792
11625TIP3    H156366   3.202   5.936  12.509  0.3610  0.1834 -0.8975
11625TIP3    H256367   3.306   5.946  12.619 -1.4460  0.0394  0.8951
11626TIP3   OH256368   6.018   5.263   3.369  0.3242 -0.0259 -0.0375
11626TIP3    H156369   6.011   5.259   3.464  1.6414 -0.9168  0.0554
11626TIP3    H256370   6.111   5.250   3.351  0.5181  2.5645 -1.3578
11627TIP3   OH256371   3.172   5.138   4.893  0.0896  0.0692  0.4841
11627TIP3    H156372   3.191   5.172   4.806  1.7424 -3.6153 -0.7950
11627TIP3    H256373   3.188   5.212   4.952  0.3351  2.2912 -2.1922
11628TIP3   OH256374   4.186   1.589  13.338  0.0669  0.2510  0.0196
11628TIP3    H156375   4.126   1.612  13.409  0.0437 -0.0671  0.1052
11628TIP3    H256376   4.184   1.494  13.335  1.2788  0.1941  0.6389
11629TIP3   OH256377   0.738   2.861   5.419  0.6168  0.4591 -0.0213
11629TIP3    H156378   0.775   2.779   5.452  1.0571  0.8246  0.4060
11629TIP3    H256379   0.780   2.874   5.334 -0.0005 -0.1253 -0.4321
11630TIP3   OH256380   5.802   0.290   2.608 -0.2922 -0.3358 -0.0603
11630TIP3    H156381   5.849   0.215   2.647  0.9847 -1.2999 -3.1018
11630TIP3    H256382   5.860   0.319   2.537 -2.2513  1.4779 -1.0045
11631TIP3   OH256383   2.400   0.890   5.289 -0.4581 -0.3263  0.0089
11631TIP3    H156384   2.372   0.872   5.199  0.3272 -0.1805 -0.2748
11631TIP3    H256385   2.446   0.810   5.316  2.1184  0.7288 -0.8854
11632TIP3   OH256386   1.580   2.331   1.286  0.7144 -0.0576  0.3665
11632TIP3    H156387   1.563   2.295   1.199 -0.3524  2.1468 -0.3990
11632TIP3    H256388   1.500   2.314   1.335  0.1726  1.2616 -0.0243
11633TIP3   OH256389   5.405   4.421   5.531 -0.3238 -0.2103  0.3867
11633TIP3    H156390   5.345   4.447   5.601 -0.3098 -0.5981  0.5485
11633TIP3    H256391   5.492   4.433   5.568 -0.2883  0.6361  0.0479
11634TIP3   OH256392   3.705   2.845   1.130  0.2565  0.0765 -0.3832
11634TIP3    H156393   3.722   2.938   1.145  2.4136 -0.5870  1.9539
11634TIP3    H256394   3.616   2.832   1.163  1.1349  0.7577  2.5674
11635TIP3   OH256395   5.840   3.368  14.930  0.1509  0.5958  0.1011
11635TIP3    H156396   5.845   3.277  14.958 -0.7812  0.4291 -0.2580
11635TIP3    H256397   5.911   3.378  14.866 -1.5643 -0.7117 -2.1401
11636TIP3   OH256398   3.363   3.324   4.171 -0.1962  0.4124  0.0308
11636TIP3    H156399   3.327   3.411   4.156 -1.3763 -0.1157 -0.2789
11636TIP3    H256400   3.288   3.270   4.196  0.7075 -0.2272  1.5298
11637TIP3   OH256401   3.017   5.613  16.281  0.1288 -0.1157 -0.1185
11637TIP3    H156402   2.937   5.572  16.315  0.3174  1.1235  1.9890
11637TIP3    H256403   3.075   5.539  16.260 -1.0537 -0.9931 -0.4225
11638TIP3   OH256404   5.474   2.145  15.714  0.3313  0.3693 -0.1119
11638TIP3    H156405   5.468   2.077  15.647 -1.1799 -0.5242  0.8662
11638TIP3    H256406   5.531   2.108  15.781  0.3433  0.5059 -0.0457
11639TIP3   OH256407   2.890   3.584  12.366 -0.1727 -0.1502 -0.2906
11639TIP3    H156408   2.866   3.507  12.417 -1.9267 -1.0749 -2.3314
11639TIP3    H256409   2.984   3.593  12.379 -0.2852 -1.2680  1.7547
11640TIP3   OH256410   1.590   1.983  12.653 -0.0994  0.0266  0.1691
11640TIP3    H156411   1.623   1.973  12.564 -1.0495  2.8634 -0.6036
11640TIP3    H256412   1.654   2.039  12.696 -0.3354 -0.2295  0.8708
11641TIP3   OH256413   6.614   5.775   3.356  0.3328  0.7119  0.3077
11641TIP3    H156414   6.628   5.870   3.361 -2.7047  1.2137  1.0481
11641TIP3    H256415   6.572   5.752   3.438 -2.1785 -0.5962 -1.2059
11642TIP3   OH256416   6.257   6.632   5.553 -0.1682 -0.2642 -0.4723
11642TIP3    H156417   6.240   6.581   5.474 -0.0327  1.0965 -1.4116
11642TIP3    H256418   6.185   6.695   5.557 -0.7524 -0.9905  1.0904
11643TIP3   OH256419   2.561   4.046   5.228 -0.0728 -0.8304  0.1063
11643TIP3    H156420   2.588   3.956   5.210 -0.2824 -0.8392 -0.1733
11643TIP3    H256421   2.609   4.070   5.307  0.2431 -1.0694 -0.0124
11644TIP3   OH256422   1.506   4.332   0.825  0.0925 -0.7620  0.2659
11644TIP3    H156423   1.471   4.271   0.760  0.7708  0.9249 -1.7880
11644TIP3    H256424   1.440   4.401   0.832  0.8515  0.0225 -0.0827
11645TIP3   OH256425   4.510   0.910  14.011  0.4310  0.5598  0.7074
11645TIP3    H156426   4.476   0.996  14.036  1.2061  0.4941  2.1031
11645TIP3    H256427   4.579   0.892  14.074  1.0147 -0.6319 -0.2139
11646TIP3   OH256428   3.335   5.261   2.863 -0.3133 -0.5801  0.1043
11646TIP3    H156429   3.329   5.354   2.844  0.5075 -0.7189 -0.9125
11646TIP3    H256430   3.405   5.253   2.928 -0.3214 -0.5030  0.1226
11647TIP3   OH256431   3.331   3.988   0.055 -0.4105 -0.3090  0.5065
11647TIP3    H156432   3.365   3.899   0.045 -0.6813 -0.5004  1.2282
11647TIP3    H256433   3.318   4.019  -0.035 -1.1520 -1.3344  0.2386
11648TIP3   OH256434   3.792   6.192  12.518  0.0736  0.5786  0.0487
11648TIP3    H156435   3.858   6.192  12.449 -1.0614  0.7833 -1.0776
11648TIP3    H256436   3.733   6.121  12.495 -1.1170  1.5485 -0.0055
11649TIP3   OH256437   4.156   4.014   3.804 -0.1333 -0.2767 -0.7248
11649TIP3    H156438   4.131   3.968   3.884  1.1561  2.2214  1.2498
11649TIP3    H256439   4.089   4.082   3.794  1.6909  1.8363  0.5003
11650TIP3   OH256440   4.921   4.589   5.039  0.1630  0.3349  0.1708
11650TIP3    H156441   4.874   4.642   5.104  1.2942  1.8646 -0.2019
11650TIP3    H256442   5.006   4.571   5.078  0.6350  0.7673 -0.6233
11651TIP3   OH256443   6.650   5.049  16.207 -0.1126  0.1704 -0.7685
11651TIP3    H156444   6.618   5.131  16.244 -1.1675 -0.7176  0.3720
11651TIP3    H256445   6.733   5.032  16.251  0.3568  0.8447 -1.3626
11652TIP3   OH256446   5.253   5.538   0.721 -0.0107 -0.2236 -0.2216
11652TIP3    H156447   5.335   5.505   0.685  0.1162  2.0573 -2.2749
11652TIP3    H256448   5.196   5.550   0.645 -2.1866 -1.3748  1.1075
11653TIP3   OH256449   4.211   2.615  11.947 -0.5679  0.3270  0.2333
11653TIP3    H156450   4.277   2.626  11.878 -0.0588  0.4286  0.7237
11653TIP3    H256451   4.160   2.696  11.945  1.1404  1.5333  1.7126
11654TIP3   OH256452   1.342   0.847   0.651  0.0152 -0.1430  0.1479
11654TIP3    H156453   1.416   0.900   0.621  0.1210 -0.6350 -0.4822
11654TIP3    H256454   1.299   0.902   0.717  1.2702 -0.0827  0.9498
11655TIP3   OH256455   2.670   5.878   2.275 -0.2075  0.0642 -0.3609
11655TIP3    H156456   2.707   5.959   2.239  1.3074 -0.7624 -0.7243
11655TIP3    H256457   2.740   5.813   2.266 -1.5034 -1.3901 -0.4120
11656TIP3   OH256458   0.836   1.599   3.967  0.3018  0.6757  0.1465
11656TIP3    H156459   0.930   1.608   3.951  0.5132  1.3973  1.6138
11656TIP3    H256460   0.829   1.536   4.038 -0.3743  0.1774 -0.3441
11657TIP3   OH256461   0.675   1.554  12.872  1.2367 -0.4436 -0.6293
11657TIP3    H156462   0.694   1.503  12.794  1.7708 -0.0490 -0.7621
11657TIP3    H256463   0.755   1.604  12.889  1.4553 -1.2145  0.7104
11658TIP3   OH256464   1.132   2.957   3.923 -1.1102  0.4342  0.0803
11658TIP3    H156465   1.134   3.023   3.993  2.1845  0.8311 -0.2036
11658TIP3    H256466   1.224   2.949   3.896 -1.9537 -1.4108 -2.6330
11659TIP3   OH256467   5.496   4.735   0.931 -0.6390 -0.4912  0.4142
11659TIP3    H156468   5.507   4.822   0.894 -0.7819 -0.5082  0.3304
11659TIP3    H256469   5.540   4.739   1.016  0.9231 -0.8658 -0.3534
11660TIP3   OH256470   2.249   2.485   0.107 -0.3979 -0.6491 -0.1436
11660TIP3    H156471   2.304   2.452   0.036 -1.7041 -1.6140 -0.7353
11660TIP3    H256472   2.253   2.417   0.174  1.3750  0.5514  1.0814
11661TIP3   OH256473   0.478   2.715   5.334  0.2282  0.6683 -0.0526
11661TIP3    H156474   0.448   2.685   5.420 -0.9813  0.2178 -0.6056
11661TIP3    H256475   0.563   2.756   5.351  0.3577 -0.0814  1.2358
11662TIP3   OH256476   3.096   6.746   0.509 -0.2086 -0.0917 -0.3241
11662TIP3    H156477   3.009   6.774   0.480 -0.5777 -1.3327 -0.4906
11662TIP3    H256478   3.145   6.827   0.522 -2.2212  0.8450  2.5064
11663TIP3   OH256479   6.722   5.464  13.455  0.2390  0.3615 -0.1396
11663TIP3    H156480   6.817   5.477  13.466  0.9251 -2.9600 -0.8652
11663TIP3    H256481   6.688   5.459  13.545  0.9569  0.3764  0.1413
11664TIP3   OH256482   4.434   5.581   2.305  0.1783  0.4013 -0.1459
11664TIP3    H156483   4.499   5.527   2.350 -0.9051 -0.2796  0.6523
11664TIP3    H256484   4.472   5.596   2.218  0.6979 -1.3177 -0.2596
11665TIP3   OH256485   1.368   4.513   5.358  0.5565  0.1248  0.2961
11665TIP3    H156486   1.426   4.583   5.388 -0.0118  0.7692 -0.0719
11665TIP3    H256487   1.296   4.559   5.314 -0.5042 -0.6178  1.1843
11666TIP3   OH256488   1.395   3.436  11.558  0.0325  0.1588 -0.1550
11666TIP3    H156489   1.370   3.489  11.483 -1.2269 -1.8297 -1.2382
11666TIP3    H256490   1.439   3.360  11.520  1.4995  0.2107  1.3143
11667TIP3   OH256491   2.847   4.080  14.189 -0.0607 -0.0433 -0.4093
11667TIP3    H156492   2.919   4.105  14.247  1.2144  3.1798 -3.0082
11667TIP3    H256493   2.803   4.163  14.169 -3.3275 -1.6668 -0.4644
11668TIP3   OH256494   4.818   0.493  14.539  0.1259 -0.8998  0.0015
11668TIP3    H156495   4.835   0.587  14.544 -0.0492 -0.8758  0.1976
11668TIP3    H256496   4.881   0.460  14.475 -0.4978 -0.4849 -0.8444
11669TIP3   OH256497   2.701   0.565  16.791  0.0772  0.1791 -0.5830
11669TIP3    H156498   2.662   0.587  16.876  0.2547 -1.7566  0.0408
11669TIP3    H256499   2.626   0.545  16.735  0.0226 -0.5434 -0.2688
11670TIP3   OH256500   6.288   1.446  10.897  0.2924  0.1497 -0.0740
11670TIP3    H156501   6.274   1.540  10.882 -0.0031  0.4435  1.8271
11670TIP3    H256502   6.379   1.440  10.928 -0.0001 -0.0540  0.7633
11671TIP3   OH256503   3.615   3.005  14.106  0.3585  0.4924 -0.6607
11671TIP3    H156504   3.605   2.914  14.075  0.5936 -0.2020  1.1790
11671TIP3    H256505   3.598   3.058  14.028 -0.1206 -1.1143 -1.7189
11672TIP3   OH256506   0.554   5.011  17.151 -0.0884 -0.1221  0.0159
11672TIP3    H156507   0.630   4.998  17.095  0.8718 -1.2084  1.4727
11672TIP3    H256508   0.487   4.953  17.116 -0.0917  0.4738 -0.9863
11673TIP3   OH256509   0.543   2.606  13.577 -0.3534  0.1803  0.5542
11673TIP3    H156510   0.524   2.515  13.598 -0.2101  0.0968  0.3198
11673TIP3    H256511   0.465   2.637  13.530 -1.5915  0.9627  2.9242
11674TIP3   OH256512   5.307   2.917   1.079  0.5590 -0.1661 -0.2457
11674TIP3    H156513   5.252   2.878   1.148  0.4043 -0.6234 -0.6272
11674TIP3    H256514   5.276   3.008   1.074 -0.3026 -0.4643 -0.5810
11675TIP3   OH256515   4.932   2.096  14.939 -0.0381  0.0830 -0.2050
11675TIP3    H156516   5.006   2.036  14.935 -0.7291 -0.7450 -1.4541
11675TIP3    H256517   4.871   2.056  15.000  1.1536  1.5737  2.1112
11676TIP3   OH256518   6.097   6.730   2.984 -0.0983  0.4500  0.0963
11676TIP3    H156519   6.112   6.742   2.891 -0.3494  1.1137  0.1358
11676TIP3    H256520   6.031   6.661   2.989  1.7316 -1.4010 -0.1163
11677TIP3   OH256521   1.807   3.474  12.506  0.0441 -0.0582  1.4105
11677TIP3    H156522   1.890   3.448  12.466  0.1634 -2.3003  2.9438
11677TIP3    H256523   1.741   3.453  12.440  0.3778 -2.1100  1.6781
11678TIP3   OH256524   3.092   3.192   3.832 -0.0319 -0.4741  0.0332
11678TIP3    H156525   3.152   3.118   3.841 -0.5035 -0.7116  1.4960
11678TIP3    H256526   3.006   3.157   3.857 -0.3735  0.3987  0.1314
11679TIP3   OH256527   0.410   5.242   3.700  0.2448 -0.8627 -0.0374
11679TIP3    H156528   0.370   5.321   3.735  0.6166  0.0539 -1.5750
11679TIP3    H256529   0.388   5.242   3.607  1.5610 -1.7387 -0.3873
11680TIP3   OH256530   5.859   0.314   0.265  0.8359  0.0827  0.5233
11680TIP3    H156531   5.878   0.263   0.186  1.1067  1.1268 -0.0975
11680TIP3    H256532   5.764   0.322   0.266  0.7663 -0.6987  0.8006
11681TIP3   OH256533   0.236   6.172   6.016 -0.5439  0.2695 -0.0925
11681TIP3    H156534   0.228   6.135   6.104  0.5174 -0.3508 -0.2351
11681TIP3    H256535   0.248   6.095   5.959  0.6075  0.7480 -0.5354
11682TIP3   OH256536   1.423   2.878  11.038  0.4053  0.4117 -0.0948
11682TIP3    H156537   1.376   2.815  10.983 -0.1694  1.7021 -1.1236
11682TIP3    H256538   1.388   2.963  11.013  0.4310  1.0860  2.0081
11683TIP3   OH256539   3.395   6.105  16.490 -0.3460 -0.2827  0.5441
11683TIP3    H156540   3.473   6.054  16.465 -0.4472 -0.0037 -0.3505
11683TIP3    H256541   3.360   6.058  16.566 -0.3768 -1.4912 -0.1995
11684TIP3   OH256542   2.023   3.134  11.794 -0.2794  0.3646 -0.5439
11684TIP3    H156543   2.047   3.103  11.882  1.8474 -0.7355 -1.4406
11684TIP3    H256544   2.033   3.229  11.799  0.0695  0.2951  0.3407
11685TIP3   OH256545   4.848   3.757  12.602 -0.4893 -0.1162  0.4352
11685TIP3    H156546   4.900   3.720  12.674  3.7617  2.3919 -1.0095
11685TIP3    H256547   4.815   3.840  12.636  3.2594  2.1021 -0.8133
11686TIP3   OH256548   3.287   5.753  14.274  0.5301 -0.3864  0.4127
11686TIP3    H156549   3.229   5.761  14.349 -0.9971 -0.5851 -0.6885
11686TIP3    H256550   3.372   5.731  14.311 -0.3078 -1.0483  2.0305
11687TIP3   OH256551   4.634   2.830   4.639  0.4236 -0.1578  0.4804
11687TIP3    H156552   4.608   2.825   4.547 -0.5509 -0.6213  0.7694
11687TIP3    H256553   4.645   2.739   4.666 -2.9752 -0.3297  1.7945
11688TIP3   OH256554   4.413   2.875   3.628  0.3828  0.6551  0.4753
11688TIP3    H156555   4.361   2.795   3.621  0.9603  0.3877 -1.2898
11688TIP3    H256556   4.503   2.843   3.636  0.5207  1.1291  0.8267
11689TIP3   OH256557   4.613   2.639   2.829 -0.6597  0.2050  0.1894
11689TIP3    H156558   4.579   2.553   2.805 -0.7588 -0.0462  1.2021
11689TIP3    H256559   4.614   2.688   2.747 -0.5912 -0.7622 -0.3962
11690TIP3   OH256560   5.257   6.699   3.813 -0.4022  0.4860  0.2041
11690TIP3    H156561   5.199   6.751   3.869 -0.7150  2.1471 -1.5242
11690TIP3    H256562   5.313   6.765   3.770  0.2398 -0.7606 -0.9386
11691TIP3   OH256563   0.702   2.572  14.764  0.0432  0.8995  0.3695
11691TIP3    H156564   0.749   2.585  14.847  1.4888 -2.8455  0.3582
11691TIP3    H256565   0.610   2.566  14.789  0.4057  0.3848  1.6764
11692TIP3   OH256566   6.472   1.307   5.196 -0.0995 -0.0571 -0.4833
11692TIP3    H156567   6.519   1.380   5.155  0.2587  0.1661  0.3090
11692TIP3    H256568   6.528   1.231   5.179 -0.6049 -0.2083 -1.5429
11693TIP3   OH256569   3.458   0.391   2.630  0.6781  0.6506 -0.3937
11693TIP3    H156570   3.387   0.343   2.672  0.7603  0.9244  0.0721
11693TIP3    H256571   3.432   0.483   2.637  0.4263  0.6650 -1.4543
11694TIP3   OH256572   4.035   5.711   2.559  0.4692  0.0632 -0.4186
11694TIP3    H156573   4.102   5.643   2.565 -0.1789 -0.4536  2.7244
11694TIP3    H256574   4.063   5.778   2.621 -1.1574  0.5333 -0.1414
11695TIP3   OH256575   5.929   5.992   4.830  0.4762  0.0967  0.4167
11695TIP3    H156576   6.012   5.959   4.796 -0.0115  0.0774 -0.7941
11695TIP3    H256577   5.947   6.012   4.922  1.7720 -0.0581  0.2111
11696TIP3   OH256578   0.039   3.971   5.638 -0.3280 -0.4010 -0.1855
11696TIP3    H156579   0.124   3.963   5.594 -0.4598  1.2051 -0.7950
11696TIP3    H256580  -0.023   3.988   5.568 -0.9704 -0.3510  0.3813
11697TIP3   OH256581   0.056   5.276  17.190  0.0845 -0.1706  0.2342
11697TIP3    H156582   0.147   5.251  17.207  0.0502  0.5240  1.6377
11697TIP3    H256583   0.004   5.217  17.244 -0.2586 -0.1330 -0.0511
11698TIP3   OH256584   1.313   3.476   5.379 -0.3770  0.6775 -1.0144
11698TIP3    H156585   1.347   3.565   5.375 -1.8735  1.2361 -2.4618
11698TIP3    H256586   1.365   3.427   5.315  1.0007  0.2527  0.3631
11699TIP3   OH256587   6.006   2.740   4.484 -0.6217 -0.0063  0.2793
11699TIP3    H156588   6.020   2.749   4.390  0.6322  0.3501  0.4793
11699TIP3    H256589   5.922   2.695   4.492 -0.0713 -1.3365 -1.0349
11700TIP3   OH256590   4.432   6.258  13.453 -0.6533  0.3281 -0.0256
11700TIP3    H156591   4.485   6.246  13.532 -2.1682  1.3647  1.2189
11700TIP3    H256592   4.495   6.263  13.382  0.8777  1.0064  1.3140
11701TIP3   OH256593   0.724   2.910  15.561 -0.3072 -0.0282  0.3666
11701TIP3    H156594   0.677   2.866  15.490  1.2652  0.4351 -1.0124
11701TIP3    H256595   0.714   3.003  15.542 -1.9786  0.2337  2.1929
11702TIP3   OH256596   3.043   4.150  14.947 -0.0421 -0.5992  0.4927
11702TIP3    H156597   3.131   4.136  14.981 -0.3203 -0.4226  1.3323
11702TIP3    H256598   3.003   4.063  14.946 -0.2483 -0.5275  1.2853
11703TIP3   OH256599   0.196   2.751  16.172 -0.0200 -0.4968  0.6782
11703TIP3    H156600   0.147   2.706  16.241  2.4649 -2.6807  1.1445
11703TIP3    H256601   0.179   2.700  16.093 -1.1698  0.7685  0.0691
11704TIP3   OH256602   2.561   4.524  10.503  0.1512 -0.0392  0.2881
11704TIP3    H156603   2.478   4.570  10.515  0.9959  2.1614 -1.4906
11704TIP3    H256604   2.537   4.435  10.480 -1.7357  0.6462 -0.5666
11705TIP3   OH256605   2.599   0.962  16.884 -0.2272  0.0233  0.1593
11705TIP3    H156606   2.614   0.973  16.790 -2.6428 -0.9517 -0.4107
11705TIP3    H256607   2.646   1.035  16.925 -0.2014  1.2183 -1.8932
11706TIP3   OH256608   2.703   3.385  12.419 -0.0482  0.2393 -0.4350
11706TIP3    H156609   2.644   3.457  12.395 -2.4314 -1.2162  0.7557
11706TIP3    H256610   2.702   3.327  12.343  0.5988  0.6177 -0.7505
11707TIP3   OH256611   5.973   4.775  10.601  0.5874 -0.1257 -0.7482
11707TIP3    H156612   5.883   4.793  10.573  0.3170 -1.5922 -0.9081
11707TIP3    H256613   6.008   4.860  10.627 -0.9681  0.4246 -0.3453
11708TIP3   OH256614   0.043   2.046  11.951 -0.3658 -0.0480 -0.2688
11708TIP3    H156615   0.100   2.118  11.977  0.2914 -1.2239  1.7890
11708TIP3    H256616   0.099   1.985  11.904 -0.5821  0.1213 -0.7448
11709TIP3   OH256617   4.671   0.532   0.208  0.1280  0.8933 -0.0218
11709TIP3    H156618   4.746   0.589   0.195 -0.1876  0.9728 -1.7822
11709TIP3    H256619   4.599   0.592   0.228  0.3124  0.8919  0.6771
11710TIP3   OH256620   4.300   1.645   1.631 -0.5797 -0.6251  0.0947
11710TIP3    H156621   4.342   1.730   1.615 -1.0177 -0.2213  1.0179
11710TIP3    H256622   4.254   1.656   1.714 -2.3764 -1.1209 -0.8008
11711TIP3   OH256623   4.603   2.907   1.306 -0.1423 -0.2273 -0.5035
11711TIP3    H156624   4.658   2.902   1.384 -1.1381  1.2155  0.3274
11711TIP3    H256625   4.643   2.975   1.253 -0.0085 -0.5580 -0.8335
11712TIP3   OH256626   5.507   2.772   4.269  0.4092 -0.7579 -0.7349
11712TIP3    H156627   5.582   2.808   4.317 -0.9159 -0.3417  1.1480
11712TIP3    H256628   5.531   2.782   4.177  1.5970  1.7695 -0.2636
11713TIP3   OH256629   6.843   6.454  15.003 -0.2949 -0.5871  0.3772
11713TIP3    H156630   6.906   6.506  15.054 -1.0086  0.7171 -0.0229
11713TIP3    H256631   6.897   6.404  14.942  0.4021 -0.1737  0.6459
11714TIP3   OH256632   2.068   5.235  10.609  0.6975  0.0862  0.3457
11714TIP3    H156633   2.031   5.154  10.574  1.8402  0.4514 -1.8746
11714TIP3    H256634   2.064   5.297  10.536  1.6323  1.4398  1.3916
11715TIP3   OH256635   2.743   5.353  15.008 -0.2038 -0.1313 -0.3958
11715TIP3    H156636   2.685   5.428  15.000 -2.4299 -1.6568  0.3989
11715TIP3    H256637   2.718   5.312  15.091  0.4220 -2.1518 -1.1461
11716TIP3   OH256638   0.829   5.863  15.907 -0.5115  0.1427 -0.5597
11716TIP3    H156639   0.891   5.891  15.839 -0.0092  0.1540 -0.1088
11716TIP3    H256640   0.844   5.769  15.915 -1.6932 -0.1550 -1.5676
11717TIP3   OH256641   3.300   5.726  13.792  0.1878 -0.2013 -0.4889
11717TIP3    H156642   3.284   5.632  13.807 -1.2375  0.1660  0.5257
11717TIP3    H256643   3.394   5.737  13.808  0.1278 -1.2262  0.7675
11718TIP3   OH256644   2.133   0.891   0.298  0.1751 -0.3373 -0.0236
11718TIP3    H156645   2.133   0.855   0.387 -0.6032 -2.0095 -0.6698
11718TIP3    H256646   2.041   0.903   0.276  0.3405 -0.4489 -0.8166
11719TIP3   OH256647   0.407   2.784   4.385  0.3337  0.2670 -0.5399
11719TIP3    H156648   0.396   2.804   4.478  0.5776 -0.1000 -0.4295
11719TIP3    H256649   0.318   2.776   4.351  0.1708 -2.3843  0.2845
11720TIP3   OH256650   3.574   1.621  13.856  0.4369 -0.2043 -0.0519
11720TIP3    H156651   3.631   1.572  13.798 -0.2649 -0.4709 -0.5338
11720TIP3    H256652   3.630   1.688  13.895  1.8984 -2.5409  2.1303
11721TIP3   OH256653   3.078   2.755   5.223  0.2018 -0.3072  0.8273
11721TIP3    H156654   3.166   2.792   5.231  0.4059 -1.1103  2.9828
11721TIP3    H256655   3.087   2.666   5.259 -1.7402  0.0540  2.3532
11722TIP3   OH256656   2.758   0.039   1.932 -0.6395 -0.0516 -0.1820
11722TIP3    H156657   2.715   0.108   1.882  0.5915  0.5189 -0.4685
11722TIP3    H256658   2.852   0.055   1.921 -0.3398 -0.8722  0.9885
11723TIP3   OH256659   2.126   3.756   2.823 -0.2624 -0.3441 -0.5218
11723TIP3    H156660   2.111   3.689   2.757 -1.3897 -1.9026  1.1973
11723TIP3    H256661   2.077   3.832   2.792 -0.7560 -1.0349 -1.4855
11724TIP3   OH256662   6.270   3.749  12.337  0.6355 -0.1375  0.3181
11724TIP3    H156663   6.352   3.748  12.387  0.9190  0.0529 -0.1414
11724TIP3    H256664   6.208   3.796  12.394  1.1064  0.5630  0.2682
11725TIP3   OH256665   0.312   5.568  12.850 -0.1594  0.3632 -0.5281
11725TIP3    H156666   0.248   5.582  12.920 -0.0358  1.0196 -0.5393
11725TIP3    H256667   0.397   5.572  12.894  0.0095  2.4992 -0.9378
11726TIP3   OH256668   6.328   3.651   3.540 -0.7651 -0.9522  0.1705
11726TIP3    H156669   6.321   3.620   3.631  1.5871 -3.3301 -0.3540
11726TIP3    H256670   6.292   3.580   3.487 -0.9660 -0.1130 -0.8556
11727TIP3   OH256671   0.192   2.507  16.988 -0.0765  0.2276  0.5530
11727TIP3    H156672   0.154   2.438  17.042  0.1085 -1.2264 -1.0568
11727TIP3    H256673   0.287   2.499  17.002 -0.0511  0.1108  0.3158
11728TIP3   OH256674   6.431   3.064  13.863 -0.1043  0.4458 -0.7636
11728TIP3    H156675   6.438   3.157  13.881 -0.0485  0.6702 -1.8353
11728TIP3    H256676   6.521   3.037  13.841  0.5707 -0.6069  2.6340
11729TIP3   OH256677   3.789   0.603  15.877  0.2990 -0.1205  0.5434
11729TIP3    H156678   3.834   0.683  15.849 -1.4935  0.2967 -1.3724
11729TIP3    H256679   3.702   0.632  15.901 -0.6356 -1.5444 -0.9149
11730TIP3   OH256680   2.443   4.145   5.808  0.1014  0.4288  0.3783
11730TIP3    H156681   2.374   4.160   5.873  0.1711 -0.7145  0.7276
11730TIP3    H256682   2.480   4.060   5.832  0.5756  0.3089 -0.7598
11731TIP3   OH256683   1.351   0.303  14.324  0.3437  0.4972  0.3303
11731TIP3    H156684   1.380   0.300  14.415  0.5911  2.1153  0.3283
11731TIP3    H256685   1.316   0.215  14.308  1.7108 -0.3002  1.4927
11732TIP3   OH256686   1.785   2.865  15.728  0.4412 -0.7993  0.4123
11732TIP3    H156687   1.709   2.808  15.713  0.1400 -0.5785  1.0607
11732TIP3    H256688   1.838   2.854  15.649 -0.1214 -1.1801  0.0701
11733TIP3   OH256689   0.410   4.990  11.946 -0.0971 -0.0483  0.3969
11733TIP3    H156690   0.335   5.045  11.921  0.1114  1.0118  1.9662
11733TIP3    H256691   0.371   4.919  11.997 -0.6217 -2.6535 -3.1842
11734TIP3   OH256692   6.434   3.402   1.902 -0.3883  0.1637  0.0903
11734TIP3    H156693   6.377   3.417   1.978  0.2406  1.2601  0.3582
11734TIP3    H256694   6.446   3.307   1.900 -1.8642 -0.0588  0.2870
11735TIP3   OH256695   5.387   5.161  14.819  0.3557 -0.0357  0.0616
11735TIP3    H156696   5.379   5.066  14.829 -0.7841 -0.0285 -0.6674
11735TIP3    H256697   5.455   5.172  14.753 -0.0034 -0.3698 -0.3705
11736TIP3   OH256698   5.285   1.767   6.214 -0.0987 -0.1920  0.0505
11736TIP3    H156699   5.362   1.785   6.268 -0.8935 -0.1094  1.2084
11736TIP3    H256700   5.258   1.852   6.180 -0.3409 -0.0456  0.5951
11737TIP3   OH256701   6.184   0.872  11.697 -0.0771  0.3517 -0.0273
11737TIP3    H156702   6.117   0.940  11.694  0.7832  1.1881 -0.7474
11737TIP3    H256703   6.266   0.918  11.685  0.7670 -0.5268  1.8793
11738TIP3   OH256704   6.425   1.305  13.211 -0.5183  0.0568  0.4572
11738TIP3    H156705   6.392   1.244  13.144 -0.3194  0.0307  0.3836
11738TIP3    H256706   6.472   1.371  13.161 -0.2997 -0.0062  0.5808
11739TIP3   OH256707   5.808   6.192  15.549 -0.0759 -0.4755  0.0618
11739TIP3    H156708   5.785   6.144  15.629 -1.4244 -0.2342 -0.1561
11739TIP3    H256709   5.765   6.143  15.479  1.4910 -0.9655 -0.6184
11740TIP3   OH256710   1.106   6.696   5.352 -0.1122  0.0116 -0.4190
11740TIP3    H156711   1.079   6.672   5.441  0.8851  0.0997 -0.0784
11740TIP3    H256712   1.168   6.627   5.327  0.1716  0.3873 -0.7590
11741TIP3   OH256713   4.660   1.314  13.262  0.6426  0.1561 -0.7594
11741TIP3    H156714   4.741   1.351  13.298  0.9388 -2.9864  2.2230
11741TIP3    H256715   4.689   1.268  13.183  2.0032 -1.5765  0.6762
11742TIP3   OH256716   0.617   0.927   0.854  0.1980  0.1333 -0.3407
11742TIP3    H156717   0.522   0.919   0.859  0.0979  1.2877 -0.0099
11742TIP3    H256718   0.640   0.890   0.769 -0.8839  2.4123 -1.7169
11743TIP3   OH256719   2.217   4.453  16.650  0.2434 -0.4858  0.0593
11743TIP3    H156720   2.310   4.459  16.630  0.0059  0.4631 -0.8402
11743TIP3    H256721   2.198   4.533  16.700 -0.1073 -0.6168  0.1400
11744TIP3   OH256722   5.177   5.053   3.390  0.3888 -0.4036  0.0491
11744TIP3    H156723   5.229   5.080   3.314  1.3580 -1.0154  0.4772
11744TIP3    H256724   5.187   4.958   3.392 -0.2299 -0.4616  0.5245
11745TIP3   OH256725   3.401   3.682   2.117 -0.5847 -0.0001 -0.3835
11745TIP3    H156726   3.335   3.633   2.167 -0.7308  1.0947  0.5269
11745TIP3    H256727   3.416   3.628   2.040 -1.3955 -1.0461  0.1523
11746TIP3   OH256728   2.434   5.584  13.824  0.4566  0.3012 -0.0473
11746TIP3    H156729   2.517   5.538  13.813  0.8817  0.9740  0.2957
11746TIP3    H256730   2.412   5.571  13.916 -0.1352 -0.3873 -0.2764
11747TIP3   OH256731   2.782   6.385   3.602 -0.1446 -0.1019  0.2249
11747TIP3    H156732   2.801   6.431   3.521  0.5584 -0.7029  0.0383
11747TIP3    H256733   2.699   6.423   3.633 -0.7112 -0.2606 -1.0581
11748TIP3   OH256734   5.704   1.857  14.253 -0.7594  0.0372 -0.0800
11748TIP3    H156735   5.798   1.838  14.252 -0.7793 -0.0267 -0.9525
11748TIP3    H256736   5.683   1.868  14.346  0.4698  1.8851  0.0358
11749TIP3   OH256737   0.135   0.752  11.254 -0.2399 -0.2402 -0.1229
11749TIP3    H156738   0.151   0.824  11.316  0.7429 -0.1459 -0.4647
11749TIP3    H256739   0.040   0.746  11.248 -0.3956 -0.9278  2.1842
11750TIP3   OH256740   4.718   6.244   2.030 -0.1259  0.1115 -0.6746
11750TIP3    H156741   4.648   6.233   1.966 -0.7944  0.1328  0.0352
11750TIP3    H256742   4.690   6.193   2.106  0.6785  0.0368 -0.4092
11751TIP3   OH256743   1.914   5.850   4.202  0.0066 -0.5430  0.2792
11751TIP3    H156744   1.957   5.831   4.286  1.9822 -0.0772 -0.5678
11751TIP3    H256745   1.827   5.882   4.227  1.6006  2.7417  2.4088
11752TIP3   OH256746   0.811   4.148   0.146 -0.0454 -0.3227  0.7248
11752TIP3    H156747   0.732   4.104   0.117 -0.1004 -0.5768  1.2500
11752TIP3    H256748   0.865   4.078   0.183  0.8727 -0.3343 -0.5443
11753TIP3   OH256749   1.941   6.245   4.082  0.3781  0.3368 -0.1407
11753TIP3    H156750   1.937   6.331   4.040 -0.5742  0.6327  0.5174
11753TIP3    H256751   1.875   6.249   4.152  1.6772 -0.2411  1.1910
11754TIP3   OH256752   1.951   5.301   6.121  0.4450  0.3725  0.2262
11754TIP3    H156753   1.990   5.368   6.178 -1.7674  2.2831 -0.3096
11754TIP3    H256754   2.019   5.280   6.057  1.2156  2.2049  0.3866
11755TIP3   OH256755   2.469   2.421  14.853  0.0584  0.5052 -0.3511
11755TIP3    H156756   2.485   2.475  14.931  0.3928 -1.8725  1.3576
11755TIP3    H256757   2.376   2.399  14.859  0.9540 -3.7067  2.3910
11756TIP3   OH256758   3.111   3.772  16.223  0.3499  0.8415 -0.7020
11756TIP3    H156759   3.055   3.722  16.165 -0.1659  1.0213 -0.3678
11756TIP3    H256760   3.144   3.708  16.286 -0.1461  0.8850 -0.3968
11757TIP3   OH256761   5.933   1.434   1.522 -0.0750  0.8486 -0.1215
11757TIP3    H156762   5.941   1.527   1.499 -1.0436  1.0421  0.2719
11757TIP3    H256763   5.966   1.387   1.446 -0.5512  1.5140 -0.7500
11758TIP3   OH256764   1.886   5.461   3.881  0.2055 -0.0230 -0.0853
11758TIP3    H156765   1.834   5.523   3.830 -0.9460  0.3999  1.5059
11758TIP3    H256766   1.968   5.507   3.898 -0.1936  0.6217  0.1244
11759TIP3   OH256767   2.344   2.708   4.581  0.6017 -0.3705 -0.1718
11759TIP3    H156768   2.266   2.652   4.579 -0.0338  0.4919  0.0116
11759TIP3    H256769   2.414   2.652   4.549  0.0947 -1.4494  0.5409
11760TIP3   OH256770   5.310   4.141   5.905  0.4582  0.3530  0.2467
11760TIP3    H156771   5.402   4.145   5.881 -0.2696  0.8459 -2.9323
11760TIP3    H256772   5.301   4.057   5.951  2.2481 -0.3924 -0.6477
11761TIP3   OH256773   3.603   1.384   0.965 -0.2827 -0.2333  0.3850
11761TIP3    H156774   3.681   1.413   0.918  0.1016  0.9988  1.7000
11761TIP3    H256775   3.559   1.325   0.905  0.6780  0.5269 -1.1287
11762TIP3   OH256776   6.217   6.582  15.411 -0.4459 -0.4431  0.3726
11762TIP3    H156777   6.204   6.668  15.451  0.1548  0.4828 -1.3189
11762TIP3    H256778   6.248   6.527  15.483  1.8887  1.4768  0.9805
11763TIP3   OH256779   6.085   1.962  14.278 -0.6604 -0.7569 -0.4884
11763TIP3    H156780   6.097   1.937  14.370  0.9587 -2.1088 -1.0098
11763TIP3    H256781   6.037   1.890  14.239 -1.7890  0.0447 -0.6262
11764TIP3   OH256782   2.508   3.716  15.623  0.2838  0.1579 -0.2117
11764TIP3    H156783   2.600   3.700  15.642  0.1681  0.1302  0.3376
11764TIP3    H256784   2.472   3.630  15.604  0.4934  0.2359 -0.9955
11765TIP3   OH256785   3.155   2.079   2.431 -0.7432 -0.1523 -0.5151
11765TIP3    H156786   3.181   2.156   2.482 -2.8275 -0.4779  1.2134
11765TIP3    H256787   3.214   2.079   2.356  0.8159  1.8267  0.5878
11766TIP3   OH256788   3.119   0.181   0.849 -0.6381 -0.5983  0.4575
11766TIP3    H156789   3.153   0.217   0.931 -1.4820  2.4223 -0.3777
11766TIP3    H256790   3.024   0.187   0.859 -0.9019 -3.5841  0.5544
11767TIP3   OH256791   3.096   5.001  11.940  0.1326  0.0054 -0.7367
11767TIP3    H156792   3.121   4.932  12.002  1.5154  0.4740 -0.7373
11767TIP3    H256793   3.031   5.054  11.988 -2.0965 -2.0956 -1.2649
11768TIP3   OH256794   0.917   0.509   1.722  0.4026  0.1172 -0.2755
11768TIP3    H156795   0.851   0.531   1.788  2.7092 -0.4821  2.3981
11768TIP3    H256796   0.889   0.423   1.689 -0.1312 -0.1625  0.8602
11769TIP3   OH256797   3.626   2.236   5.327  0.3477  0.3792 -0.3503
11769TIP3    H156798   3.632   2.328   5.353  0.1037 -0.2449  2.2280
11769TIP3    H256799   3.714   2.201   5.343  0.0284 -0.1663  0.2650
11770TIP3   OH256800   3.702   6.345  16.524  0.0076 -0.0801  0.5109
11770TIP3    H156801   3.724   6.256  16.552  2.0758 -0.4443 -1.8823
11770TIP3    H256802   3.787   6.385  16.505 -1.0186  1.3633 -1.3246
11771TIP3   OH256803   0.663   6.093  16.705 -0.3918  0.1219 -0.0833
11771TIP3    H156804   0.586   6.051  16.666 -0.4796  1.5430 -1.5569
11771TIP3    H256805   0.643   6.101  16.798 -0.2122 -3.3812  0.4180
11772TIP3   OH256806   5.156   2.080   2.796  0.1980  0.0885 -0.6236
11772TIP3    H156807   5.130   1.988   2.807 -0.9321  0.5049  0.4408
11772TIP3    H256808   5.108   2.109   2.719 -1.7155  0.5215  0.6486
11773TIP3   OH256809   3.546   6.132   5.295  0.4178  0.4248  0.3054
11773TIP3    H156810   3.632   6.094   5.278 -1.0338 -1.6709 -3.6810
11773TIP3    H256811   3.503   6.068   5.352  0.5699 -0.0252 -0.0739
11774TIP3   OH256812   3.183   2.343  13.496  0.0930  0.1479  0.3727
11774TIP3    H156813   3.090   2.328  13.514 -0.0466  1.9661  1.4641
11774TIP3    H256814   3.204   2.283  13.425 -1.6214 -1.1124  0.8671
11775TIP3   OH256815   1.085   5.218   4.726  0.0569 -0.2322 -0.1704
11775TIP3    H156816   1.081   5.310   4.750  1.2533 -0.4884  1.1931
11775TIP3    H256817   1.177   5.203   4.704 -0.4489 -0.7287 -2.1028
11776TIP3   OH256818   4.509   5.494  14.696  0.5300 -0.2852  0.5991
11776TIP3    H156819   4.497   5.545  14.776 -1.6779 -1.0174  0.7838
11776TIP3    H256820   4.425   5.452  14.680  0.6522  0.3615 -2.5022
11777TIP3   OH256821   1.930   3.858   5.459 -0.6679  0.2362 -0.1835
11777TIP3    H156822   1.987   3.827   5.388 -2.9667 -3.2828 -0.7453
11777TIP3    H256823   1.985   3.856   5.537  0.7410 -0.1843 -1.1452
11778TIP3   OH256824   2.658   1.261   0.682  0.4707 -0.1203  0.0629
11778TIP3    H156825   2.665   1.180   0.733 -0.4574 -0.3969 -0.2265
11778TIP3    H256826   2.570   1.258   0.644  0.1578  1.3436  0.5973
11779TIP3   OH256827   2.358   3.315  13.216 -0.4183 -0.3569 -0.2158
11779TIP3    H156828   2.362   3.237  13.271  0.6381 -0.1648 -0.0016
11779TIP3    H256829   2.296   3.373  13.260  1.1886  0.2397  1.4074
11780TIP3   OH256830   5.387   5.203   0.461 -0.2844 -0.2076 -0.4992
11780TIP3    H156831   5.349   5.270   0.404  1.3082 -0.6437 -2.1590
11780TIP3    H256832   5.436   5.252   0.527  0.1224  0.2722 -1.1530
11781TIP3   OH256833   5.064   6.018  15.864 -0.4149  0.7453 -0.7166
11781TIP3    H156834   4.969   6.021  15.865 -0.4607  0.1676  1.3519
11781TIP3    H256835   5.090   6.084  15.800 -2.1694  3.1691  0.9200
11782TIP3   OH256836   4.534   3.504  12.925  0.9227 -1.2548  0.8963
11782TIP3    H156837   4.537   3.454  12.843  1.0396  1.2770 -0.7721
11782TIP3    H256838   4.442   3.503  12.951  0.6774 -1.1424  0.0749
11783TIP3   OH256839   2.913   5.742  16.857  0.2713 -0.1027  0.0379
11783TIP3    H156840   2.888   5.673  16.795 -1.6864 -2.3063  2.9787
11783TIP3    H256841   2.845   5.808  16.848  0.9111  0.4238 -1.2244
11784TIP3   OH256842   5.184   2.951   4.859 -0.0363 -0.3763 -0.2367
11784TIP3    H156843   5.181   3.046   4.868 -0.4238 -0.3023 -1.0593
11784TIP3    H256844   5.200   2.919   4.948  2.6146  0.5594 -0.2842
11785TIP3   OH256845   3.580   0.910  16.152  0.3010 -0.5194  0.2380
11785TIP3    H156846   3.531   0.880  16.076  0.0009 -0.7939  0.5323
11785TIP3    H256847   3.653   0.960  16.116  1.1578 -2.0888 -0.2842
11786TIP3   OH256848   3.214   0.846   0.778  0.3158  0.5685  0.9531
11786TIP3    H156849   3.253   0.760   0.760 -0.1920  0.0660  2.0948
11786TIP3    H256850   3.271   0.884   0.845 -0.1460  0.5767  1.3529
11787TIP3   OH256851   4.175   3.993   3.116 -0.4507 -0.2898  0.2484
11787TIP3    H156852   4.229   3.929   3.162  0.2038  0.2281  0.2206
11787TIP3    H256853   4.156   4.059   3.183  1.2243  0.9137 -0.3986
11788TIP3   OH256854   3.784   6.342  12.063  0.6056  0.1219 -0.3023
11788TIP3    H156855   3.712   6.283  12.086 -1.1591  2.3601  0.3188
11788TIP3    H256856   3.829   6.358  12.146 -0.0574  1.0073 -0.0920
11789TIP3   OH256857   3.435   6.763  10.925  0.1726  0.1524 -0.0636
11789TIP3    H156858   3.455   6.741  10.834 -0.8548 -1.4214  0.0376
11789TIP3    H256859   3.383   6.688  10.956 -2.0492  1.9830  0.9126
11790TIP3   OH256860   4.496   1.188  10.810  0.5631  0.1279 -0.1154
11790TIP3    H156861   4.563   1.159  10.872 -1.7482 -0.0330  2.5249
11790TIP3    H256862   4.484   1.281  10.829  1.5399  0.7187 -2.1483
11791TIP3   OH256863   4.098   2.484  13.454 -0.0789 -0.1826 -0.3930
11791TIP3    H156864   4.080   2.433  13.376 -0.6083  1.8090 -1.6561
11791TIP3    H256865   4.092   2.422  13.526  0.0224 -1.9970 -1.8869
11792TIP3   OH256866   6.656   1.583  16.700 -0.1643 -0.0730 -0.5196
11792TIP3    H156867   6.604   1.519  16.748  0.0010  0.2423  0.0926
11792TIP3    H256868   6.677   1.650  16.765  0.9344 -0.1522 -0.7637
11793TIP3   OH256869   3.712   2.464  16.811 -0.6841 -0.3632 -0.3711
11793TIP3    H156870   3.668   2.415  16.881 -1.1394  1.7521  0.8880
11793TIP3    H256871   3.793   2.495  16.851 -0.1744 -0.4811 -1.3010
11794TIP3   OH256872   0.488   6.365  14.352  0.2075 -0.1576  0.9664
11794TIP3    H156873   0.555   6.399  14.292 -1.3770  1.3074 -0.0734
11794TIP3    H256874   0.535   6.352  14.435  1.8417  0.5210  0.2090
11795TIP3   OH256875   6.344   6.226   3.519  0.1895  0.2052 -0.0504
11795TIP3    H156876   6.369   6.259   3.433 -0.1548  0.5921 -0.0051
11795TIP3    H256877   6.425   6.192   3.557  0.1215 -1.1183 -1.0269
11796TIP3   OH256878   5.036   5.129  16.496  0.7964 -0.5181 -0.1671
11796TIP3    H156879   4.966   5.064  16.491  0.2789 -0.1940  2.0712
11796TIP3    H256880   4.990   5.213  16.499  1.3851 -0.1649 -0.7595
11797TIP3   OH256881   2.236   2.224   1.581 -0.2431  0.7039 -0.7875
11797TIP3    H156882   2.163   2.224   1.518 -1.7335  1.8076  0.8557
11797TIP3    H256883   2.219   2.148   1.637 -1.1227  1.8927  0.6291
11798TIP3   OH256884   5.663   4.846   3.701 -0.1593  0.4596  0.2814
11798TIP3    H156885   5.752   4.839   3.734  0.0959 -2.2101 -0.7689
11798TIP3    H256886   5.664   4.923   3.645  1.2940  0.8394  0.7908
11799TIP3   OH256887   2.834   0.079   4.847 -0.1768 -0.4910 -0.3472
11799TIP3    H156888   2.767   0.017   4.875 -1.9515  0.9924 -1.1812
11799TIP3    H256889   2.801   0.115   4.765  0.0883  2.5842  0.7924
11800TIP3   OH256890   6.631   6.342   3.542  0.2222 -0.0777 -0.4332
11800TIP3    H156891   6.619   6.317   3.450  0.8396  1.6602 -1.0302
11800TIP3    H256892   6.723   6.369   3.548 -0.3607  2.0237  0.0831
11801TIP3   OH256893   3.925   1.512  17.108 -0.0425  0.0592 -0.0970
11801TIP3    H156894   3.888   1.429  17.136 -0.4240  0.5382  0.8810
11801TIP3    H256895   3.865   1.544  17.040 -0.7889  0.2676  0.6412
11802TIP3   OH256896   0.789   6.514  13.502  0.5905 -0.8168 -0.2939
11802TIP3    H156897   0.770   6.431  13.457 -2.5474  0.3169 -1.3495
11802TIP3    H256898   0.761   6.499  13.592 -3.1999 -0.0840 -1.1924
11803TIP3   OH256899   0.424   2.505   2.629  0.1863  0.3792  0.2110
11803TIP3    H156900   0.473   2.477   2.706  1.2993  1.0903 -0.2031
11803TIP3    H256901   0.480   2.481   2.555  0.8620  2.9267 -0.1941
11804TIP3   OH256902   5.021   5.951  16.239 -0.1829 -0.1915 -0.6329
11804TIP3    H156903   5.077   6.023  16.266 -0.1672  0.1094 -1.4228
11804TIP3    H256904   5.025   5.888  16.311 -0.2174  0.6055  0.0775
11805TIP3   OH256905   4.592   3.257  10.211 -0.0977  0.0070 -0.0618
11805TIP3    H156906   4.599   3.169  10.248 -1.7588  0.2452  0.9738
11805TIP3    H256907   4.531   3.248  10.138 -1.1571  0.4341  0.7314
11806TIP3   OH256908   1.861   5.059   0.761 -0.2733  0.2798  0.3021
11806TIP3    H156909   1.824   5.103   0.684  0.9066 -1.0220 -1.0704
11806TIP3    H256910   1.797   5.075   0.831 -1.3500  1.5586 -0.9250
11807TIP3   OH256911   4.500   6.260   1.728 -0.0887 -0.4402 -0.1828
11807TIP3    H156912   4.496   6.292   1.818  0.2002 -2.2444  0.5276
11807TIP3    H256913   4.426   6.199   1.721  0.8184 -1.5465 -0.6136
11808TIP3   OH256914   6.677   2.900   5.419  0.3035 -0.2103  0.1624
11808TIP3    H156915   6.617   2.885   5.491  0.4424  0.0538  0.3337
11808TIP3    H256916   6.624   2.943   5.352 -0.0607 -1.2952 -0.2708
11809TIP3   OH256917   0.876   0.080  14.864  0.0842 -0.3390  0.1749
11809TIP3    H156918   0.784   0.053  14.866 -0.1631  0.5119  0.9279
11809TIP3    H256919   0.894   0.096  14.771 -1.0036  0.9822  0.1456
11810TIP3   OH256920   4.815   2.332   4.554  0.0604  0.3203 -0.5295
11810TIP3    H156921   4.828   2.379   4.637  0.4545 -0.3114 -0.2229
11810TIP3    H256922   4.725   2.350   4.530 -0.5832 -0.7916  0.8816
11811TIP3   OH256923   3.064   4.698  12.655  0.4180  0.1566  0.1425
11811TIP3    H156924   3.141   4.709  12.600 -0.5760 -0.5443 -1.5030
11811TIP3    H256925   3.083   4.620  12.708 -0.0445 -1.5506 -2.0309
11812TIP3   OH256926   2.344   5.031  11.431 -0.2132  0.5125 -0.0160
11812TIP3    H156927   2.362   4.998  11.519  0.1165  2.4730  0.7092
11812TIP3    H256928   2.378   4.963  11.373 -2.5013 -1.9263  1.2846
11813TIP3   OH256929   2.630   0.228   5.538 -0.2903  0.2568 -0.5041
11813TIP3    H156930   2.709   0.174   5.543  0.6902  1.7065  0.0864
11813TIP3    H256931   2.572   0.192   5.606 -0.5598 -1.3864 -1.5310
11814TIP3   OH256932   5.735   0.314  11.695  0.0991  0.1398 -0.0091
11814TIP3    H156933   5.725   0.375  11.768 -1.4120  0.1496 -0.1941
11814TIP3    H256934   5.744   0.369  11.618 -1.4423  0.1596 -0.1979
11815TIP3   OH256935   6.216   6.659  12.104  0.6652  0.1012  0.5829
11815TIP3    H156936   6.133   6.613  12.112 -0.4459  2.0519  1.0717
11815TIP3    H256937   6.282   6.595  12.130 -0.8049 -1.1007  1.5160
11816TIP3   OH256938   2.664   2.823  15.159  0.1365  0.1095 -0.3121
11816TIP3    H156939   2.755   2.824  15.191  0.0795  0.9819 -0.1589
11816TIP3    H256940   2.644   2.915  15.141  0.2203 -0.2935 -3.0219
11817TIP3   OH256941   6.655   0.970  13.207  1.2454  0.2242  0.1649
11817TIP3    H156942   6.649   0.932  13.295  2.0903  0.6162  0.4050
11817TIP3    H256943   6.686   1.059  13.221 -1.1367  1.2142 -0.3613
11818TIP3   OH256944   1.173   3.542   2.001  0.2070 -0.2532 -0.0137
11818TIP3    H156945   1.191   3.507   2.088  0.5837 -1.1863 -0.4563
11818TIP3    H256946   1.105   3.485   1.966  0.1938  0.0051 -0.4110
11819TIP3   OH256947   3.988   5.409  12.340 -0.6145  0.4078 -0.2599
11819TIP3    H156948   3.929   5.440  12.272 -2.5045  1.6512  1.8088
11819TIP3    H256949   4.069   5.459  12.327 -1.6086  2.0214 -0.4748
11820TIP3   OH256950   2.275   2.951   6.226 -0.2306  0.5939 -0.2288
11820TIP3    H156951   2.260   2.860   6.201 -1.0312  0.0749  1.9495
11820TIP3    H256952   2.334   2.985   6.159 -1.9538 -0.7376 -2.5480
11821TIP3   OH256953   2.285   4.327  12.672  0.4325 -0.2651  1.1394
11821TIP3    H156954   2.343   4.267  12.626  0.0418  1.1524 -1.3832
11821TIP3    H256955   2.290   4.409  12.622 -2.7484  0.2857  1.5037
11822TIP3   OH256956   1.903   1.759  11.190  0.1985  0.4489 -0.0864
11822TIP3    H156957   1.875   1.846  11.161 -0.6278  0.5536  0.9588
11822TIP3    H256958   1.893   1.762  11.285  2.6844  0.0775  0.2457
11823TIP3   OH256959   3.378   1.187   3.728  0.0234  0.0116  0.4168
11823TIP3    H156960   3.386   1.248   3.802  2.4689 -1.2128  1.2667
11823TIP3    H256961   3.371   1.101   3.769 -0.5948 -0.5302 -0.7903
11824TIP3   OH256962   4.185   0.823  13.893  0.1778  0.1904 -0.2708
11824TIP3    H156963   4.208   0.876  13.969 -1.2104 -1.1978  1.1905
11824TIP3    H256964   4.245   0.749  13.896 -2.1329 -1.7829  1.7174
11825TIP3   OH256965   0.818   2.966  13.720  0.0698  0.5469  0.4345
11825TIP3    H156966   0.733   2.925  13.702  0.1034  0.1296  1.2073
11825TIP3    H256967   0.881   2.894  13.718  0.6175  1.0074 -1.3290
11826TIP3   OH256968   1.757   0.047  16.610 -0.1094 -0.2141  0.1200
11826TIP3    H156969   1.841   0.042  16.655  1.2471  1.9288 -1.9668
11826TIP3    H256970   1.694   0.008  16.672  1.6637  1.9504  3.5754
11827TIP3   OH256971   2.956   6.296   2.941  0.1908  0.2284  0.4688
11827TIP3    H156972   2.970   6.382   2.903 -0.9932  0.6528  0.9678
11827TIP3    H256973   2.980   6.306   3.033 -0.6023  0.2077  0.6794
11828TIP3   OH256974   4.897   2.507   5.141  0.2252 -0.9152  0.2320
11828TIP3    H156975   4.808   2.542   5.131  0.9654  1.0759  0.1959
11828TIP3    H256976   4.938   2.565   5.205  1.2838 -2.2735  0.8216
11829TIP3   OH256977   3.411   5.257  12.884  0.3340  0.2235 -0.6122
11829TIP3    H156978   3.492   5.212  12.859  0.1214 -0.0248 -0.8555
11829TIP3    H256979   3.397   5.233  12.976  2.4023  3.0036  0.5905
11830TIP3   OH256980   6.366   4.291   0.941  0.0086 -0.6538 -0.0916
11830TIP3    H156981   6.392   4.208   0.981  0.7281 -0.5419 -0.3029
11830TIP3    H256982   6.335   4.344   1.013  2.4430 -0.0059  0.5745
11831TIP3   OH256983   1.862   2.028   2.358  0.0961  0.4639  0.1776
11831TIP3    H156984   1.899   2.052   2.443  1.5424  1.7205 -0.7696
11831TIP3    H256985   1.891   1.938   2.344  1.0314  0.7256  0.3900
11832TIP3   OH256986   2.972   5.327  14.840  0.1237 -0.1104 -0.1015
11832TIP3    H156987   2.908   5.383  14.884  1.2427  0.8694  0.3260
11832TIP3    H256988   3.034   5.387  14.799  2.0551 -0.9655  1.3625
11833TIP3   OH256989   4.632   1.809  12.544  0.0783 -0.2054  0.0222
11833TIP3    H156990   4.568   1.816  12.614 -1.3062 -2.7620 -0.8754
11833TIP3    H256991   4.716   1.802  12.589 -0.7304 -1.4339  1.4368
11834TIP3   OH256992   2.707   6.004  11.076 -0.3047 -0.1504 -0.0730
11834TIP3    H156993   2.756   6.064  11.133  0.2057 -0.1732 -0.4850
11834TIP3    H256994   2.774   5.949  11.035 -0.8475 -2.5323  1.9549
11835TIP3   OH256995   5.095   3.917   2.174  0.4701 -0.0556 -0.5725
11835TIP3    H156996   5.134   3.836   2.205  1.0736  0.5590  0.3505
11835TIP3    H256997   5.018   3.929   2.230  0.6560  0.2458 -0.3773
11836TIP3   OH256998   6.098   4.394   0.119 -0.0133  0.1431 -0.0991
11836TIP3    H156999   6.179   4.358   0.156  0.3643  0.9951 -0.0887
11836TIP3    H257000   6.031   4.370   0.183 -0.1007 -2.0778 -0.9270
11837TIP3   OH257001   3.365   1.915  11.555  0.3921  0.9587 -0.1395
11837TIP3    H157002   3.290   1.857  11.569  1.0076  0.5838  1.9185
11837TIP3    H257003   3.334   2.001  11.581  0.9055  0.6273  1.7628
11838TIP3   OH257004   0.383   5.986   3.715  0.1506 -0.5544  0.2176
11838TIP3    H157005   0.329   6.013   3.789 -0.0281  1.6019 -0.6334
11838TIP3    H257006   0.466   5.959   3.754 -0.5283 -1.1180  1.3117
11839TIP3   OH257007   2.997   1.223  10.897  0.0451  0.4818 -0.0922
11839TIP3    H157008   2.934   1.275  10.947  0.3855  0.9732 -0.1628
11839TIP3    H257009   2.971   1.132  10.912  0.8809  0.5304  2.0235
11840TIP3   OH257010   4.250   1.401   4.766 -0.2360 -0.0054  0.5444
11840TIP3    H157011   4.168   1.369   4.729 -0.2580 -0.2687  0.8119
11840TIP3    H257012   4.270   1.480   4.717 -0.2228 -0.3872 -0.0806
11841TIP3   OH257013   0.924   3.561   2.275 -0.2133  0.5880  0.1882
11841TIP3    H157014   0.842   3.530   2.314 -0.9951  0.3371 -1.5680
11841TIP3    H257015   0.986   3.490   2.291 -0.4650  0.5393  1.0408
11842TIP3   OH257016   4.372   3.239  14.193 -0.1601  0.3092  0.2139
11842TIP3    H157017   4.378   3.278  14.280  0.0813 -0.6595  0.6470
11842TIP3    H257018   4.289   3.191  14.194 -1.4079  2.3015 -0.9663
11843TIP3   OH257019   4.499   3.131   2.059 -0.1132 -0.2971 -0.0388
11843TIP3    H157020   4.488   3.065   2.127  0.9201 -1.3747 -0.8780
11843TIP3    H257021   4.546   3.202   2.102 -0.0107 -0.6972  0.5201
11844TIP3   OH257022   0.271   1.100   4.076  0.1208 -0.2449 -0.2731
11844TIP3    H157023   0.254   1.141   4.160 -1.4504  0.0778 -0.7116
11844TIP3    H257024   0.188   1.059   4.052 -0.1100  1.3505 -2.5544
11845TIP3   OH257025   1.951   1.099  15.073 -0.2047 -0.1551 -0.0305
11845TIP3    H157026   1.930   1.025  15.016 -0.8915  0.4276 -0.5556
11845TIP3    H257027   2.039   1.126  15.047 -0.0542 -0.6163 -0.0118
11846TIP3   OH257028   6.750   2.165   3.908  1.0969  0.8521 -0.4026
11846TIP3    H157029   6.703   2.247   3.895  0.1662  0.4706  0.4134
11846TIP3    H257030   6.683   2.098   3.901  1.3400  0.3346  1.5785
11847TIP3   OH257031   3.419   4.758  15.020 -0.4046 -0.1374 -0.0912
11847TIP3    H157032   3.353   4.702  15.059 -0.7228  0.5903  0.4337
11847TIP3    H257033   3.370   4.817  14.963 -0.1763  0.1824  0.0379
11848TIP3   OH257034   6.250   4.951   4.867  0.8552  1.0157  0.1406
11848TIP3    H157035   6.189   5.010   4.823 -0.2614 -0.9618 -1.0824
11848TIP3    H257036   6.218   4.946   4.957  1.2335  2.5775  0.3844
11849TIP3   OH257037   2.836   3.731   5.568 -0.0025  0.3501 -0.6039
11849TIP3    H157038   2.884   3.697   5.492 -1.4751 -0.0077 -1.4182
11849TIP3    H257039   2.803   3.653   5.612  0.1393  0.5911 -0.0671
11850TIP3   OH257040   2.965   2.224   4.851 -0.6059 -0.6147  0.3449
11850TIP3    H157041   2.962   2.229   4.946 -0.5379  2.5205  0.2787
11850TIP3    H257042   3.044   2.273   4.827  0.2772 -2.7146 -1.3060
11851TIP3   OH257043   1.109   0.036   3.413 -0.2937  0.0725  0.2493
11851TIP3    H157044   1.178   0.007   3.473 -0.2380  0.2862  0.2888
11851TIP3    H257045   1.098  -0.036   3.352  1.2713  0.7732 -0.9122
11852TIP3   OH257046   0.047   0.235   6.425  0.5610  0.1590 -0.4911
11852TIP3    H157047  -0.033   0.281   6.399  0.0038 -0.6882 -0.2890
11852TIP3    H257048   0.089   0.294   6.488  0.9218  1.3348 -1.7625
11853TIP3   OH257049   3.685   0.572   5.776  0.3768 -0.4012  0.6295
11853TIP3    H157050   3.720   0.566   5.865  2.2869 -0.8193 -0.0937
11853TIP3    H257051   3.595   0.602   5.787  1.2611  1.8615  2.5801
11854TIP3   OH257052   2.853   4.673   4.918  1.2505 -0.0387  0.1067
11854TIP3    H157053   2.767   4.683   4.878  0.4166  1.4890  2.0919
11854TIP3    H257054   2.864   4.579   4.929 -0.8855 -0.2014  1.1950
11855TIP3   OH257055   6.746   4.945   3.559 -0.4336  0.2876  0.3223
11855TIP3    H157056   6.729   5.008   3.489  1.4740 -0.5480 -0.9685
11855TIP3    H257057   6.812   4.987   3.615  1.0622 -0.5987 -0.7046
11856TIP3   OH257058   1.639   3.607   4.421 -0.2966 -0.2607 -0.2243
11856TIP3    H157059   1.557   3.606   4.470 -1.1900  0.2642 -1.6450
11856TIP3    H257060   1.620   3.561   4.339  1.8857 -3.4775  0.8863
11857TIP3   OH257061   4.561   2.334  12.169 -0.3859 -0.7149  0.3186
11857TIP3    H157062   4.487   2.341  12.109 -1.3883 -0.6728  1.5052
11857TIP3    H257063   4.544   2.253  12.218  0.8409 -1.1852 -0.0117
11858TIP3   OH257064   1.014   6.403   4.771 -0.1336 -0.4810  0.0643
11858TIP3    H157065   0.986   6.336   4.709 -0.6267 -1.3755  1.2207
11858TIP3    H257066   0.971   6.379   4.853  2.2006 -0.6021  1.3321
11859TIP3   OH257067   5.516   2.728   1.165 -0.0811 -0.4812 -0.4130
11859TIP3    H157068   5.514   2.750   1.072  1.5824 -1.7359 -0.8049
11859TIP3    H257069   5.596   2.768   1.198 -0.4640 -0.3607  0.4043
11860TIP3   OH257070   1.702   1.665   6.200 -0.3609  0.0933  0.1727
11860TIP3    H157071   1.794   1.691   6.202  0.1304 -1.3753 -1.1876
11860TIP3    H257072   1.656   1.739   6.238  1.3441  1.0308  0.5360
11861TIP3   OH257073   3.158   6.722  14.375  0.1043 -0.0468 -0.3659
11861TIP3    H157074   3.110   6.753  14.452  0.1040  1.0121 -0.7693
11861TIP3    H257075   3.184   6.803  14.330  1.2140 -0.6316 -0.7915
11862TIP3   OH257076   2.768   1.726   2.750 -0.4210  0.4402  0.3474
11862TIP3    H157077   2.701   1.743   2.817  0.6301 -1.2566  1.9245
11862TIP3    H257078   2.845   1.701   2.800  1.1449  1.4342 -1.4625
11863TIP3   OH257079   0.359   6.324   5.164 -0.0382  0.5339  0.0218
11863TIP3    H157080   0.331   6.369   5.244  1.5200  0.9564  0.3599
11863TIP3    H257081   0.423   6.383   5.124 -0.4081  0.0863 -1.2747
11864TIP3   OH257082   6.121   1.441  15.753 -0.2574  0.6251 -0.1716
11864TIP3    H157083   6.131   1.357  15.707 -1.2821  0.8487 -0.8372
11864TIP3    H257084   6.027   1.457  15.752 -0.1899  1.2140  1.0074
11865TIP3   OH257085   6.169   3.587   1.716 -0.1647  0.3772  0.2015
11865TIP3    H157086   6.099   3.531   1.751  1.0157 -0.5248  1.1818
11865TIP3    H257087   6.244   3.528   1.706  1.1100  1.7537  1.1933
11866TIP3   OH257088   3.884   0.321  15.821 -0.1660  0.1964 -0.7812
11866TIP3    H157089   3.976   0.300  15.808  0.4712  2.0659  0.3095
11866TIP3    H257090   3.882   0.416  15.827 -2.1601  0.1837 -0.6541
11867TIP3   OH257091   5.914   5.732   5.288  0.1964 -0.0319  0.2467
11867TIP3    H157092   5.867   5.790   5.347  1.3445  0.5936  0.5707
11867TIP3    H257093   5.881   5.645   5.308 -0.5238  0.3517  0.7370
11868TIP3   OH257094   4.283   3.455   1.249 -0.2383  0.8285  0.0062
11868TIP3    H157095   4.204   3.420   1.207 -0.4527 -0.6499  1.5462
11868TIP3    H257096   4.251   3.525   1.306 -0.0462  2.2504 -1.5643
11869TIP3   OH257097   0.698   1.623   2.834 -0.2534  0.6634 -0.1807
11869TIP3    H157098   0.757   1.599   2.905 -0.6779  3.4456  1.2680
11869TIP3    H257099   0.635   1.551   2.829 -1.2076  1.0359  3.5279
11870TIP3   OH257100   4.222   2.404  13.901  0.5132  0.3168  0.5224
11870TIP3    H157101   4.211   2.476  13.838  1.0293 -0.9747 -1.1008
11870TIP3    H257102   4.227   2.448  13.986  0.5348  2.1875 -0.3925
11871TIP3   OH257103   1.477   5.602  11.806  0.6098  0.5165 -0.2795
11871TIP3    H157104   1.433   5.576  11.887  1.8887  1.6097  0.8210
11871TIP3    H257105   1.485   5.521  11.756  0.2804 -0.2962  0.9451
11872TIP3   OH257106   3.125   6.126  15.661 -0.6355  0.1633 -0.1133
11872TIP3    H157107   3.129   6.091  15.750  0.9422  1.0352  0.1901
11872TIP3    H257108   3.187   6.073  15.611 -0.6919  0.3990 -0.4391
11873TIP3   OH257109   0.671   6.013  11.956 -0.5360 -0.3928 -0.4608
11873TIP3    H157110   0.713   5.972  12.031 -0.2008  0.2084 -0.3189
11873TIP3    H257111   0.579   6.022  11.982 -0.6587 -1.2444 -0.5785
11874TIP3   OH257112   3.993   0.195  16.274  0.1371  0.2300 -0.0883
11874TIP3    H157113   3.957   0.282  16.294 -0.3371 -0.2683  1.3531
11874TIP3    H257114   3.926   0.153  16.220 -1.1914 -0.4107  1.9450
11875TIP3   OH257115   3.997   1.371  14.302  0.1257  0.4117  0.1936
11875TIP3    H157116   4.085   1.335  14.294  0.2538  0.5316  1.0569
11875TIP3    H257117   4.007   1.451  14.353 -0.2866  1.2262 -0.9545
11876TIP3   OH257118   4.563   0.862  16.539 -0.2461 -0.1471  0.6618
11876TIP3    H157119   4.624   0.797  16.503  1.9670  1.6191  0.9674
11876TIP3    H257120   4.540   0.828  16.625 -0.1630 -1.1423  0.3041
11877TIP3   OH257121   0.200   0.830   5.330 -0.0874  0.3255 -0.2369
11877TIP3    H157122   0.157   0.761   5.381 -0.1865 -0.3346 -1.1810
11877TIP3    H257123   0.151   0.832   5.247  0.2054  1.2172 -0.3954
11878TIP3   OH257124   2.954   5.927   3.068  0.3813 -0.1963  0.3373
11878TIP3    H157125   3.004   5.845   3.073 -0.2779 -0.6172  0.1121
11878TIP3    H257126   2.872   5.908   3.112 -0.0544  0.1396 -0.3164
11879TIP3   OH257127   6.675   1.321  16.524 -0.2560  0.4291 -0.6607
11879TIP3    H157128   6.657   1.314  16.617 -0.3262  1.4293 -0.5915
11879TIP3    H257129   6.591   1.346  16.485 -0.2182  0.0623 -0.9920
11880TIP3   OH257130   3.895   2.337  14.475  0.3044 -0.5545  0.4735
11880TIP3    H157131   3.955   2.363  14.405  1.3179 -3.7033 -0.0008
11880TIP3    H257132   3.809   2.365  14.444  1.2326  2.7313  0.4766
11881TIP3   OH257133   1.941   6.183  15.819  0.2710  0.1401  0.3845
11881TIP3    H157134   1.999   6.111  15.845 -0.1588 -0.8608 -1.2239
11881TIP3    H257135   1.854   6.142  15.814 -0.2257  1.1247  0.7993
11882TIP3   OH257136   5.426   4.466  12.711 -0.1937 -0.3697  0.0211
11882TIP3    H157137   5.513   4.498  12.736 -0.6588  0.0690  1.1262
11882TIP3    H257138   5.365   4.522  12.759 -1.1021 -0.4625 -0.9954
11883TIP3   OH257139   5.565   2.658   2.266 -0.1097 -0.2185 -0.5409
11883TIP3    H157140   5.541   2.615   2.184 -2.5459  1.5834 -0.8882
11883TIP3    H257141   5.543   2.594   2.334  2.0778 -1.7817 -1.2107
11884TIP3   OH257142   1.197   5.670  10.909 -0.0678  0.3123  0.0781
11884TIP3    H157143   1.247   5.588  10.907  0.0972  0.3922 -1.9944
11884TIP3    H257144   1.149   5.669  10.826 -2.3064  0.9854  1.2974
11885TIP3   OH257145   6.005   5.903  11.616  0.1966 -0.6067  0.2744
11885TIP3    H157146   5.937   5.868  11.674  0.6876  1.5050  2.2765
11885TIP3    H257147   6.086   5.894  11.666  1.2128 -1.7162 -1.4757
11886TIP3   OH257148   1.860   4.393   2.414  0.6921  0.1516 -0.0940
11886TIP3    H157149   1.897   4.447   2.484 -0.6649  0.2458  0.5814
11886TIP3    H257150   1.931   4.335   2.389  1.4019  0.5458  0.9203
11887TIP3   OH257151   1.839   1.556  14.699 -0.6332  0.2412 -0.5348
11887TIP3    H157152   1.817   1.633  14.646  2.3083  0.2814 -1.9530
11887TIP3    H257153   1.756   1.512  14.713 -1.7633  0.3673 -5.1045
11888TIP3   OH257154   0.058   3.220  13.595  0.0416  0.5158  0.0721
11888TIP3    H157155   0.085   3.304  13.557  0.2812  0.2390 -0.3817
11888TIP3    H257156  -0.031   3.236  13.626 -0.8180  0.3197 -2.0885
11889TIP3   OH257157   2.111   1.638   5.725  0.0855  0.0563 -0.0686
11889TIP3    H157158   2.075   1.654   5.812 -2.1323 -1.3508 -0.6503
11889TIP3    H257159   2.035   1.636   5.667  1.5039  1.0169 -2.0835
11890TIP3   OH257160   3.354   0.706  11.254 -0.4637 -0.0012 -0.0160
11890TIP3    H157161   3.420   0.644  11.285  0.5380  1.4517  0.8541
11890TIP3    H257162   3.328   0.756  11.332 -0.6196  1.2482 -0.8307
11891TIP3   OH257163   0.203   1.469   5.454  0.2280  0.2497 -0.7398
11891TIP3    H157164   0.266   1.423   5.398  0.8959 -0.9991  0.9686
11891TIP3    H257165   0.257   1.516   5.517 -0.5079  2.0252 -1.3607
11892TIP3   OH257166   1.208   6.641  12.109 -0.3237  0.8141 -0.1777
11892TIP3    H157167   1.289   6.687  12.084 -1.7939  3.8537  0.1652
11892TIP3    H257168   1.225   6.611  12.198  0.5115  1.2026 -0.1909
11893TIP3   OH257169   0.157   5.745   0.275 -0.3411  0.1753  0.2544
11893TIP3    H157170   0.233   5.694   0.249  0.7566  1.2651  1.2091
11893TIP3    H257171   0.104   5.752   0.196  0.1749 -1.2141 -0.2411
11894TIP3   OH257172   4.240   6.750  11.711 -0.0380  0.1925  0.4869
11894TIP3    H157173   4.300   6.802  11.764 -2.0799  0.7362  2.4457
11894TIP3    H257174   4.242   6.791  11.625  2.1731  0.3272  0.5605
11895TIP3   OH257175   2.677   1.748  12.097  0.2615 -0.1888 -0.4010
11895TIP3    H157176   2.692   1.726  12.005  2.5590  0.8139 -0.3571
11895TIP3    H257177   2.683   1.843  12.101  0.1381 -0.2064  0.7768
11896TIP3   OH257178   6.382   1.569  13.773  0.0409 -0.4056 -0.0603
11896TIP3    H157179   6.406   1.653  13.732  0.5858 -1.0469 -1.1100
11896TIP3    H257180   6.456   1.549  13.830  0.5128 -0.7821 -0.7884
11897TIP3   OH257181   2.201   1.089   1.611  0.2715 -0.4591 -1.1417
11897TIP3    H157182   2.195   1.172   1.658  2.6163 -0.3199 -0.9861
11897TIP3    H257183   2.111   1.055   1.611 -0.6936  1.9367 -1.0064
11898TIP3   OH257184   2.574   3.231   1.717  0.0666  0.4410  0.0807
11898TIP3    H157185   2.514   3.233   1.642  0.4931 -0.1234 -0.2916
11898TIP3    H257186   2.650   3.280   1.688 -0.3411  1.4544  0.6799
11899TIP3   OH257187   5.674   2.605   0.575  0.4814  0.4282 -0.1081
11899TIP3    H157188   5.748   2.545   0.583  0.8863  0.7571 -1.2353
11899TIP3    H257189   5.693   2.657   0.497 -0.6780  0.8939 -0.1037
11900TIP3   OH257190   1.571   0.666  12.405 -0.4581  0.1839  0.0563
11900TIP3    H157191   1.482   0.700  12.411 -0.0797  1.1176  0.5300
11900TIP3    H257192   1.582   0.644  12.312 -1.3974 -0.5685  0.1072
11901TIP3   OH257193   1.392   3.223  11.104  0.5955  0.1813  0.1558
11901TIP3    H157194   1.348   3.151  11.057  1.4527  0.7105 -1.5375
11901TIP3    H257195   1.484   3.198  11.104  0.5716 -0.0111  2.0081
11902TIP3   OH257196   4.161   2.818  16.721 -0.1331  0.5790  0.1200
11902TIP3    H157197   4.230   2.765  16.681  0.7238  1.5069  0.3367
11902TIP3    H257198   4.197   2.846  16.805 -0.4011  1.7984 -0.1446
11903TIP3   OH257199   5.886   4.881  10.932 -0.0511  0.2815 -0.0436
11903TIP3    H157200   5.960   4.940  10.916  0.8404 -0.4428  1.2729
11903TIP3    H257201   5.836   4.883  10.850  0.9169  1.4901 -0.6361
11904TIP3   OH257202   1.135   4.877  16.359  0.4496 -0.0537  0.2192
11904TIP3    H157203   1.209   4.821  16.379  0.6557  0.3492  0.5937
11904TIP3    H257204   1.154   4.959  16.404  1.3941  1.2521 -2.3593
11905TIP3   OH257205   0.141   6.482  13.103  0.1298  0.1781  0.2711
11905TIP3    H157206   0.200   6.526  13.165  0.9547  0.5610 -0.7698
11905TIP3    H257207   0.054   6.492  13.143  0.5356  1.1709  0.9585
11906TIP3   OH257208   4.822   2.598  12.832  0.0440 -0.3145  0.3233
11906TIP3    H157209   4.902   2.608  12.781  0.4886  0.9631  1.2021
11906TIP3    H257210   4.793   2.688  12.850 -2.3854 -0.7089 -1.1310
11907TIP3   OH257211   1.118   4.122  15.082  0.1616  0.3761 -0.3713
11907TIP3    H157212   1.111   4.027  15.094 -3.0819  0.6886  1.4578
11907TIP3    H257213   1.206   4.143  15.112  1.1897 -2.0739 -1.4009
11908TIP3   OH257214   5.833   5.531  15.033 -0.1221  0.1855 -0.0389
11908TIP3    H157215   5.786   5.533  15.116  1.4126 -0.2291  0.8871
11908TIP3    H257216   5.808   5.612  14.989 -3.4660 -1.0432 -0.6907
11909TIP3   OH257217   5.705   4.129  13.707 -0.3721  0.0166 -0.4439
11909TIP3    H157218   5.623   4.131  13.658  0.6893 -0.7003 -2.3930
11909TIP3    H257219   5.679   4.109  13.797 -2.3028 -0.4831 -1.0626
11910TIP3   OH257220   3.561   1.054   4.032  0.2754  0.8457  0.3721
11910TIP3    H157221   3.617   0.977   4.032 -0.1304  0.5507  0.7628
11910TIP3    H257222   3.486   1.029   3.979  0.0929  0.9346  0.5876
11911TIP3   OH257223   2.102   4.445   0.709 -0.1792 -0.4203 -0.3261
11911TIP3    H157224   2.087   4.489   0.793  0.4370 -0.5547 -0.1387
11911TIP3    H257225   2.055   4.499   0.645  1.6767  1.3453 -0.3118
11912TIP3   OH257226   6.687   6.810   1.480 -0.3178 -0.0353 -0.7020
11912TIP3    H157227   6.703   6.750   1.407 -0.3055  0.8766 -1.4593
11912TIP3    H257228   6.766   6.865   1.484 -0.7707  0.6231 -0.6948
11913TIP3   OH257229   0.589   1.910  14.480  0.0355 -0.3356  0.0546
11913TIP3    H157230   0.649   1.891  14.408  1.5393 -2.1303  1.6548
11913TIP3    H257231   0.602   2.003  14.498  2.8229 -0.7164  0.6149
11914TIP3   OH257232   5.738   5.015  14.202 -0.2167 -0.2536 -0.0723
11914TIP3    H157233   5.648   5.001  14.230 -0.3840  0.7821 -0.0559
11914TIP3    H257234   5.731   5.061  14.119  0.2983 -2.4942 -1.4395
11915TIP3   OH257235   0.012   6.319   5.338 -0.1358 -0.2994 -0.2302
11915TIP3    H157236  -0.045   6.396   5.346 -1.4522 -1.3674  1.2299
11915TIP3    H257237  -0.025   6.270   5.264 -0.0204 -0.1317 -0.4018
11916TIP3   OH257238   3.978   5.092   2.095  0.3400 -0.5064  0.2830
11916TIP3    H157239   4.042   5.048   2.039 -1.0512 -1.4473 -0.6282
11916TIP3    H257240   4.025   5.110   2.176  3.4125  3.6572 -2.0418
11917TIP3   OH257241   1.564   4.762  12.052 -0.2786  0.6704  0.9965
11917TIP3    H157242   1.504   4.831  12.080  0.4997  0.8541  2.3156
11917TIP3    H257243   1.651   4.801  12.064  0.1382  0.5478 -1.2156
11918TIP3   OH257244   2.415   1.638   2.406  0.3090  0.3451  0.3147
11918TIP3    H157245   2.496   1.648   2.456 -0.9328  1.2011  2.2510
11918TIP3    H257246   2.375   1.558   2.440  0.0147  0.2727 -0.1921
11919TIP3   OH257247   5.966   2.413   2.674  0.0361 -0.1675  0.0306
11919TIP3    H157248   5.921   2.449   2.751 -0.4970  0.7655 -0.7034
11919TIP3    H257249   5.996   2.327   2.703 -1.1902 -0.3252  0.9075
11920TIP3   OH257250   2.746   3.754  15.304  0.5573 -0.9932  0.0764
11920TIP3    H157251   2.718   3.836  15.264 -0.5720  0.0816  2.8101
11920TIP3    H257252   2.671   3.695  15.293 -0.6595  0.0099  2.3320
11921TIP3   OH257253   1.774   1.898   0.580 -0.2512 -0.0103  0.2886
11921TIP3    H157254   1.702   1.834   0.578 -1.6167  1.4628 -0.0565
11921TIP3    H257255   1.840   1.861   0.521 -0.1038 -2.0366  1.6115
11922TIP3   OH257256   6.709   6.666   1.239 -0.0486  0.6266  0.3010
11922TIP3    H157257   6.639   6.603   1.253 -0.3039 -0.0311 -3.0349
11922TIP3    H257258   6.787   6.613   1.223  0.3085  1.2291 -0.0027
11923TIP3   OH257259   4.093   4.436   0.696  0.4316 -0.1458  0.2057
11923TIP3    H157260   3.997   4.442   0.697  0.3073 -1.8158  0.5961
11923TIP3    H257261   4.113   4.400   0.609  0.5462 -1.5709  0.7945
11924TIP3   OH257262   5.179   1.192   4.203 -0.0865  0.4499 -0.4578
11924TIP3    H157263   5.243   1.260   4.181  0.0431  0.3927 -0.2586
11924TIP3    H257264   5.096   1.226   4.169 -0.0443  0.7655 -0.2493
11925TIP3   OH257265   4.212   4.064   3.536  0.0882 -0.0176  0.2059
11925TIP3    H157266   4.197   4.017   3.618  2.0615  0.2228  0.7620
11925TIP3    H257267   4.201   4.157   3.559  0.2936  0.0310  0.1128
11926TIP3   OH257268   0.301   3.258   6.664  0.8671  0.2259  0.3837
11926TIP3    H157269   0.351   3.223   6.590  0.0518  2.1237 -1.1405
11926TIP3    H257270   0.364   3.311   6.712  1.2318 -0.4499  0.6637
11927TIP3   OH257271   4.246   5.415  12.149  0.2085 -0.7497 -0.4630
11927TIP3    H157272   4.220   5.501  12.115 -0.3864 -0.7824 -0.1132
11927TIP3    H257273   4.189   5.353  12.103 -0.9544 -0.7538  0.9062
11928TIP3   OH257274   0.922   0.907  16.004  0.0598 -0.1723 -0.0417
11928TIP3    H157275   0.855   0.859  16.053  1.0482  0.0684  1.6460
11928TIP3    H257276   0.938   0.854  15.927 -1.4704 -0.6548 -0.0720
11929TIP3   OH257277   0.176   3.086   6.245  0.1074  0.1318 -0.7079
11929TIP3    H157278   0.120   3.046   6.311  2.7676 -2.0133  0.4729
11929TIP3    H257279   0.247   3.127   6.296  1.2108  0.1130 -2.1573
11930TIP3   OH257280   4.663   2.628   5.157  0.2790  0.5972  0.7387
11930TIP3    H157281   4.650   2.548   5.207  2.1508 -0.2008  0.0437
11930TIP3    H257282   4.585   2.637   5.103 -0.2409 -0.3806  1.3085
11931TIP3   OH257283   4.189   6.695   3.879  0.0872  0.1256 -0.3987
11931TIP3    H157284   4.095   6.696   3.895  0.0368  1.1202 -0.6806
11931TIP3    H257285   4.226   6.651   3.955 -0.5008  0.9068  0.3572
11932TIP3   OH257286   0.412   1.124  15.404 -0.0623  0.2363 -0.0669
11932TIP3    H157287   0.402   1.202  15.458  2.0013  0.8703 -0.5012
11932TIP3    H257288   0.499   1.089  15.427 -0.1737 -0.8838 -1.1914
11933TIP3   OH257289   6.266   0.573   0.651  0.0869 -0.0369 -0.3546
11933TIP3    H157290   6.241   0.545   0.739 -0.7295 -1.0260 -0.8839
11933TIP3    H257291   6.188   0.617   0.616  0.5265  0.6773 -0.4570
11934TIP3   OH257292   0.457   3.827  13.807 -0.2063 -0.5182  0.3900
11934TIP3    H157293   0.526   3.773  13.846  2.2708 -0.2867 -3.1841
11934TIP3    H257294   0.414   3.769  13.744 -1.5119  0.1110  0.6616
11935TIP3   OH257295   1.815   4.130   3.437 -0.1550  0.2249  0.7025
11935TIP3    H157296   1.887   4.192   3.424 -0.0853 -0.1097 -0.7319
11935TIP3    H257297   1.858   4.046   3.453 -0.2398  0.3112  1.3890
11936TIP3   OH257298   4.627   0.905   5.644  0.7079 -0.3686 -0.4464
11936TIP3    H157299   4.647   0.989   5.604  2.9778 -1.0792 -0.9412
11936TIP3    H257300   4.646   0.918   5.737 -0.3612  0.0500 -0.2726
11937TIP3   OH257301   6.491   0.460  13.135 -0.5504 -0.2246 -0.3206
11937TIP3    H157302   6.427   0.406  13.088 -2.4795  1.8934 -0.2932
11937TIP3    H257303   6.549   0.493  13.066 -0.9250 -0.3112 -0.6827
11938TIP3   OH257304   4.751   3.438   1.145 -0.1093 -0.2184  0.3566
11938TIP3    H157305   4.692   3.444   1.221  1.3710 -0.3611  1.5556
11938TIP3    H257306   4.693   3.447   1.070 -1.7851 -1.2141  1.4619
11939TIP3   OH257307   3.381   1.068  11.864 -0.0290  0.5924  0.1216
11939TIP3    H157308   3.356   1.085  11.773 -1.8584 -0.7921  0.3156
11939TIP3    H257309   3.429   0.984  11.860  0.6641  0.9657  0.3477
11940TIP3   OH257310   3.109   3.754   2.836  0.7748 -0.2321  0.7047
11940TIP3    H157311   3.050   3.825   2.811  0.5626 -0.1151  1.4929
11940TIP3    H257312   3.088   3.682   2.777 -0.5780 -0.3966  1.3532
11941TIP3   OH257313   1.840   0.800   0.837 -0.5765 -0.3936 -0.1014
11941TIP3    H157314   1.812   0.728   0.895 -0.9901  0.3153  0.5997
11941TIP3    H257315   1.767   0.861   0.839 -0.6247 -0.3964 -1.4602
11942TIP3   OH257316   2.587   1.242   5.080 -0.2618  0.6078 -0.5971
11942TIP3    H157317   2.588   1.175   5.148  0.0799  1.0189 -0.1898
11942TIP3    H257318   2.543   1.316   5.121 -0.7223  0.6033 -1.0764
11943TIP3   OH257319   3.425   3.491  15.769 -0.5560 -0.3388 -0.4031
11943TIP3    H157320   3.373   3.467  15.692  1.9993 -1.9559 -1.7529
11943TIP3    H257321   3.400   3.582  15.786 -1.9153 -0.2150 -2.5538
11944TIP3   OH257322   1.053   6.772  16.990 -0.0766  0.0059 -0.2300
11944TIP3    H157323   1.072   6.732  17.075  0.3539  1.2226  0.2566
11944TIP3    H257324   0.984   6.836  17.008 -0.0893  0.1704 -0.8361
11945TIP3   OH257325   4.982   4.505  13.829  0.1174 -0.3840  0.1483
11945TIP3    H157326   4.930   4.471  13.902 -2.2740  1.0117 -0.7910
11945TIP3    H257327   4.992   4.429  13.771  0.6420 -1.1012  1.1367
11946TIP3   OH257328   6.382   4.539   4.923 -0.2620 -0.3722 -0.4113
11946TIP3    H157329   6.287   4.534   4.923 -0.4145  1.5636  0.3277
11946TIP3    H257330   6.402   4.631   4.908  1.4664 -0.5426  0.4891
11947TIP3   OH257331   5.075   0.783  16.929  0.1565  0.2069 -0.5387
11947TIP3    H157332   5.093   0.700  16.973 -0.6497 -0.2605 -1.0505
11947TIP3    H257333   5.099   0.767  16.837 -0.8094  0.2373 -0.8125
11948TIP3   OH257334   0.863   5.277   5.041 -0.1222  0.5574 -0.5858
11948TIP3    H157335   0.818   5.239   5.117 -0.7797 -0.3648 -1.4172
11948TIP3    H257336   0.943   5.224   5.032 -1.6041 -1.4982 -2.4554
11949TIP3   OH257337   0.410   2.889  13.097  0.8183 -0.0166  0.7857
11949TIP3    H157338   0.394   2.952  13.167  1.7956  0.1814  0.8399
11949TIP3    H257339   0.323   2.872  13.060  0.5676  1.6465  0.5190
11950TIP3   OH257340   0.717   6.092  15.686  0.1129  0.4267  0.6338
11950TIP3    H157341   0.654   6.055  15.747 -1.6584  0.3080 -1.1489
11950TIP3    H257342   0.775   6.019  15.664  0.2239  0.2533  1.4779
11951TIP3   OH257343   0.300   3.844   2.469 -0.4186 -0.4436 -0.4863
11951TIP3    H157344   0.391   3.825   2.490 -0.6603 -0.8148  0.2545
11951TIP3    H257345   0.300   3.858   2.375  0.3536 -0.7210 -0.5361
11952TIP3   OH257346   5.409   5.581   4.832 -0.3088  0.4826 -0.2127
11952TIP3    H157347   5.392   5.571   4.926  0.4169  0.2000 -0.1110
11952TIP3    H257348   5.428   5.674   4.821  2.3570  0.0840  0.3932
11953TIP3   OH257349   5.725   4.845   1.105 -0.3120 -0.2956  0.0619
11953TIP3    H157350   5.689   4.814   1.188  0.9075 -0.8349  0.4189
11953TIP3    H257351   5.726   4.940   1.113 -5.1918  0.1483 -1.4980
11954TIP3   OH257352   1.885   6.661  12.692 -0.7288 -0.0024  0.2028
11954TIP3    H157353   1.871   6.653  12.787  0.3172 -1.7459  0.2622
11954TIP3    H257354   1.940   6.585  12.670 -0.4222  0.7268 -1.7012
11955TIP3   OH257355   0.340   0.432  16.782 -0.1260 -0.2135 -0.6535
11955TIP3    H157356   0.416   0.384  16.815 -0.8853 -1.4311 -0.6083
11955TIP3    H257357   0.370   0.468  16.698  1.9607  3.2915  1.3697
11956TIP3   OH257358   5.676   5.372   5.057 -0.4094 -0.4201 -0.7262
11956TIP3    H157359   5.734   5.364   5.133 -1.7471 -1.2649  0.2454
11956TIP3    H257360   5.592   5.336   5.086 -1.5033  0.9315 -2.0207
11957TIP3   OH257361   2.031   0.194  14.875 -0.1030  0.2589  0.0319
11957TIP3    H157362   1.960   0.158  14.822  0.4579 -0.0183 -0.5400
11957TIP3    H257363   2.108   0.143  14.851  0.0778 -0.1971  1.4647
11958TIP3   OH257364   4.792   2.472  14.339  0.6504 -0.3848  0.8012
11958TIP3    H157365   4.788   2.535  14.266  0.3771  0.6167  1.6579
11958TIP3    H257366   4.837   2.519  14.409  1.8062 -1.6791  0.9697
11959TIP3   OH257367   2.402   6.008   0.197  0.1333 -1.0414  0.4748
11959TIP3    H157368   2.384   5.917   0.221  1.1063 -0.7210  2.6209
11959TIP3    H257369   2.321   6.038   0.155 -1.1711 -2.1418  2.0557
11960TIP3   OH257370   5.510   3.754  10.792  0.1795 -0.2469 -0.2209
11960TIP3    H157371   5.486   3.704  10.870  0.2966 -1.0521 -0.6961
11960TIP3    H257372   5.605   3.767  10.800 -0.2058  2.5468  1.4271
11961TIP3   OH257373   5.769   6.659  15.130 -0.2089 -0.2412 -0.0456
11961TIP3    H157374   5.854   6.634  15.094 -0.3240 -1.2716  0.3528
11961TIP3    H257375   5.788   6.686  15.220 -0.3784 -1.1476  0.2734
11962TIP3   OH257376   2.384   0.097   4.871 -0.8801 -0.7545 -0.2864
11962TIP3    H157377   2.446   0.063   4.806 -0.8643 -1.9941  0.3629
11962TIP3    H257378   2.440   0.131   4.941 -0.9005  0.5094 -0.8459
11963TIP3   OH257379   1.325   1.544  12.958 -0.1983 -0.2969 -0.0644
11963TIP3    H157380   1.315   1.634  12.989  0.1140 -0.2386 -0.1269
11963TIP3    H257381   1.304   1.490  13.035 -0.6030 -0.1756 -0.0905
11964TIP3   OH257382   4.812   1.482  13.934  0.3936  0.5299 -0.1645
11964TIP3    H157383   4.728   1.439  13.917 -0.0497  1.0507  0.6497
11964TIP3    H257384   4.877   1.419  13.904 -0.2650 -0.2499 -0.0138
11965TIP3   OH257385   4.170   3.524  13.482  0.1583  0.1721 -0.0047
11965TIP3    H157386   4.256   3.545  13.518  0.6412  0.7525 -1.4209
11965TIP3    H257387   4.119   3.494  13.557  1.9202 -1.2498  0.6758
11966TIP3   OH257388   6.364   2.212   4.570  0.2176 -0.3298 -0.2704
11966TIP3    H157389   6.308   2.139   4.599 -1.0458 -0.2622 -2.3495
11966TIP3    H257390   6.436   2.213   4.633 -1.0214 -1.7848  1.2706
11967TIP3   OH257391   5.006   3.645  15.922 -0.1480 -0.3526 -0.3579
11967TIP3    H157392   5.085   3.596  15.898 -0.3894 -0.3749 -1.1082
11967TIP3    H257393   4.985   3.613  16.010 -0.1765 -1.4650 -0.7471
11968TIP3   OH257394   5.699   0.188  16.253 -0.1017  0.4547  0.2721
11968TIP3    H157395   5.668   0.133  16.325  0.1717 -0.3821 -0.2335
11968TIP3    H257396   5.622   0.201  16.198 -0.3691  1.2924  0.8214
11969TIP3   OH257397   5.796   6.793  12.340 -0.1319 -0.2037  0.6168
11969TIP3    H157398   5.848   6.796  12.260 -1.8917  0.7792 -0.5321
11969TIP3    H257399   5.705   6.798  12.311 -0.8441 -0.2482  2.6550
11970TIP3   OH257400   1.644   3.305  10.927 -0.0400 -0.1313  0.0286
11970TIP3    H157401   1.714   3.270  10.871  0.9285  1.0034  0.4832
11970TIP3    H257402   1.614   3.383  10.880  0.1182  0.2890  0.6204
11971TIP3   OH257403   4.685   4.469  16.741 -0.0950  0.7404  0.1429
11971TIP3    H157404   4.740   4.411  16.687  0.2053  0.4042  0.7924
11971TIP3    H257405   4.695   4.555  16.701 -0.3949  0.3915 -0.7295
11972TIP3   OH257406   4.531   4.244  14.921  0.5735  0.0404  0.1700
11972TIP3    H157407   4.477   4.322  14.934 -1.8666 -0.8612 -3.2340
11972TIP3    H257408   4.489   4.177  14.974  1.8436  0.5893  1.9766
11973TIP3   OH257409   6.118   1.783  11.545  0.5023  0.2151 -0.1800
11973TIP3    H157410   6.127   1.793  11.639 -1.9659 -0.6470  0.2070
11973TIP3    H257411   6.191   1.834  11.508  0.5018  1.9986  2.1131
11974TIP3   OH257412   6.573   0.692  14.424 -0.2314  0.0330 -0.5313
11974TIP3    H157413   6.484   0.683  14.391 -0.3810  1.8889 -0.7152
11974TIP3    H257414   6.624   0.719  14.348  0.6735 -1.6972 -0.5928
11975TIP3   OH257415   3.797   5.565   1.517 -0.3170 -0.4158  0.3242
11975TIP3    H157416   3.766   5.504   1.450  1.2462 -2.6261  1.4930
11975TIP3    H257417   3.738   5.553   1.590  0.7336 -1.5687  1.0286
11976TIP3   OH257418   0.230   5.483  16.632  0.6295 -0.4608  0.1226
11976TIP3    H157419   0.174   5.405  16.626  0.9335 -0.6989  0.3864
11976TIP3    H257420   0.302   5.466  16.572  0.0840  0.1364 -0.7357
11977TIP3   OH257421   1.818   4.151  14.886  0.3149  0.2560  1.0257
11977TIP3    H157422   1.823   4.128  14.793  0.5000  0.5118  0.9693
11977TIP3    H257423   1.857   4.077  14.931 -1.5963 -0.7875  1.0497
11978TIP3   OH257424   2.692   1.383   2.201  0.2741 -0.0327  0.1589
11978TIP3    H157425   2.696   1.475   2.175  0.0370  0.1846  0.8566
11978TIP3    H257426   2.745   1.337   2.136 -1.3837  0.2840 -1.5052
11979TIP3   OH257427   4.710   3.548   5.127 -0.0815 -0.1728 -0.1376
11979TIP3    H157428   4.697   3.513   5.039 -1.8894 -0.5482  0.2227
11979TIP3    H257429   4.773   3.489   5.168 -0.3136 -0.8318 -0.7229
11980TIP3   OH257430   0.816   2.603  13.410  0.2710 -0.3936 -0.1739
11980TIP3    H157431   0.806   2.596  13.315  1.2755 -1.2191 -0.2354
11980TIP3    H257432   0.727   2.612  13.443 -0.1858 -1.2145 -1.1176
11981TIP3   OH257433   0.885   0.513   1.358 -0.0729  0.0795  0.0316
11981TIP3    H157434   0.812   0.573   1.371  0.1068  0.2957  0.0341
11981TIP3    H257435   0.851   0.450   1.293  0.0835  0.7758 -0.7511
11982TIP3   OH257436   2.623   0.805   5.011 -0.0531 -0.4520  0.5428
11982TIP3    H157437   2.661   0.799   5.099 -1.1356 -0.5340  1.0207
11982TIP3    H257438   2.698   0.794   4.952  0.2545 -5.0147  1.3710
11983TIP3   OH257439   2.737   2.125  13.481 -0.4453 -0.0374 -0.1915
11983TIP3    H157440   2.642   2.120  13.492 -0.4729 -3.7108 -0.8770
11983TIP3    H257441   2.750   2.117  13.387  0.5500 -0.7791 -0.0007
11984TIP3   OH257442   4.200   0.195  12.370  0.4994  0.6075 -0.5784
11984TIP3    H157443   4.204   0.251  12.448 -1.4047  1.7450 -1.2219
11984TIP3    H257444   4.189   0.106  12.405 -2.9793  1.3090  0.5949
11985TIP3   OH257445   4.929   6.084  11.930  0.1007 -0.7870  0.0138
11985TIP3    H157446   4.919   6.079  12.025  0.6226 -0.8384  0.0702
11985TIP3    H257447   5.008   6.033  11.911  1.0805  0.7385 -0.2346
11986TIP3   OH257448   4.536   6.427   2.346  0.2047 -0.4404 -0.3527
11986TIP3    H157449   4.559   6.350   2.295  0.8395 -0.9190  0.6307
11986TIP3    H257450   4.489   6.393   2.422  2.2833 -0.1334  1.1880
11987TIP3   OH257451   4.402   1.275   2.357 -0.4541 -0.3016 -0.3593
11987TIP3    H157452   4.431   1.266   2.448  0.8072  0.6884 -0.6289
11987TIP3    H257453   4.314   1.237   2.356 -0.9274  0.6083  1.5112
11988TIP3   OH257454   3.648   0.163   5.656  0.0439 -0.0346 -0.0379
11988TIP3    H157455   3.668   0.093   5.719  0.4696 -0.9360 -1.1402
11988TIP3    H257456   3.731   0.177   5.610 -0.3473  0.3786 -0.6165
11989TIP3   OH257457   1.155   4.704  10.755 -0.6073  0.1089  0.6842
11989TIP3    H157458   1.229   4.765  10.762  0.0673 -0.7237  0.9559
11989TIP3    H257459   1.187   4.623  10.795 -0.8979 -0.9604 -1.1031
11990TIP3   OH257460   0.299   6.164   1.939  0.2040 -0.1097 -0.6841
11990TIP3    H157461   0.382   6.116   1.940 -0.0304 -0.5523  0.7801
11990TIP3    H257462   0.232   6.096   1.930 -0.1871 -0.2636  2.3973
11991TIP3   OH257463   0.354   0.549  16.437 -0.0968  0.4187  0.0555
11991TIP3    H157464   0.261   0.535  16.453  0.1514 -1.1907  0.2752
11991TIP3    H257465   0.359   0.637  16.399 -1.8680 -0.0563 -1.4265
11992TIP3   OH257466   2.746   6.250   5.478 -0.0895 -0.2678 -0.5838
11992TIP3    H157467   2.688   6.306   5.529 -0.2035 -0.2676 -0.7123
11992TIP3    H257468   2.761   6.173   5.533  0.6035  0.1830 -0.1264
11993TIP3   OH257469   6.316   4.441   3.085 -0.2794 -0.3127  0.0252
11993TIP3    H157470   6.365   4.404   3.159 -1.5631 -0.8905  0.6314
11993TIP3    H257471   6.225   4.419   3.104 -1.0248  2.2971 -0.1219
11994TIP3   OH257472   3.804   1.340  13.295  0.4937  0.0820 -0.0983
11994TIP3    H157473   3.819   1.427  13.259  1.9285 -0.5963 -1.2167
11994TIP3    H257474   3.852   1.280  13.238 -1.9285 -1.6860 -0.4745
11995TIP3   OH257475   0.462   5.784   0.431 -0.6208  0.3705 -0.3145
11995TIP3    H157476   0.431   5.826   0.351 -1.5667  0.7854  0.2407
11995TIP3    H257477   0.509   5.706   0.401 -0.4724  0.8161 -1.2850
11996TIP3   OH257478   1.522   5.507   1.940 -0.4797  0.6153 -0.5722
11996TIP3    H157479   1.495   5.464   1.859 -2.8142  1.2240 -0.2020
11996TIP3    H257480   1.454   5.483   2.003  1.7038 -0.5580  1.5183
11997TIP3   OH257481   3.395   4.816   3.373 -1.1543 -0.0049  0.0929
11997TIP3    H157482   3.300   4.802   3.374 -0.8156 -2.7890  0.2991
11997TIP3    H257483   3.431   4.734   3.340  1.2181  0.9389  0.1542
11998TIP3   OH257484   5.528   5.056   1.570  0.3636  0.2752  0.4210
11998TIP3    H157485   5.436   5.035   1.580 -0.3155  1.9143 -1.6781
11998TIP3    H257486   5.543   5.052   1.475  3.2280 -2.8498  0.8137
11999TIP3   OH257487   4.438   0.287   3.878  0.0121  0.2675  0.1109
11999TIP3    H157488   4.402   0.222   3.817  1.8678 -0.3476 -0.4072
11999TIP3    H257489   4.364   0.313   3.932 -1.7354  0.8078 -2.3611
12000TIP3   OH257490   6.288   2.284   2.585  0.4266 -0.2294 -0.2297
12000TIP3    H157491   6.234   2.206   2.593  0.7436 -0.3134  1.5742
12000TIP3    H257492   6.235   2.354   2.624  0.7749  0.1317 -0.3944
12001TIP3   OH257493   4.954   3.618   2.090  0.1051 -0.6890 -0.0463
12001TIP3    H157494   5.038   3.577   2.110  0.1189 -1.8892 -2.2946
12001TIP3    H257495   4.932   3.586   2.002 -1.4353  1.6783 -0.5955
12002TIP3   OH257496   4.692   1.841   2.158 -0.3281  0.4336  0.1412
12002TIP3    H157497   4.755   1.867   2.091 -0.1499 -0.5798 -0.1023
12002TIP3    H257498   4.624   1.908   2.155  0.3861  1.1569 -0.0739
12003TIP3   OH257499   3.813   2.178   3.427 -0.5874 -0.1109 -0.3564
12003TIP3    H157500   3.764   2.097   3.413 -0.0676 -0.6444  0.7873
12003TIP3    H257501   3.773   2.241   3.367 -1.0125 -1.2005 -1.2566
12004TIP3   OH257502   5.694   3.249  16.446 -0.2638 -0.2531  0.3310
12004TIP3    H157503   5.687   3.339  16.477 -2.1996 -0.4022  0.4597
12004TIP3    H257504   5.773   3.248  16.391  0.3339  1.2591  1.1181
12005TIP3   OH257505   4.827   5.883   0.414 -0.4563  0.0548 -0.5412
12005TIP3    H157506   4.831   5.841   0.500 -0.6499 -0.0499 -0.5820
12005TIP3    H257507   4.742   5.929   0.415 -1.3878 -1.5517 -1.4144
12006TIP3   OH257508   1.358   3.623   4.533  0.1809  0.2121 -0.3632
12006TIP3    H157509   1.323   3.617   4.622 -0.4029  1.2461 -0.5048
12006TIP3    H257510   1.282   3.608   4.476  0.6383 -0.9045 -0.7018
12007TIP3   OH257511   5.747   6.158   2.659 -0.2529  0.0084 -0.5448
12007TIP3    H157512   5.748   6.253   2.669 -0.7152 -0.1004  0.6319
12007TIP3    H257513   5.839   6.132   2.666 -0.2684  0.2321  0.6448
12008TIP3   OH257514   4.272   4.339   4.352  0.3692 -0.1166 -0.5064
12008TIP3    H157515   4.219   4.264   4.328 -2.0488  1.1839  0.4335
12008TIP3    H257516   4.210   4.412   4.358  2.4942  1.8423 -0.7712
12009TIP3   OH257517   4.858   5.378  16.528 -0.1229 -0.0374  0.0764
12009TIP3    H157518   4.787   5.318  16.506 -0.9418  0.9643 -0.0722
12009TIP3    H257519   4.825   5.464  16.504  1.0643  0.4716  0.2105
12010TIP3   OH257520   4.493   6.839  11.805 -0.4365  0.0658 -0.5906
12010TIP3    H157521   4.536   6.924  11.814 -0.4233  0.0832 -0.8059
12010TIP3    H257522   4.564   6.778  11.784 -0.5213  0.1080 -1.0203
12011TIP3   OH257523   2.382   4.713   6.329 -0.2152 -0.5926  0.3261
12011TIP3    H157524   2.454   4.769   6.358 -1.7613  1.6397  0.1227
12011TIP3    H257525   2.398   4.701   6.235  0.5670 -1.2497  0.5247
12012TIP3   OH257526   0.556   4.614   1.065 -0.3753 -0.0600  0.4491
12012TIP3    H157527   0.493   4.578   1.002  1.0800 -0.2656 -0.9679
12012TIP3    H257528   0.504   4.630   1.144 -1.9300 -1.4006 -0.2234
12013TIP3   OH257529   1.290   1.862   2.308  0.2121 -0.8140 -0.1459
12013TIP3    H157530   1.339   1.851   2.226  1.1381 -0.6966  0.3787
12013TIP3    H257531   1.323   1.793   2.365  0.7593  0.1036  0.6773
12014TIP3   OH257532   1.243   6.163  12.682  0.2762 -0.1019 -0.0909
12014TIP3    H157533   1.302   6.154  12.607  1.0576 -0.0880  0.5164
12014TIP3    H257534   1.230   6.258  12.691 -0.9515 -0.1508 -1.0644
12015TIP3   OH257535   6.196   2.501  11.739 -0.4389  0.3573  0.4519
12015TIP3    H157536   6.240   2.579  11.707 -1.5907 -0.0418 -2.4873
12015TIP3    H257537   6.106   2.510  11.706 -0.2992 -2.7064 -1.1378
12016TIP3   OH257538   6.425   6.439   2.556 -0.5492 -0.1879 -0.1691
12016TIP3    H157539   6.448   6.528   2.585  1.2857 -0.3674 -0.9427
12016TIP3    H257540   6.451   6.383   2.629 -0.5360 -0.1942 -0.1786
12017TIP3   OH257541   3.667   0.469  12.184 -0.3975 -0.3863 -0.3273
12017TIP3    H157542   3.619   0.455  12.102 -0.6572  1.3480 -0.5161
12017TIP3    H257543   3.757   0.445  12.164 -0.5391 -0.3659 -1.0035
12018TIP3   OH257544   0.980   6.141  17.147 -0.1365  0.3455 -0.2919
12018TIP3    H157545   0.998   6.061  17.197 -2.1630 -0.1966 -0.3642
12018TIP3    H257546   1.066   6.166  17.111  0.8256 -0.8930  1.0225
12019TIP3   OH257547   5.659   1.955  17.002  0.4053 -0.1713  0.3212
12019TIP3    H157548   5.684   1.863  17.006  0.4796 -0.1180  1.4895
12019TIP3    H257549   5.563   1.954  17.008  0.4031 -0.1828  0.2817
12020TIP3   OH257550   2.783   3.212  12.203  0.4490 -0.4976  0.2024
12020TIP3    H157551   2.728   3.136  12.225 -1.0046  0.4650  0.0799
12020TIP3    H257552   2.852   3.177  12.147 -1.0607 -1.5215 -1.1187
12021TIP3   OH257553   2.358   2.410  11.230  0.5144 -0.4428 -0.3735
12021TIP3    H157554   2.450   2.391  11.214  0.7006 -0.7943  0.9782
12021TIP3    H257555   2.310   2.340  11.185  0.9918 -1.2476  0.3399
12022TIP3   OH257556   5.393   4.012   2.162  0.4838 -0.1430 -0.0137
12022TIP3    H157557   5.307   3.975   2.180 -0.4752  0.8267 -2.2449
12022TIP3    H257558   5.430   4.029   2.248 -0.7323 -2.3179  1.0343
12023TIP3   OH257559   2.454   1.443   3.421 -0.1995 -0.1575  0.4614
12023TIP3    H157560   2.478   1.355   3.393  0.3319  1.2163 -4.2584
12023TIP3    H257561   2.537   1.491   3.424 -0.7259  0.7701  0.5746
12024TIP3   OH257562   1.517   2.859   1.546 -0.1874  0.0704 -0.0784
12024TIP3    H157563   1.475   2.881   1.629 -1.0201 -1.5204 -0.0467
12024TIP3    H257564   1.611   2.863   1.565 -0.3655 -0.1364  0.8928
12025TIP3   OH257565   4.185   2.070   3.066 -0.0771 -0.0957  0.4762
12025TIP3    H157566   4.238   2.074   3.146 -0.2350  1.1786  0.5296
12025TIP3    H257567   4.134   2.151   3.067 -1.5446 -0.9814  0.0819
12026TIP3   OH257568   5.345   6.501  12.388 -0.4547  0.6535  0.3837
12026TIP3    H157569   5.396   6.524  12.310  1.8309 -0.5498  1.4212
12026TIP3    H257570   5.401   6.527  12.461 -0.9795 -1.4387  1.6042
12027TIP3   OH257571   0.349   4.127   3.689 -0.5702 -0.4128  0.0031
12027TIP3    H157572   0.381   4.192   3.626 -0.6234 -1.3534 -1.0388
12027TIP3    H257573   0.325   4.051   3.635 -0.4081 -1.3446  1.1858
12028TIP3   OH257574   3.429   4.355   5.183 -0.0827 -0.0438  0.3192
12028TIP3    H157575   3.513   4.323   5.214 -0.2986  0.3301  1.3329
12028TIP3    H257576   3.379   4.276   5.164  0.4101 -0.2679 -0.0648
12029TIP3   OH257577   0.006   0.665   5.462  0.0293  0.1490 -0.2338
12029TIP3    H157578   0.058   0.609   5.520  0.2082  1.0239  0.4870
12029TIP3    H257579  -0.079   0.624   5.457 -0.4657  0.8020  1.8698
12030TIP3   OH257580   4.983   3.850  16.858 -0.0223  0.5299 -0.3516
12030TIP3    H157581   4.995   3.945  16.857 -0.1630  0.5960  1.4595
12030TIP3    H257582   5.037   3.819  16.930 -1.1233 -0.5902  0.0313
12031TIP3   OH257583   2.816   6.633   0.093 -0.2829 -0.3249  0.0276
12031TIP3    H157584   2.795   6.698   0.026 -0.7825  1.0183  1.4314
12031TIP3    H257585   2.753   6.651   0.164  1.1236 -0.7794  1.4435
12032TIP3   OH257586   5.792   2.189   6.630  0.0070  0.1807  0.7439
12032TIP3    H157587   5.755   2.150   6.551  2.9259  1.1842 -1.2952
12032TIP3    H257588   5.717   2.224   6.678 -1.7419  2.9087 -3.4631
12033TIP3   OH257589   0.092   5.227  16.573 -0.0103 -0.1402 -0.3734
12033TIP3    H157590   0.017   5.282  16.596  0.5527  2.4727 -3.9080
12033TIP3    H257591   0.061   5.176  16.498  1.3048 -0.1362 -0.9337
12034TIP3   OH257592   5.708   5.783  13.250  0.2171  0.2062  0.4035
12034TIP3    H157593   5.626   5.831  13.241 -0.2874 -0.4947  1.0855
12034TIP3    H257594   5.688   5.712  13.312  1.3124 -0.0283  0.5196
12035TIP3   OH257595   5.335   4.026   6.152 -0.4227 -0.2132  0.2406
12035TIP3    H157596   5.343   4.106   6.204  1.7141  0.0932 -0.4335
12035TIP3    H257597   5.259   3.981   6.188  0.7541  0.1030  3.4807
12036TIP3   OH257598   6.429   2.435  10.782  0.1269  0.3982 -0.0039
12036TIP3    H157599   6.398   2.525  10.776  0.0232  0.3445 -0.3378
12036TIP3    H257600   6.370   2.386  10.723  0.4652  0.1941 -0.1745
12037TIP3   OH257601   5.609   0.301   0.522  0.1363 -0.7866 -0.0980
12037TIP3    H157602   5.679   0.243   0.494  0.0085 -0.4331 -1.1865
12037TIP3    H257603   5.542   0.293   0.454 -0.1380  0.1873  0.0381
12038TIP3   OH257604   5.499   3.671   2.088 -0.6302  0.4252 -0.0767
12038TIP3    H157605   5.492   3.686   2.183  1.0791 -0.8293  0.3018
12038TIP3    H257606   5.591   3.689   2.068 -0.4569 -1.4107 -1.0779
12039TIP3   OH257607   5.638   4.260   0.928 -0.5394 -0.2082 -0.2762
12039TIP3    H157608   5.693   4.324   0.883 -0.7216  0.1127 -0.0491
12039TIP3    H257609   5.698   4.210   0.982 -0.6032  0.9245  0.8912
12040TIP3   OH257610   4.180   5.129  12.686 -0.2301 -0.0149  0.0081
12040TIP3    H157611   4.239   5.109  12.613  0.1435  1.2185 -0.0550
12040TIP3    H257612   4.238   5.157  12.756 -0.6454 -0.4147  0.5209
12041TIP3   OH257613   1.447   0.009   1.360 -0.3555  0.6425  0.0573
12041TIP3    H157614   1.384  -0.031   1.420 -1.6859 -1.1750 -2.3825
12041TIP3    H257615   1.429   0.103   1.365 -1.9214  0.3284  0.8675
12042TIP3   OH257616   1.509   3.583   6.259 -0.0056  0.7072 -0.1581
12042TIP3    H157617   1.546   3.544   6.338  1.2491  0.2998 -0.9177
12042TIP3    H257618   1.444   3.646   6.291  0.4658  0.5374  1.1839
12043TIP3   OH257619   3.170   1.510   2.372 -0.4229  0.3191  0.0213
12043TIP3    H157620   3.169   1.599   2.337  0.2964  0.8938  1.3778
12043TIP3    H257621   3.110   1.513   2.447  0.3029 -0.0784  0.6325
12044TIP3   OH257622   6.519   2.100  13.185 -0.2275  0.6310  0.5645
12044TIP3    H157623   6.496   2.121  13.094 -1.6261 -0.5206  0.6192
12044TIP3    H257624   6.494   2.008  13.195  2.6449 -0.1543  1.2754
12045TIP3   OH257625   0.949   2.175   4.441  0.4491 -0.2902 -0.2006
12045TIP3    H157626   0.977   2.085   4.431 -0.0987 -0.4948  0.0864
12045TIP3    H257627   0.956   2.212   4.353  1.4091 -0.3888 -0.1742
12046TIP3   OH257628   0.795   4.279  12.452  0.1014 -0.3953  0.3102
12046TIP3    H157629   0.820   4.187  12.467 -3.1097 -1.1718  1.8645
12046TIP3    H257630   0.788   4.316  12.540  1.2008  1.3708 -0.2957
12047TIP3   OH257631   5.692   6.778  11.782 -0.0021 -0.3028  0.4331
12047TIP3    H157632   5.746   6.700  11.794  0.5732 -0.1057 -0.7462
12047TIP3    H257633   5.700   6.799  11.689 -2.1420 -0.2942  0.1871
12048TIP3   OH257634   3.943   5.234   3.437 -0.6441  0.7082  0.1544
12048TIP3    H157635   3.946   5.152   3.485 -1.3058  1.2583  1.1750
12048TIP3    H257636   3.958   5.209   3.346  2.5898 -0.1421  0.8254
12049TIP3   OH257637   4.026   5.665  10.540 -0.1559  0.2136  0.3804
12049TIP3    H157638   4.034   5.756  10.512 -0.0051 -0.3853 -1.7203
12049TIP3    H257639   4.115   5.640  10.565  0.2500  0.0440 -1.1477
12050TIP3   OH257640   5.994   1.980   4.507  0.5875 -0.0739 -0.7456
12050TIP3    H157641   6.075   1.928   4.503  0.1717 -0.7792 -0.2151
12050TIP3    H257642   5.971   1.979   4.600  1.8618  3.0977 -0.2704
12051TIP3   OH257643   4.423   5.767   0.193  0.3723 -0.2560 -0.4198
12051TIP3    H157644   4.509   5.726   0.192  0.0066 -1.0832  0.3703
12051TIP3    H257645   4.408   5.791   0.284  0.0013  0.3987 -0.6454
12052TIP3   OH257646   2.335   0.910  11.537 -0.3236  0.3840  0.1638
12052TIP3    H157647   2.324   0.970  11.463  1.2648  1.4773  0.7462
12052TIP3    H257648   2.395   0.844  11.506  1.7319  1.7973  0.9137
12053TIP3   OH257649   2.880   0.351   2.275 -0.3856  0.2946  0.0352
12053TIP3    H157650   2.963   0.333   2.317  0.4243  0.6270 -1.3625
12053TIP3    H257651   2.903   0.374   2.185 -1.9477  0.8364 -0.2600
12054TIP3   OH257652   3.657   0.189  12.724  0.0228 -0.5478  0.6324
12054TIP3    H157653   3.676   0.252  12.655  0.3650 -1.1137  0.2010
12054TIP3    H257654   3.652   0.105  12.679  1.3962 -1.0971  1.4429
12055TIP3   OH257655   5.331   4.530   3.558  0.2494  0.0235 -0.2136
12055TIP3    H157656   5.412   4.568   3.591  1.8974 -2.2751 -1.3232
12055TIP3    H257657   5.320   4.449   3.609 -0.4935 -0.4595 -1.1015
12056TIP3   OH257658   1.972   1.864  13.175 -0.3177  0.0097 -0.1301
12056TIP3    H157659   2.029   1.798  13.213 -0.3625 -0.2028 -0.4250
12056TIP3    H257660   1.960   1.929  13.244  0.9084  0.4624 -0.3112
12057TIP3   OH257661   4.619   1.517   3.191  0.2969 -0.4396  0.2785
12057TIP3    H157662   4.600   1.607   3.163  1.5360 -0.3116 -0.1969
12057TIP3    H257663   4.569   1.507   3.272  1.0740  1.1054  0.9972
12058TIP3   OH257664   5.192   1.210  12.612 -0.2172  0.3598 -0.8157
12058TIP3    H157665   5.110   1.236  12.655 -1.1687  0.8395 -2.8090
12058TIP3    H257666   5.260   1.233  12.675 -1.6106 -0.3975  1.0511
12059TIP3   OH257667   4.067   0.264  17.196 -0.1955  0.7865 -0.1453
12059TIP3    H157668   4.069   0.170  17.174  0.3911  0.8625 -0.4547
12059TIP3    H257669   3.991   0.298  17.149 -0.4150  0.4666 -0.0284
12060TIP3   OH257670   5.074   0.073   0.180  0.3963  0.8935  0.9915
12060TIP3    H157671   4.992   0.056   0.226 -0.4977  0.7185 -0.5954
12060TIP3    H257672   5.053   0.140   0.115  0.5390 -1.5046 -1.7673
12061TIP3   OH257673   2.742   1.109   1.509  0.5783 -0.2083  0.4915
12061TIP3    H157674   2.816   1.132   1.452 -0.0715  0.7161 -0.0038
12061TIP3    H257675   2.776   1.117   1.598  1.1149  0.0507  0.2669
12062TIP3   OH257676   5.487   2.714  15.008 -0.1761  0.5380  0.1154
12062TIP3    H157677   5.485   2.783  15.074  1.3086 -0.6921  1.5149
12062TIP3    H257678   5.424   2.649  15.038 -2.0508  1.4755 -1.5353
12063TIP3   OH257679   0.842   5.541   2.023 -0.5034 -0.3866 -0.2566
12063TIP3    H157680   0.926   5.494   2.021  0.5225  1.2289  1.5811
12063TIP3    H257681   0.833   5.578   1.935 -0.4587 -2.4314 -1.1857
12064TIP3   OH257682   6.597   5.583   6.521 -0.2374 -0.5126  0.3814
12064TIP3    H157683   6.596   5.661   6.465  0.1503 -0.7880 -0.0154
12064TIP3    H257684   6.682   5.586   6.565 -0.6443 -0.1630  1.1527
12065TIP3   OH257685   3.611   4.988  13.691 -0.3114  0.2669  0.0675
12065TIP3    H157686   3.692   4.990  13.742 -0.2552 -0.4798  0.0098
12065TIP3    H257687   3.621   5.060  13.628  0.5747 -0.1920 -0.3338
12066TIP3   OH257688   4.440   4.155  10.452  0.2565  0.0363 -0.4905
12066TIP3    H157689   4.378   4.165  10.525  1.6578 -0.3963  0.8004
12066TIP3    H257690   4.397   4.199  10.379 -1.3159  0.2623  0.5146
12067TIP3   OH257691   2.431   1.858  14.504  0.5034 -0.3616 -0.1222
12067TIP3    H157692   2.386   1.862  14.588  0.4964 -0.4377 -0.1219
12067TIP3    H257693   2.362   1.871  14.439  0.5088 -0.3024 -0.1167
12068TIP3   OH257694   4.534   6.716  12.858  0.1757 -0.1092 -0.0909
12068TIP3    H157695   4.476   6.640  12.848  1.1385 -0.8420 -0.2993
12068TIP3    H257696   4.494   6.768  12.927 -0.4981 -0.8114  0.0670
12069TIP3   OH257697   6.510   3.447   6.057 -0.1492 -0.0013  0.1199
12069TIP3    H157698   6.469   3.516   6.109 -0.4762  0.6899 -1.0314
12069TIP3    H257699   6.468   3.366   6.087 -0.5082  0.4132  0.7559
12070TIP3   OH257700   2.382   1.572  12.703  0.1178 -0.7277  0.4176
12070TIP3    H157701   2.404   1.479  12.706 -1.0435 -1.1138 -1.5139
12070TIP3    H257702   2.291   1.574  12.673  0.1981  1.0562  0.1883
12071TIP3   OH257703   1.098   0.517   4.983  0.5587  0.1053  0.2499
12071TIP3    H157704   1.073   0.583   4.918  1.7432 -0.8890 -1.2843
12071TIP3    H257705   1.046   0.539   5.060 -1.9084  0.5787 -1.4101
12072TIP3   OH257706   0.114   1.868   3.419  0.3802  0.3755  0.7422
12072TIP3    H157707   0.058   1.945   3.428 -0.6664 -0.2298 -0.1456
12072TIP3    H257708   0.059   1.795   3.450  1.0931 -0.0878  0.9276
12073TIP3   OH257709   0.906   5.417  12.449  0.3677 -0.1484 -0.0846
12073TIP3    H157710   0.828   5.378  12.410  0.4222 -0.1360 -0.2053
12073TIP3    H257711   0.959   5.343  12.476  0.5356 -0.1593 -0.4419
12074TIP3   OH257712   1.398   4.256   2.753  0.1445 -0.3196 -0.2886
12074TIP3    H157713   1.466   4.210   2.802  0.2396 -0.5410 -0.6337
12074TIP3    H257714   1.445   4.326   2.707  0.0164  0.0623  0.1468
12075TIP3   OH257715   6.226   2.751  11.610 -0.6652  0.4070 -0.3971
12075TIP3    H157716   6.196   2.815  11.675 -0.9680 -0.1573  0.0263
12075TIP3    H257717   6.276   2.803  11.547  0.6711  0.8243  0.9296
12076TIP3   OH257718   4.547   2.260   0.870 -0.1085  0.3085  0.4055
12076TIP3    H157719   4.617   2.197   0.855  0.3619  0.7459  0.7613
12076TIP3    H257720   4.581   2.344   0.838 -0.8015  0.3608 -0.2425
12077TIP3   OH257721   2.067   5.251  12.718 -0.7926 -0.1237 -0.4538
12077TIP3    H157722   2.060   5.218  12.808  1.0514  1.7059  0.4453
12077TIP3    H257723   2.161   5.263  12.704 -0.9942 -1.0336 -2.9220
12078TIP3   OH257724   1.120   1.813  13.004  0.3106  0.3890 -0.4079
12078TIP3    H157725   1.112   1.768  13.088  0.1607 -2.6078 -1.8787
12078TIP3    H257726   1.211   1.842  13.000  1.0655 -1.7755 -0.2161
12079TIP3   OH257727   2.503   5.403   0.861  0.2177  0.1776  0.2000
12079TIP3    H157728   2.511   5.495   0.835 -0.5255 -0.0270 -0.8127
12079TIP3    H257729   2.592   5.377   0.886  0.7372  0.7545 -0.9528
12080TIP3   OH257730   1.113   2.064   6.044  0.3162  0.1821 -0.2493
12080TIP3    H157731   1.021   2.048   6.023  0.2176  0.4419 -0.0124
12080TIP3    H257732   1.111   2.114   6.125  0.7015 -3.1834  2.0764
12081TIP3   OH257733   1.999   0.941  15.867  0.0684  0.5396 -0.4286
12081TIP3    H157734   2.053   0.871  15.905 -3.0038 -1.3263  0.8807
12081TIP3    H257735   1.961   0.901  15.789 -0.5252  1.3224 -0.5472
12082TIP3   OH257736   3.961   0.865   2.444 -0.0259  0.2655 -0.0383
12082TIP3    H157737   3.879   0.818   2.458 -0.4048  0.5185 -1.2727
12082TIP3    H257738   4.026   0.815   2.493 -0.3411 -1.7816 -1.5475
12083TIP3   OH257739   5.959   4.753  12.819  0.0184 -0.1971  0.4621
12083TIP3    H157740   5.899   4.757  12.893 -0.8857  0.6982 -0.2869
12083TIP3    H257741   5.978   4.660  12.808 -2.3935 -0.6859 -0.1514
12084TIP3   OH257742   1.969   2.697  13.391 -0.1061 -0.2530 -0.0863
12084TIP3    H157743   1.934   2.775  13.434 -0.1273 -0.5697  0.4831
12084TIP3    H257744   1.917   2.689  13.312 -0.4447  0.0269  0.1005
12085TIP3   OH257745   0.631   0.557   6.490 -0.3858 -0.2055 -0.0067
12085TIP3    H157746   0.548   0.600   6.473  0.5263  1.0170 -1.7420
12085TIP3    H257747   0.613   0.463   6.481 -1.1335  0.1258 -2.9083
12086TIP3   OH257748   2.560   5.976   5.230  0.5109 -0.0829 -0.2387
12086TIP3    H157749   2.624   5.978   5.160  0.2218 -0.6186 -0.5224
12086TIP3    H257750   2.519   6.063   5.228  1.5518  0.4320  0.2658
12087TIP3   OH257751   0.357   0.810  12.388 -0.0342  0.4501  0.2996
12087TIP3    H157752   0.271   0.788  12.422  0.5483 -0.6461  1.1285
12087TIP3    H257753   0.378   0.738  12.328  0.9320 -0.1359  1.2916
12088TIP3   OH257754   3.187   6.718   2.697  0.3654 -0.2358  0.0777
12088TIP3    H157755   3.119   6.702   2.762  1.6627 -2.0869  1.0878
12088TIP3    H257756   3.226   6.802   2.722 -1.7844  1.1018 -0.8176
12089TIP3   OH257757   2.346   1.202  13.281 -0.0596  0.4719  0.4622
12089TIP3    H157758   2.336   1.107  13.285  2.2988  0.0580 -1.0480
12089TIP3    H257759   2.368   1.228  13.371 -0.7415 -0.3831  0.8898
12090TIP3   OH257760   3.243   6.834   0.219 -0.4694 -0.0790 -0.9033
12090TIP3    H157761   3.290   6.915   0.240 -0.0980 -1.1314  3.2318
12090TIP3    H257762   3.151   6.860   0.214 -0.1237  0.9698 -2.5901
12091TIP3   OH257763   3.695   4.368  16.628  0.2945  0.1463  0.1900
12091TIP3    H157764   3.695   4.309  16.553  0.1748  1.2105 -0.6765
12091TIP3    H257765   3.619   4.425  16.613 -0.0816  0.0052  1.4297
12092TIP3   OH257766   4.325   6.444  14.417  0.0133  0.1052  0.3751
12092TIP3    H157767   4.275   6.363  14.428  0.8871 -0.4533  0.3659
12092TIP3    H257768   4.259   6.512  14.408 -0.8216 -0.9267 -2.2946
12093TIP3   OH257769   3.752   1.486  12.286  0.0879  0.4597  0.6030
12093TIP3    H157770   3.756   1.398  12.323  0.9106  0.3620  0.3006
12093TIP3    H257771   3.715   1.474  12.199 -0.3034  0.4869  0.7618
12094TIP3   OH257772   4.361   2.864   2.053  0.2559  0.0169 -0.3979
12094TIP3    H157773   4.343   2.771   2.042  1.1088 -0.2787  0.5450
12094TIP3    H257774   4.450   2.876   2.021  0.3661  0.3873  0.0304
12095TIP3   OH257775   0.609   0.575  15.218  0.0083  0.2741 -0.3257
12095TIP3    H157776   0.693   0.571  15.172  1.0360  2.6714  1.1413
12095TIP3    H257777   0.612   0.658  15.266 -1.7632 -1.1372  2.5078
12096TIP3   OH257778   0.616   6.667   1.414  0.4037 -0.5746  0.1149
12096TIP3    H157779   0.545   6.699   1.359  2.6104  0.4290 -2.3699
12096TIP3    H257780   0.670   6.613   1.356  3.1412  0.9136  1.0587
12097TIP3   OH257781   6.655   5.904  15.979  0.5474  0.3132  0.4318
12097TIP3    H157782   6.717   5.846  16.023  1.2271  1.2930  0.7957
12097TIP3    H257783   6.679   5.992  16.009 -0.2314  0.8169 -0.3862
12098TIP3   OH257784   6.727   3.557  10.873 -0.4700  0.0798 -0.2025
12098TIP3    H157785   6.820   3.534  10.880  0.2939  1.3311 -3.8713
12098TIP3    H257786   6.727   3.639  10.823 -3.5265  1.5008  1.8202
12099TIP3   OH257787   5.485   1.387  11.214 -0.3957  0.2286 -0.0554
12099TIP3    H157788   5.467   1.323  11.145 -0.9273  0.0294  0.2604
12099TIP3    H257789   5.547   1.343  11.272 -1.0106 -0.1404  0.3402
12100TIP3   OH257790   5.769   1.982   0.411  0.5033 -0.0113  0.1424
12100TIP3    H157791   5.804   2.064   0.376  1.6568  1.2043  3.6591
12100TIP3    H257792   5.831   1.915   0.383  0.1147  0.4186 -1.9012
12101TIP3   OH257793   0.206   6.110  17.078  0.5945 -0.2872  0.1321
12101TIP3    H157794   0.270   6.112  17.006  1.1896 -0.0247  0.6628
12101TIP3    H257795   0.139   6.173  17.052 -0.2068 -1.5842 -1.1054
12102TIP3   OH257796   0.573   6.721   5.527 -0.3480  0.2457 -0.3371
12102TIP3    H157797   0.569   6.788   5.595 -2.1298 -0.6397  0.5159
12102TIP3    H257798   0.572   6.638   5.576  1.3440 -0.4357 -1.3735
12103TIP3   OH257799   2.386   3.063   5.233 -0.1868  0.2076 -0.7592
12103TIP3    H157800   2.301   3.019   5.232 -1.1340  1.9131 -2.1829
12103TIP3    H257801   2.385   3.114   5.315 -0.2166 -0.3201 -0.4256
12104TIP3   OH257802   5.198   0.286  15.000  0.2386  0.1505  0.0331
12104TIP3    H157803   5.291   0.284  15.023  0.3215  1.7722 -0.0683
12104TIP3    H257804   5.194   0.338  14.920 -0.6687 -0.7432 -0.5352
12105TIP3   OH257805   3.836   5.597  13.105  0.5622 -0.1216  0.4554
12105TIP3    H157806   3.829   5.520  13.048 -0.7043 -0.0541  0.5097
12105TIP3    H257807   3.888   5.566  13.180  3.4841  0.1478 -1.2836
12106TIP3   OH257808   1.474   6.815  14.232  0.3296 -0.4523 -0.4628
12106TIP3    H157809   1.527   6.883  14.191  0.9500 -0.9146 -0.4493
12106TIP3    H257810   1.427   6.774  14.160  1.5302 -1.3616 -0.7595
12107TIP3   OH257811   2.500   3.238   3.788 -0.2320 -0.0810  0.8294
12107TIP3    H157812   2.474   3.328   3.768  1.2769  0.2614  0.2599
12107TIP3    H257813   2.510   3.236   3.883 -0.8155  0.1943  0.8989
12108TIP3   OH257814   3.181   4.738   4.322  0.7539 -0.0193  0.3963
12108TIP3    H157815   3.201   4.719   4.231  0.3015 -0.9341  0.4797
12108TIP3    H257816   3.254   4.701   4.371  0.7875  0.0911  0.4292
12109TIP3   OH257817   1.595   0.450  15.822  0.0367 -0.0107 -0.0990
12109TIP3    H157818   1.643   0.524  15.859 -0.1666 -0.0845  0.3131
12109TIP3    H257819   1.660   0.404  15.768  0.3472  0.0672  0.2067
12110TIP3   OH257820   4.804   4.891  11.922 -0.1414 -0.6466  0.8610
12110TIP3    H157821   4.879   4.945  11.948  0.0718 -0.7647  0.5019
12110TIP3    H257822   4.818   4.808  11.966 -0.0290 -0.6880  0.7478
12111TIP3   OH257823   0.829   2.869   3.014 -0.2801  0.6156 -0.0547
12111TIP3    H157824   0.897   2.903   3.072  0.4329 -0.2503 -0.3657
12111TIP3    H257825   0.829   2.775   3.029 -0.0458  0.3671 -1.4736
12112TIP3   OH257826   3.819   2.671   0.968 -0.6107  0.5932  0.0789
12112TIP3    H157827   3.903   2.698   1.005  0.2693 -1.1389 -0.5255
12112TIP3    H257828   3.755   2.731   1.006  0.9946  2.5832 -0.1770
12113TIP3   OH257829   2.430   1.683   4.423 -0.2556 -0.5807  0.0556
12113TIP3    H157830   2.403   1.672   4.332  1.1169  0.7252 -0.5528
12113TIP3    H257831   2.354   1.723   4.466 -1.0206 -1.4816 -0.4058
12114TIP3   OH257832   5.852   5.821  15.988 -0.2140 -0.0137 -0.0835
12114TIP3    H157833   5.784   5.753  15.987 -2.5143  2.0642  1.2716
12114TIP3    H257834   5.881   5.825  16.079 -1.7038  2.1214  0.3859
12115TIP3   OH257835   2.453   5.195  15.983 -0.0316  0.2365  0.2685
12115TIP3    H157836   2.416   5.121  16.032 -0.5440  0.8767  0.8659
12115TIP3    H257837   2.477   5.259  16.050  0.6078  0.5290 -0.2334
12116TIP3   OH257838   0.772   5.404  12.834  0.3444 -0.5116 -0.1449
12116TIP3    H157839   0.727   5.325  12.804  1.0569 -0.0957 -2.4925
12116TIP3    H257840   0.860   5.376  12.857  0.2444 -0.5861  0.1500
12117TIP3   OH257841   3.886   0.268   1.601 -0.5362 -0.1957  0.0368
12117TIP3    H157842   3.947   0.288   1.672 -2.9248  3.6423  1.2876
12117TIP3    H257843   3.931   0.300   1.522  0.6719 -1.2026  0.2818
12118TIP3   OH257844   2.171   5.337  16.260 -0.3052 -0.7490 -0.0889
12118TIP3    H157845   2.264   5.356  16.255 -0.5855  0.4123 -1.3113
12118TIP3    H257846   2.134   5.412  16.306 -0.5903 -1.4554  0.8740
12119TIP3   OH257847   1.685   5.972   4.323 -0.6565 -0.2442  0.3226
12119TIP3    H157848   1.630   5.913   4.271 -0.0079 -0.8355  0.3028
12119TIP3    H257849   1.677   6.057   4.279 -0.0699 -0.7433 -0.7935
12120TIP3   OH257850   2.169   0.400  11.835 -0.5243 -0.2628 -0.1186
12120TIP3    H157851   2.143   0.353  11.756  0.6811  0.1860 -0.8110
12120TIP3    H257852   2.238   0.346  11.874 -2.1091 -1.2533  1.4945
12121TIP3   OH257853   2.750   0.068   4.518 -0.3634 -0.0928 -0.1567
12121TIP3    H157854   2.844   0.086   4.522 -0.2510 -0.7821  0.5314
12121TIP3    H257855   2.711   0.134   4.576 -0.1086 -1.0159  1.0939
12122TIP3   OH257856   2.381   4.662   3.657  0.1489  0.0179 -0.2027
12122TIP3    H157857   2.326   4.597   3.701 -0.4606 -0.4180 -1.5374
12122TIP3    H257858   2.318   4.726   3.623  0.3633 -0.8200 -2.2965
12123TIP3   OH257859   5.175   3.317   4.678 -0.5604 -0.4937  0.3646
12123TIP3    H157860   5.139   3.392   4.631  0.2296  0.4601  1.2394
12123TIP3    H257861   5.164   3.244   4.618  0.0093  0.5986 -1.1205
12124TIP3   OH257862   2.805   2.173  14.255  0.1471  0.2712 -0.2675
12124TIP3    H157863   2.743   2.189  14.326 -0.0294  1.2740 -0.6319
12124TIP3    H257864   2.888   2.209  14.286  0.5309 -0.8994  0.1413
12125TIP3   OH257865   2.675   4.534  13.302  0.2459  0.3924 -0.5687
12125TIP3    H157866   2.590   4.501  13.272 -0.3180  0.4782  0.8367
12125TIP3    H257867   2.721   4.456  13.334  0.2687  0.4926 -0.3547
12126TIP3   OH257868   6.636   2.743   0.426 -0.1209 -0.1175 -0.7756
12126TIP3    H157869   6.678   2.662   0.455 -0.4335  0.2954  0.9212
12126TIP3    H257870   6.544   2.720   0.415 -0.2413  0.0396 -0.1228
12127TIP3   OH257871   4.359   2.899  14.302 -0.1123  0.8058 -0.0073
12127TIP3    H157872   4.267   2.877  14.288  0.1631 -1.0434  0.9089
12127TIP3    H257873   4.357   2.969  14.367 -0.8433 -0.0182  0.8804
12128TIP3   OH257874   5.185   0.159  13.835 -0.4140  0.6012 -0.2411
12128TIP3    H157875   5.095   0.155  13.866 -0.5536  1.3945 -0.5223
12128TIP3    H257876   5.187   0.101  13.758 -0.9766  1.4508 -0.9181
12129TIP3   OH257877   3.469   0.251   0.459 -0.1810  0.3272 -0.3144
12129TIP3    H157878   3.564   0.249   0.452 -0.2325 -1.4742 -0.9999
12129TIP3    H257879   3.438   0.251   0.369 -0.8000 -2.7133 -0.1862
12130TIP3   OH257880   6.538   5.750  16.269 -0.5015  0.2071 -0.3676
12130TIP3    H157881   6.531   5.672  16.213 -1.6093  0.2405 -0.2957
12130TIP3    H257882   6.465   5.805  16.242 -0.5876  0.5715  0.5934
12131TIP3   OH257883   3.683   6.480  15.316 -0.2997 -0.5391 -0.1119
12131TIP3    H157884   3.651   6.391  15.329 -0.2021 -0.3185  1.9542
12131TIP3    H257885   3.606   6.530  15.288 -0.2789 -1.3186 -1.6177
12132TIP3   OH257886   0.109   2.077  12.453  0.5128 -0.2469  0.3692
12132TIP3    H157887   0.134   2.038  12.369 -0.7028  0.8173 -0.5191
12132TIP3    H257888   0.190   2.077  12.504  1.0502 -1.8316 -0.4115
12133TIP3   OH257889   0.827   2.947  14.670  0.0374 -0.0340 -0.1720
12133TIP3    H157890   0.840   2.887  14.743  0.5426 -1.4290 -1.3570
12133TIP3    H257891   0.800   3.029  14.711 -0.7042 -1.0573  1.5139
12134TIP3   OH257892   6.492   1.713   1.604  0.5511  0.1896 -0.3558
12134TIP3    H157893   6.519   1.726   1.513 -0.2377 -0.6084 -0.7166
12134TIP3    H257894   6.499   1.619   1.618 -2.1273 -0.1083 -0.5327
12135TIP3   OH257895   2.903   5.940  10.532  0.0175  0.4690  0.2982
12135TIP3    H157896   2.877   5.848  10.528  1.6927 -0.1072  1.4445
12135TIP3    H257897   2.843   5.980  10.595 -1.8798  0.6435 -1.5194
12136TIP3   OH257898   4.088   5.406   1.994  0.6642 -0.0851 -0.1300
12136TIP3    H157899   4.093   5.464   1.919 -2.0422 -2.5054 -2.4082
12136TIP3    H257900   4.008   5.432   2.039  0.9014 -0.3250  0.4455
12137TIP3   OH257901   5.557   0.836   3.970 -0.1222  0.1118  0.2798
12137TIP3    H157902   5.605   0.753   3.966  0.1125  0.2764 -0.7205
12137TIP3    H257903   5.469   0.812   3.999 -0.2260 -0.5781 -0.5684
12138TIP3   OH257904   1.656   1.229  11.155  0.3998 -0.2582  0.1797
12138TIP3    H157905   1.629   1.272  11.074  0.3777  1.0631  0.8649
12138TIP3    H257906   1.751   1.239  11.157  0.4971 -1.0604 -0.0970
12139TIP3   OH257907   0.491   2.938   4.096  0.0957  0.2823 -0.3376
12139TIP3    H157908   0.473   2.871   4.031 -1.6839  1.2850 -0.9665
12139TIP3    H257909   0.536   2.892   4.167  2.8267 -0.6889 -2.5658
12140TIP3   OH257910   6.433   0.610  11.267  0.8351 -0.5715 -0.0455
12140TIP3    H157911   6.419   0.545  11.335 -1.1708 -0.8728 -0.6792
12140TIP3    H257912   6.376   0.583  11.195  1.7941  0.5430 -1.2918
12141TIP3   OH257913   3.838   1.291   2.435  0.6090 -0.2709  0.0036
12141TIP3    H157914   3.907   1.355   2.447 -0.9699  1.9401 -1.6887
12141TIP3    H257915   3.814   1.263   2.523  1.8990  0.8480  0.7383
12142TIP3   OH257916   6.170   0.316   0.958 -0.0962 -0.7438  0.1158
12142TIP3    H157917   6.126   0.301   1.041  0.0151  0.4499  0.3967
12142TIP3    H257918   6.102   0.302   0.892 -0.9542  1.1261  0.5431
12143TIP3   OH257919   1.738   5.932  11.497 -0.2276  0.0266 -0.5108
12143TIP3    H157920   1.755   6.022  11.470 -0.7737  0.1881 -0.3238
12143TIP3    H257921   1.643   5.922  11.490 -0.3548 -0.0447  0.9639
12144TIP3   OH257922   1.240   0.800   2.009 -0.2483 -0.6491 -0.1158
12144TIP3    H157923   1.177   0.778   1.941 -0.7827 -0.0331  0.1759
12144TIP3    H257924   1.235   0.728   2.072 -0.5570 -0.6702 -0.1662
12145TIP3   OH257925   1.897   6.578   0.713 -0.2841 -0.2129 -0.0333
12145TIP3    H157926   1.807   6.546   0.715  0.2915 -1.8984  1.3728
12145TIP3    H257927   1.890   6.671   0.736 -1.7276 -0.0980 -0.8502
12146TIP3   OH257928   0.471   1.610   3.657  0.1963  0.0221 -0.0083
12146TIP3    H157929   0.512   1.525   3.642  0.6563  0.1849  0.3015
12146TIP3    H257930   0.542   1.673   3.648 -0.2082  0.4102 -0.5782
12147TIP3   OH257931   6.053   3.445   3.021 -0.1068 -0.8035 -0.0369
12147TIP3    H157932   6.047   3.453   2.925 -0.2693 -0.8518 -0.0313
12147TIP3    H257933   6.043   3.351   3.037  2.1569 -1.1267 -0.1302
12148TIP3   OH257934   5.693   3.676  11.807 -0.1574  0.3137 -0.1571
12148TIP3    H157935   5.630   3.628  11.859 -1.2636  1.7855 -0.0575
12148TIP3    H257936   5.640   3.735  11.754  1.0449  0.2262 -1.5253
12149TIP3   OH257937   1.001   3.097  15.646  0.5271  0.0448  0.3744
12149TIP3    H157938   1.083   3.145  15.636  0.0236  0.3971 -3.5364
12149TIP3    H257939   0.932   3.163  15.641 -0.0710 -0.5588  0.3670
12150TIP3   OH257940   1.511   1.578   4.400  0.3792 -0.7739  0.2842
12150TIP3    H157941   1.570   1.529   4.343  0.5018 -0.8044  0.4372
12150TIP3    H257942   1.552   1.574   4.486 -0.7821 -2.4258  0.8130
12151TIP3   OH257943   1.836   5.471  13.951  0.5060 -0.2407 -0.1864
12151TIP3    H157944   1.774   5.406  13.983 -0.6594  0.6340 -0.6402
12151TIP3    H257945   1.900   5.420  13.901 -1.4504 -0.8569 -2.1713
12152TIP3   OH257946   6.447   0.858  11.396  0.3356 -0.3012  0.2206
12152TIP3    H157947   6.447   0.898  11.309 -1.6242  1.5892  0.9969
12152TIP3    H257948   6.434   0.765  11.381  0.1155 -0.0082 -1.5118
12153TIP3   OH257949   3.175   4.641  10.978 -0.2938 -0.0831  0.1344
12153TIP3    H157950   3.167   4.576  10.907 -0.3981  0.6031 -0.4955
12153TIP3    H257951   3.095   4.630  11.030 -0.4750 -0.2283 -0.1713
12154TIP3   OH257952   5.861   2.170   0.238  0.1221 -0.6104 -0.5687
12154TIP3    H157953   5.799   2.154   0.167 -3.3814  0.5794  1.9219
12154TIP3    H257954   5.862   2.265   0.249  2.3435 -0.6067 -0.4019
12155TIP3   OH257955   1.286   5.124  14.662 -0.1403 -0.1710  0.0044
12155TIP3    H157956   1.257   5.036  14.687  1.2336 -0.5792  0.2742
12155TIP3    H257957   1.250   5.181  14.730  1.5446 -0.9598  1.6661
12156TIP3   OH257958   4.046   0.022  15.038 -0.3711 -0.5103 -0.3767
12156TIP3    H157959   3.962  -0.003  14.998 -1.2322  1.0054  0.3561
12156TIP3    H257960   4.049  -0.028  15.120 -1.3001  0.4943  0.3045
12157TIP3   OH257961   1.217   2.603  13.638  0.2072  0.1585 -0.0043
12157TIP3    H157962   1.149   2.560  13.587 -2.3239  4.0084 -0.2982
12157TIP3    H257963   1.202   2.575  13.728 -1.6286  0.6651 -0.1200
12158TIP3   OH257964   5.902   2.753  15.685  0.0107  0.1076  0.0486
12158TIP3    H157965   5.898   2.665  15.648  1.2929 -0.9992  2.3398
12158TIP3    H257966   5.815   2.789  15.672 -0.6570 -1.6572 -0.5956
12159TIP3   OH257967   1.662   1.353   1.489 -0.3070 -0.1126  0.2858
12159TIP3    H157968   1.672   1.290   1.560 -2.5379 -0.2540  0.5238
12159TIP3    H257969   1.580   1.330   1.447  0.6009  0.4442 -1.9005
12160TIP3   OH257970   4.485   6.434   0.182 -0.1748 -0.1703 -0.2216
12160TIP3    H157971   4.475   6.339   0.188 -1.1993 -0.0964 -0.5441
12160TIP3    H257972   4.520   6.460   0.267  1.5636 -0.9839 -0.6187
12161TIP3   OH257973   2.037   2.396  17.006  0.1514 -0.5321  0.5361
12161TIP3    H157974   2.016   2.325  17.067 -2.2202 -0.9067 -0.6298
12161TIP3    H257975   1.954   2.441  16.991  1.5528  2.6488  1.3177
12162TIP3   OH257976   3.376   3.664  15.121  0.0941 -1.0880  1.3133
12162TIP3    H157977   3.292   3.653  15.076 -0.2406  1.0240  1.3253
12162TIP3    H257978   3.364   3.740  15.177  2.5988  0.5980 -0.2085
12163TIP3   OH257979   0.123   2.636  10.758  0.0353 -0.0314 -0.1144
12163TIP3    H157980   0.094   2.577  10.828 -0.6713  0.0104 -0.3669
12163TIP3    H257981   0.203   2.676  10.793 -0.5736  0.3655  0.8907
12164TIP3   OH257982   5.219   5.820  15.594  0.2130 -0.1754 -0.3454
12164TIP3    H157983   5.296   5.796  15.542 -0.0702 -1.1208 -0.3469
12164TIP3    H257984   5.218   5.757  15.665 -0.8842 -0.5424 -0.6673
12165TIP3   OH257985   0.565   5.082   0.990 -0.1006 -0.6242  0.4654
12165TIP3    H157986   0.625   5.014   1.021 -2.2695 -2.5897  0.6256
12165TIP3    H257987   0.605   5.164   1.020  1.6484 -1.9395  2.0036
12166TIP3   OH257988   5.448   2.984   2.904  0.0247 -0.2733  0.3684
12166TIP3    H157989   5.375   3.018   2.852  0.4388 -0.7859 -0.5680
12166TIP3    H257990   5.521   3.041   2.882  0.0727 -0.1628  0.8075
12167TIP3   OH257991   1.325   3.481  11.114  0.1508 -0.3107 -0.1137
12167TIP3    H157992   1.343   3.500  11.022 -0.6606 -0.1995 -0.2516
12167TIP3    H257993   1.340   3.387  11.122  0.2612 -0.3148 -0.3519
12168TIP3   OH257994   3.040   5.893  11.955  0.6075  0.0546 -0.5002
12168TIP3    H157995   2.954   5.903  11.915 -0.3568 -2.1122  0.8480
12168TIP3    H257996   3.099   5.877  11.882 -0.6248 -1.1215 -1.2751
12169TIP3   OH257997   1.576   1.703  11.328  0.4780 -0.3361  0.1464
12169TIP3    H157998   1.580   1.623  11.276  0.1143 -1.1390  1.3023
12169TIP3    H257999   1.658   1.703  11.378 -0.0398 -0.6091  1.0087
12170TIP3   OH258000   0.596   3.213   4.244 -0.6328 -0.0679  0.4608
12170TIP3    H158001   0.538   3.159   4.297 -1.5821 -0.2815 -0.7462
12170TIP3    H258002   0.652   3.149   4.198  0.9878  0.1467  2.0186
12171TIP3   OH258003   3.883   0.684  14.059 -0.2410  0.2282  0.2609
12171TIP3    H158004   3.814   0.637  14.013 -0.3124  0.9725 -0.4080
12171TIP3    H258005   3.964   0.641  14.032 -0.4548 -1.1309  1.6206
12172TIP3   OH258006   0.836   3.789   5.915  0.2590 -0.2647  0.4402
12172TIP3    H158007   0.830   3.841   5.995  3.0236 -1.5433  1.6199
12172TIP3    H258008   0.765   3.822   5.860 -1.0566  1.4489  2.9364
12173TIP3   OH258009   5.976   0.863   1.399  0.2095  1.0422 -0.1439
12173TIP3    H158010   6.064   0.869   1.436  0.9081  0.6467 -1.6466
12173TIP3    H258011   5.944   0.777   1.425  0.1558  1.2969  0.6371
12174TIP3   OH258012   2.549   2.731   6.124 -0.2174 -0.2328  0.0362
12174TIP3    H158013   2.573   2.639   6.120 -0.4972 -0.2775 -0.7970
12174TIP3    H258014   2.507   2.741   6.210  0.4672 -0.7117  0.4333
12175TIP3   OH258015   0.178   3.454   0.812 -0.3435  0.2010  0.0167
12175TIP3    H158016   0.124   3.385   0.774  0.4872  0.1430 -1.1351
12175TIP3    H258017   0.268   3.429   0.789  0.1947  0.3424  1.7817
12176TIP3   OH258018   1.108   1.228   4.833 -0.2228  0.6632 -0.3884
12176TIP3    H158019   1.054   1.307   4.834  0.2706  1.0003  0.3755
12176TIP3    H258020   1.188   1.255   4.786  0.0399  0.6918  0.0684
12177TIP3   OH258021   4.652   6.131  11.355  0.2106  0.2139  0.4873
12177TIP3    H158022   4.702   6.055  11.383  0.5380 -0.4002 -1.5975
12177TIP3    H258023   4.622   6.172  11.436  0.2309 -1.9849  1.6649
12178TIP3   OH258024   5.972   3.744  14.919  0.3481  0.4151 -0.4768
12178TIP3    H158025   5.925   3.822  14.950  0.7576  0.3472  0.3354
12178TIP3    H258026   5.951   3.676  14.982  0.4587  0.0145 -0.8631
12179TIP3   OH258027   1.240   5.110  12.373 -0.1612  0.2559 -0.3450
12179TIP3    H158028   1.157   5.075  12.407  0.2821  1.0991  1.7524
12179TIP3    H258029   1.221   5.202  12.356 -0.5040 -0.2167 -3.0456
12180TIP3   OH258030   6.030   5.328  15.205  0.2256  0.2902  0.1534
12180TIP3    H158031   6.034   5.421  15.228 -0.9488  0.3239  0.2623
12180TIP3    H258032   5.942   5.300  15.231 -0.5070 -0.1361 -2.5146
12181TIP3   OH258033   0.300   2.083   6.185  0.5064 -0.4466  0.1408
12181TIP3    H158034   0.242   2.072   6.260  0.8662 -0.3882  0.4245
12181TIP3    H258035   0.312   1.994   6.151 -0.5316 -0.3620 -0.5122
12182TIP3   OH258036   1.222   2.281   2.246 -0.3705  0.1344  0.0457
12182TIP3    H158037   1.301   2.246   2.204  1.2775  0.6931  2.4350
12182TIP3    H258038   1.255   2.347   2.307 -2.6349 -0.0539  1.6068
12183TIP3   OH258039   2.478   0.023  15.003 -0.5126  0.0049  0.5707
12183TIP3    H158040   2.471  -0.055  14.947  0.9796  0.0825  0.2276
12183TIP3    H258041   2.447  -0.006  15.089 -2.4469 -0.2297 -0.1687
12184TIP3   OH258042   5.514   1.655  12.994 -0.0269 -0.6003  0.7143
12184TIP3    H158043   5.554   1.568  12.986  0.3373 -0.4801  1.1817
12184TIP3    H258044   5.430   1.647  12.950  0.7495 -0.7019 -0.8211
12185TIP3   OH258045   4.403   1.911   4.360 -0.0155  0.4485  0.1069
12185TIP3    H158046   4.378   1.818   4.364  0.7068  0.2825  2.3340
12185TIP3    H258047   4.498   1.910   4.346 -0.0523  0.8663 -0.1832
12186TIP3   OH258048   4.687   1.426   3.784 -0.1143 -0.1188 -0.8231
12186TIP3    H158049   4.591   1.430   3.779 -0.0994 -0.2994 -1.3060
12186TIP3    H258050   4.709   1.336   3.760  0.1848 -0.0539 -0.7994
12187TIP3   OH258051   5.286   5.726   1.543  0.0472  0.4797  0.0842
12187TIP3    H158052   5.258   5.720   1.635 -1.4300 -3.9286 -0.4502
12187TIP3    H258053   5.378   5.702   1.544 -0.1344 -0.2079  0.3490
12188TIP3   OH258054   2.472   0.417   6.066  0.2734  0.2219  0.1170
12188TIP3    H158055   2.528   0.422   5.989  0.8215 -1.5623  0.3548
12188TIP3    H258056   2.532   0.423   6.140 -0.1211  0.7293  0.3987
12189TIP3   OH258057   4.814   0.678  11.110 -0.3669  0.7048  0.1233
12189TIP3    H158058   4.797   0.763  11.069 -0.9122 -1.0829 -3.8149
12189TIP3    H258059   4.892   0.645  11.066 -2.5386 -2.5261 -1.7843
12190TIP3   OH258060   4.469   2.695  12.838 -0.1432 -0.2899 -0.0594
12190TIP3    H158061   4.390   2.743  12.863 -0.5831 -0.1940 -1.5415
12190TIP3    H258062   4.446   2.603  12.849 -0.0949 -0.2403  0.5054
12191TIP3   OH258063   1.110   5.230   1.813  0.4520  0.1966  0.0369
12191TIP3    H158064   1.143   5.146   1.846 -0.4189 -0.1517  0.0477
12191TIP3    H258065   1.125   5.291   1.885  0.1487 -0.1769  0.4219
12192TIP3   OH258066   4.498   0.527  15.221  0.0034  0.8493 -0.1641
12192TIP3    H158067   4.462   0.604  15.265 -0.6598  0.3656  0.1409
12192TIP3    H258068   4.506   0.554  15.129  1.2707  1.8142  0.2000
12193TIP3   OH258069   5.129   0.217   2.708 -0.4925 -0.4335  0.5943
12193TIP3    H158070   5.117   0.123   2.724  1.9105 -1.1686 -1.2354
12193TIP3    H258071   5.042   0.249   2.686 -1.0803 -2.6641 -0.6057
12194TIP3   OH258072   2.974   5.392  13.195 -0.0521  0.0403  0.2771
12194TIP3    H158073   2.960   5.467  13.253 -0.1936  0.3584 -0.1625
12194TIP3    H258074   3.060   5.359  13.219  1.0813  1.7924 -1.1066
12195TIP3   OH258075   4.211   6.775  12.792  0.1547 -0.1067 -0.4040
12195TIP3    H158076   4.217   6.743  12.702 -0.5996 -1.9787  0.1707
12195TIP3    H258077   4.265   6.716  12.843 -0.4562  0.1441  0.5594
12196TIP3   OH258078   1.907   4.795   5.184 -0.2235  0.2032  0.1815
12196TIP3    H158079   1.918   4.705   5.214 -0.2286  0.5068  1.0999
12196TIP3    H258080   1.878   4.786   5.093 -2.3882 -0.7730  0.9172
12197TIP3   OH258081   4.735   5.073  14.571 -0.2580  0.9376  0.6229
12197TIP3    H158082   4.776   5.011  14.632  3.3149  1.7194 -0.7459
12197TIP3    H258083   4.726   5.023  14.490  0.9472  1.6263  0.0395
12198TIP3   OH258084   5.862   4.484  13.375 -0.1911 -0.1061  0.1341
12198TIP3    H158085   5.876   4.578  13.368 -0.0902 -0.2777 -3.0570
12198TIP3    H258086   5.948   4.447  13.393  0.1882  0.2600 -0.9009
12199TIP3   OH258087   4.225   0.576   3.854 -0.4081  0.0056  0.1945
12199TIP3    H158088   4.187   0.602   3.939 -0.4832 -0.2944  0.2525
12199TIP3    H258089   4.252   0.485   3.867  1.9226  0.7236  0.7018
12200TIP3   OH258090   1.746   2.567  12.241  0.4423 -0.3288 -0.3111
12200TIP3    H158091   1.702   2.485  12.264  1.4630 -0.7591  0.1998
12200TIP3    H258092   1.684   2.636  12.264  0.2227 -0.8950  0.8224
12201TIP3   OH258093   6.812   5.494   0.132  0.1847 -0.2494  0.0942
12201TIP3    H158094   6.824   5.572   0.079  1.5549  0.6456  1.6059
12201TIP3    H258095   6.863   5.426   0.087 -1.3302 -0.4316 -1.4355
12202TIP3   OH258096   2.224   1.736  14.683  0.5473 -0.1433 -0.1039
12202TIP3    H158097   2.264   1.658  14.644  0.5544 -0.3138  0.2380
12202TIP3    H258098   2.157   1.701  14.741  0.7639  0.0942  0.2892
12203TIP3   OH258099   2.766   1.295  11.014  0.1129 -0.7634 -0.2709
12203TIP3    H158100   2.691   1.313  11.070 -0.1484  0.2700 -0.9328
12203TIP3    H258101   2.734   1.309  10.925  0.4683 -2.5400 -0.7327
12204TIP3   OH258102   4.667   5.639   0.184  0.2623 -0.0522  0.1865
12204TIP3    H158103   4.747   5.660   0.233 -0.8841 -0.8946  2.6203
12204TIP3    H258104   4.682   5.551   0.151 -0.0053 -0.6646  1.5969
12205TIP3   OH258105   4.792   0.570  16.806 -0.5095  0.6621 -0.2150
12205TIP3    H158106   4.711   0.519  16.803 -0.8792  1.0550  1.6755
12205TIP3    H258107   4.862   0.506  16.793 -1.0767  0.2209 -1.2213
12206TIP3   OH258108   6.303   5.497   3.510 -0.0698  0.2787 -0.2377
12206TIP3    H158109   6.277   5.587   3.529  1.6463  0.7788 -0.1551
12206TIP3    H258110   6.336   5.499   3.421  2.2666  0.3072  0.5555
12207TIP3   OH258111   6.498   3.998   4.497  0.8972 -0.7196  0.1934
12207TIP3    H158112   6.512   4.031   4.586 -0.2085  1.0826 -0.2509
12207TIP3    H258113   6.582   3.962   4.472  1.9246  0.8844  1.1288
12208TIP3   OH258114   6.586   3.266   4.356 -0.0056 -0.1066 -0.0954
12208TIP3    H158115   6.649   3.295   4.422 -0.0256 -2.7469  1.2180
12208TIP3    H258116   6.596   3.328   4.284  1.9073  1.3287  1.3075
12209TIP3   OH258117   0.932   1.376   0.417 -0.5698  0.2143 -0.0694
12209TIP3    H158118   0.928   1.472   0.423  1.1133  0.3806 -0.9134
12209TIP3    H258119   0.899   1.356   0.330  0.1308  0.1473 -0.3308
12210TIP3   OH258120   1.939   4.934  14.929  0.0903  0.6870  0.7290
12210TIP3    H158121   1.989   4.956  15.007  1.0823  0.5150  0.1662
12210TIP3    H258122   1.941   5.013  14.875  0.3017  0.4723  0.4211
12211TIP3   OH258123   5.553   6.640  14.699 -0.3180  0.2886 -0.2088
12211TIP3    H158124   5.550   6.729  14.663 -1.3796  0.0124 -0.8405
12211TIP3    H258125   5.578   6.653  14.791 -1.4100  1.3299 -0.0283
12212TIP3   OH258126   5.798   5.798  14.942 -0.1198  0.0289  0.1556
12212TIP3    H158127   5.743   5.757  14.875 -4.1257  0.8991  2.5678
12212TIP3    H258128   5.785   5.892  14.929  1.3899  0.3062  0.4565
12213TIP3   OH258129   2.939   5.652   0.167 -0.0696  0.4655  1.0519
12213TIP3    H158130   2.920   5.725   0.108 -0.5031 -0.8090 -0.4469
12213TIP3    H258131   2.855   5.629   0.207 -0.4485 -0.7722 -0.3754
12214TIP3   OH258132   4.393   0.183   2.680  0.2091 -0.9299  0.5037
12214TIP3    H158133   4.312   0.185   2.630  1.8596  1.6110 -2.4474
12214TIP3    H258134   4.365   0.173   2.771 -3.2625 -1.4873 -0.4712
12215TIP3   OH258135   5.160   3.898   2.529  0.1953 -0.4521  0.2455
12215TIP3    H158136   5.220   3.852   2.470 -1.0851 -2.4786  0.4287
12215TIP3    H258137   5.089   3.929   2.471  0.0546 -0.4874  0.3981
12216TIP3   OH258138   0.176   3.358   1.285 -0.0273 -0.0592  0.0377
12216TIP3    H158139   0.265   3.353   1.319 -0.4171  0.8143  1.2653
12216TIP3    H258140   0.122   3.322   1.355 -0.7500  0.6359 -0.1506
12217TIP3   OH258141   4.172   0.368   3.651 -0.0889 -0.6420  0.8758
12217TIP3    H158142   4.158   0.457   3.683  0.6050 -0.7276  1.4657
12217TIP3    H258143   4.139   0.312   3.722  1.1008 -0.8385  1.3058
12218TIP3   OH258144   6.797   0.196   5.428  0.5047  0.4563  0.0424
12218TIP3    H158145   6.853   0.265   5.391  0.7746  0.0079 -0.4185
12218TIP3    H258146   6.710   0.213   5.392  0.8541 -0.2315 -1.2020
12219TIP3   OH258147   1.255   0.103  16.879 -0.3657 -0.1999 -0.5424
12219TIP3    H158148   1.230   0.109  16.787  0.7213 -1.3023 -0.9346
12219TIP3    H258149   1.200   0.034  16.914  0.2358 -0.7803 -0.7332
12220TIP3   OH258150   2.773   5.940   1.900 -0.0991  0.1712 -0.4077
12220TIP3    H158151   2.805   5.973   1.984  2.4622  0.9320 -1.5980
12220TIP3    H258152   2.700   5.998   1.878 -0.3704  0.3840  0.9422
12221TIP3   OH258153   3.873   1.742  15.547 -0.1998 -0.2419 -0.1359
12221TIP3    H158154   3.934   1.812  15.569 -0.1393 -0.6879  1.1767
12221TIP3    H258155   3.897   1.716  15.458 -1.2006  2.4108 -1.3167
12222TIP3   OH258156   5.563   0.032  16.410 -0.5967  0.6397  0.0035
12222TIP3    H158157   5.572   0.042  16.504  0.3507  1.2398 -0.1349
12222TIP3    H258158   5.608  -0.050  16.389 -0.8829  0.4613  0.0744
12223TIP3   OH258159   5.767   0.482   4.500  0.3285 -0.2579  0.4604
12223TIP3    H158160   5.745   0.406   4.444 -2.6203 -0.1911  1.3534
12223TIP3    H258161   5.794   0.443   4.583  0.3490 -0.3433  0.4144
12224TIP3   OH258162   1.891   3.690   5.939  0.3930 -0.6777  0.2235
12224TIP3    H158163   1.802   3.676   5.971 -0.3093  1.5880 -0.5702
12224TIP3    H258164   1.916   3.606   5.901 -0.8963 -1.7413  1.5824
12225TIP3   OH258165   2.056   0.853   4.552 -0.4017  0.3747 -0.1582
12225TIP3    H158166   1.967   0.819   4.561  0.5873 -2.1149  1.3325
12225TIP3    H258167   2.085   0.822   4.467 -0.2653 -0.6169  0.2447
12226TIP3   OH258168   6.828   0.974  16.696  0.1145  0.2221 -0.3165
12226TIP3    H158169   6.819   0.879  16.690  0.3851  0.2159 -0.6705
12226TIP3    H258170   6.768   1.008  16.630  0.6603  0.2638 -0.8024
12227TIP3   OH258171   1.181   1.843   5.915  0.1586  0.7460  0.3218
12227TIP3    H158172   1.107   1.814   5.863 -0.1606  1.1671  0.5331
12227TIP3    H258173   1.155   1.929   5.948 -0.7451 -0.5247  3.2788
12228TIP3   OH258174   3.533   1.804   5.597 -0.2024 -0.2815  0.3946
12228TIP3    H158175   3.547   1.828   5.505 -1.1444  3.3930  1.0704
12228TIP3    H258176   3.457   1.746   5.595 -0.3358 -0.0974 -1.1321
12229TIP3   OH258177   4.477   1.302   5.644  0.1791  0.8574  0.1944
12229TIP3    H158178   4.473   1.368   5.576  1.4993  0.1384 -0.6138
12229TIP3    H258179   4.401   1.246   5.628  0.0731  1.1212 -0.2242
12230TIP3   OH258180   3.348   2.165   3.396 -0.1535 -0.1582  0.0642
12230TIP3    H158181   3.312   2.136   3.480 -0.8797  1.1515  0.2223
12230TIP3    H258182   3.413   2.098   3.375 -0.2739 -0.7613  1.4393
12231TIP3   OH258183   6.246   2.804   0.883  0.3444 -0.1643 -0.5441
12231TIP3    H158184   6.179   2.833   0.946 -0.2819  1.1879 -1.7815
12231TIP3    H258185   6.270   2.884   0.836  1.9804 -0.8629 -0.9362
12232TIP3   OH258186   4.635   4.945  15.438 -0.1589  0.2626 -0.6849
12232TIP3    H158187   4.674   4.873  15.389 -0.9179 -0.2738 -0.5153
12232TIP3    H258188   4.543   4.920  15.449  0.0783  0.1157  1.4214
12233TIP3   OH258189   3.656   2.514   5.380  0.2991  0.0507  0.0170
12233TIP3    H158190   3.570   2.545   5.352  0.6555  0.6953 -0.3698
12233TIP3    H258191   3.715   2.589   5.368  1.6706 -1.3467 -3.1938
12234TIP3   OH258192   6.771   0.833   3.593 -0.1607 -0.4318  0.2347
12234TIP3    H158193   6.790   0.777   3.668  1.6661 -2.4615 -1.6060
12234TIP3    H258194   6.856   0.873   3.571 -0.7974  0.6329 -0.3555
12235TIP3   OH258195   3.238   1.425  11.606  0.1127  0.2782  0.0481
12235TIP3    H158196   3.241   1.506  11.657  0.1862 -0.5702  1.4479
12235TIP3    H258197   3.167   1.375  11.645  0.1034 -0.3615 -0.7673
12236TIP3   OH258198   0.496   1.212  16.939 -0.1973  0.4199 -0.0719
12236TIP3    H158199   0.430   1.152  16.903  1.2264 -0.7623 -0.7943
12236TIP3    H258200   0.457   1.299  16.927 -1.2545 -0.1828 -1.3356
12237TIP3   OH258201   3.248   0.923   2.563 -0.0704 -0.0921 -0.0439
12237TIP3    H158202   3.255   0.991   2.630 -0.5658  0.7497 -0.8324
12237TIP3    H258203   3.291   0.959   2.486  1.7996 -1.6247  0.2007
12238TIP3   OH258204   4.058   4.626   6.070  0.0566  0.2356  0.5945
12238TIP3    H158205   4.110   4.706   6.072 -0.1613  0.3901  2.2798
12238TIP3    H258206   4.114   4.560   6.112  0.6582 -0.8314 -1.7150
12239TIP3   OH258207   6.134   5.870   3.842 -0.1676 -0.3422  0.2329
12239TIP3    H158208   6.081   5.933   3.794 -0.3598 -1.1045 -0.5943
12239TIP3    H258209   6.225   5.898   3.827 -0.1688 -1.0355 -1.3211
12240TIP3   OH258210   3.391   2.723  14.275 -0.1605 -0.3020 -0.0930
12240TIP3    H158211   3.426   2.800  14.318  0.4592 -1.0870  0.8528
12240TIP3    H258212   3.403   2.739  14.182 -2.1053  1.7160 -0.0706
12241TIP3   OH258213   4.599   3.528   3.472 -0.4490 -0.6867  0.1819
12241TIP3    H158214   4.681   3.497   3.510 -1.0989 -0.0480  2.2280
12241TIP3    H258215   4.605   3.623   3.478 -1.0502 -0.6104 -0.3478
12242TIP3   OH258216   5.394   5.283   2.348 -0.3240 -0.5710  0.5071
12242TIP3    H158217   5.466   5.325   2.300 -0.6684  0.1617  0.6174
12242TIP3    H258218   5.365   5.350   2.410 -1.2091 -0.8006  0.3489
12243TIP3   OH258219   2.515   1.399  13.250 -0.6873 -0.4286 -0.1660
12243TIP3    H158220   2.562   1.374  13.329 -1.4642  2.1373  1.2439
12243TIP3    H258221   2.466   1.321  13.225  1.4094 -2.0179  0.4643
12244TIP3   OH258222   6.016   0.287   5.799 -0.7068 -0.0032 -0.6581
12244TIP3    H158223   5.976   0.240   5.727 -0.3601 -0.5982 -0.4739
12244TIP3    H258224   6.102   0.313   5.766 -0.3176 -0.7750 -0.2810
12245TIP3   OH258225   2.294   4.265   0.609  0.2059 -0.7484  0.2944
12245TIP3    H158226   2.265   4.198   0.548  0.5785  0.0990 -0.8436
12245TIP3    H258227   2.214   4.313   0.631 -0.2145 -2.0641  1.7934
12246TIP3   OH258228   1.700   2.788  14.341  0.2721  0.0082 -0.2730
12246TIP3    H158229   1.713   2.696  14.321  0.0677 -0.4291  1.4402
12246TIP3    H258230   1.703   2.793  14.437  1.4900  1.9677 -0.3484
12247TIP3   OH258231   0.706   4.854   0.581  0.0933 -0.2664 -0.2158
12247TIP3    H158232   0.774   4.847   0.649 -0.5643 -2.7030  0.3133
12247TIP3    H258233   0.626   4.871   0.630 -0.0144  0.5233 -0.6530
12248TIP3   OH258234   2.885   6.193  13.249 -0.1596 -0.5395  0.6468
12248TIP3    H158235   2.801   6.213  13.291 -0.4613  0.1682 -0.2631
12248TIP3    H258236   2.947   6.188  13.322 -0.5744  1.1434  1.1820
12249TIP3   OH258237   1.952   6.294  16.897  0.0784  0.4338  0.7595
12249TIP3    H158238   1.903   6.345  16.833  0.6448 -1.4946 -1.3412
12249TIP3    H258239   1.886   6.263  16.959 -1.4015 -1.5557 -1.6275
12250TIP3   OH258240   6.147   5.053  15.234  0.0428 -0.3957  0.0511
12250TIP3    H158241   6.098   5.120  15.186  0.0646  0.4622  1.1721
12250TIP3    H258242   6.140   5.080  15.326  2.9596  0.0096  0.2368
12251TIP3   OH258243   4.426   3.415  11.169  0.2865  0.1379 -0.0079
12251TIP3    H158244   4.508   3.368  11.165  0.7945  0.7909  1.8038
12251TIP3    H258245   4.368   3.368  11.109  1.9987 -0.2316 -1.4458
12252TIP3   OH258246   1.642   1.082   5.814  0.5284 -0.0380 -0.6280
12252TIP3    H158247   1.679   1.017   5.874  2.5999  1.3588 -0.3124
12252TIP3    H258248   1.701   1.157   5.820 -3.0804  3.0289  1.0174
12253TIP3   OH258249   0.256   2.787   1.720  0.3575 -0.2228  0.2822
12253TIP3    H158250   0.199   2.864   1.723 -1.7750 -1.6085 -1.3279
12253TIP3    H258251   0.287   2.777   1.810 -0.0851  1.9146  0.7381
12254TIP3   OH258252   6.137   5.843  16.487 -0.5582 -0.4054 -0.4295
12254TIP3    H158253   6.207   5.904  16.511  0.1374 -1.7501  1.1826
12254TIP3    H258254   6.176   5.787  16.420 -0.2828 -0.7474  0.0087
12255TIP3   OH258255   0.998   0.850   3.032 -0.5124 -0.6824 -0.2851
12255TIP3    H158256   1.000   0.765   2.990 -0.0662  0.0908 -1.8953
12255TIP3    H258257   0.915   0.889   3.004 -1.5064 -1.1630  1.7445
12256TIP3   OH258258   1.197   3.977  11.753 -0.4397  0.1735  0.3339
12256TIP3    H158259   1.287   4.005  11.769 -0.4057 -0.1949  0.7766
12256TIP3    H258260   1.199   3.882  11.758 -1.1668  0.2249  2.0069
12257TIP3   OH258261   1.055   1.676  15.535  0.2067  0.1486  0.1502
12257TIP3    H158262   1.058   1.734  15.459 -2.4433 -0.4135 -0.4704
12257TIP3    H258263   1.110   1.720  15.600 -1.8898  3.5889 -0.1626
12258TIP3   OH258264   5.010   2.706  10.543 -0.0541 -0.0687 -0.0286
12258TIP3    H158265   5.033   2.674  10.630 -0.0448 -0.4901 -0.1825
12258TIP3    H258266   5.092   2.703  10.493  1.1002  4.4059  1.1361
12259TIP3   OH258267   3.286   3.711  12.475  0.9999 -0.0199 -0.7947
12259TIP3    H158268   3.305   3.632  12.525 -0.8299  0.1646  0.2855
12259TIP3    H258269   3.372   3.746  12.452  1.8707 -1.1885  0.5177
12260TIP3   OH258270   0.745   1.012  14.975 -0.1159  0.7773  0.1468
12260TIP3    H158271   0.721   0.974  14.891 -0.0539  1.4318 -0.1750
12260TIP3    H258272   0.669   0.999  15.031 -0.1028  0.2103  0.0374
12261TIP3   OH258273   1.511   4.448   5.134  0.1809  0.0198  0.2533
12261TIP3    H158274   1.510   4.542   5.115 -2.9212 -0.2708 -1.7114
12261TIP3    H258275   1.502   4.443   5.229 -1.2939  1.7798  0.2722
12262TIP3   OH258276   1.246   1.386  13.176 -0.3078  0.0177  0.1859
12262TIP3    H158277   1.232   1.298  13.141  0.6082 -0.1841  0.2921
12262TIP3    H258278   1.318   1.375  13.238 -2.0488  0.2957  2.3737
12263TIP3   OH258279   5.794   6.627   1.237  0.5016 -0.2254 -0.5632
12263TIP3    H158280   5.793   6.537   1.206 -1.1682 -0.4130 -0.0844
12263TIP3    H258281   5.885   6.656   1.227  1.2818 -2.2737  0.2548
12264TIP3   OH258282   6.014   0.042   0.455  0.3834 -0.9240 -0.0585
12264TIP3    H158283   6.038   0.131   0.480  2.5046 -1.5797  0.4669
12264TIP3    H258284   6.032   0.038   0.361 -1.1827 -0.3984 -0.4122
12265TIP3   OH258285   0.335   2.897  17.120 -0.1425 -0.3417  0.1367
12265TIP3    H158286   0.371   2.938  17.198 -0.7310  2.6243 -1.0129
12265TIP3    H258287   0.248   2.936  17.110 -0.2842 -1.0164 -1.7350
12266TIP3   OH258288   2.039   4.720   6.494 -0.2903  0.6090  0.4548
12266TIP3    H158289   1.960   4.717   6.549  1.3540  0.4773  2.9846
12266TIP3    H258290   2.071   4.630   6.494 -0.0102  0.7013 -0.3858
12267TIP3   OH258291   6.652   0.530   1.184  0.0050  0.0038 -0.5792
12267TIP3    H158292   6.696   0.475   1.248 -0.3714  0.0417 -0.2846
12267TIP3    H258293   6.723   0.569   1.133  0.2479 -1.9853 -1.8544
12268TIP3   OH258294   4.295   3.612   4.572 -0.0943 -0.1051  0.2374
12268TIP3    H158295   4.207   3.610   4.611 -0.9601  0.7049 -1.5535
12268TIP3    H258296   4.279   3.629   4.479  2.0438  1.8308  0.1431
12269TIP3   OH258297   0.364   1.725   0.071  0.2729  0.3734  0.4245
12269TIP3    H158298   0.428   1.765   0.012 -1.4547  0.9018 -1.1754
12269TIP3    H258299   0.352   1.788   0.142  1.1703  0.4556  0.5114
12270TIP3   OH258300   6.469   6.172   2.590 -0.6870 -0.1296  0.0161
12270TIP3    H158301   6.493   6.226   2.514 -0.7595  3.3270  2.2256
12270TIP3    H258302   6.544   6.114   2.602 -0.4708 -0.4505 -2.3676
12271TIP3   OH258303   1.161   3.703  16.952  0.5512  0.1303  0.0592
12271TIP3    H158304   1.083   3.724  16.901 -2.0087 -2.1849  2.6357
12271TIP3    H258305   1.168   3.773  17.017  0.2029  0.0038  0.2339
12272TIP3   OH258306   0.608   1.176  16.608  0.3495 -0.6180  0.0993
12272TIP3    H158307   0.702   1.160  16.622  0.1540 -5.7241 -2.0783
12272TIP3    H258308   0.568   1.160  16.694  1.3374  0.5689  0.8101
12273TIP3   OH258309   3.279   3.268  13.273 -0.0795 -0.5009 -0.1368
12273TIP3    H158310   3.342   3.206  13.237  1.4810  0.0711  1.4545
12273TIP3    H258311   3.201   3.215  13.291 -0.7912 -0.8966 -3.7253
12274TIP3   OH258312   0.380   1.050   6.414 -0.1112  0.3242  0.1070
12274TIP3    H158313   0.405   1.112   6.345  0.7917  0.0188  0.1486
12274TIP3    H258314   0.376   1.104   6.493 -0.2243  0.4980 -0.0158
12275TIP3   OH258315   5.526   2.879  14.773  0.1878  0.0148  0.1823
12275TIP3    H158316   5.476   2.851  14.849 -2.1774 -2.0632 -1.9518
12275TIP3    H258317   5.474   2.949  14.733 -0.5623 -1.3650 -1.4118
12276TIP3   OH258318   6.218   1.243   3.226 -0.5711 -0.0204  0.3002
12276TIP3    H158319   6.305   1.264   3.260 -0.7617 -0.4953  1.1133
12276TIP3    H258320   6.177   1.193   3.296 -1.3630 -0.1276 -0.2323
12277TIP3   OH258321   2.528   5.503  12.704 -0.8879 -0.2589 -0.0020
12277TIP3    H158322   2.583   5.493  12.627 -0.1838  0.1893  0.4304
12277TIP3    H258323   2.473   5.579  12.686 -0.1253  0.3711  0.2770
12278TIP3   OH258324   5.150   6.025  13.939 -0.1437 -0.2737 -0.0163
12278TIP3    H158325   5.176   6.094  13.879 -2.3924 -0.1812 -0.9587
12278TIP3    H258326   5.233   5.982  13.963  0.9052  0.1283 -2.5903
12279TIP3   OH258327   3.421   0.452  15.973 -0.4138  0.1498  0.0694
12279TIP3    H158328   3.511   0.432  15.999  0.5018  0.6472 -2.4271
12279TIP3    H258329   3.386   0.368  15.943 -1.1812 -0.2544  1.9917
12280TIP3   OH258330   5.864   2.351  14.053 -0.5510 -0.0197 -0.4435
12280TIP3    H158331   5.929   2.282  14.040  1.1243  1.1984  0.9730
12280TIP3    H258332   5.792   2.329  13.993  1.6458 -0.7910 -2.9726
12281TIP3   OH258333   4.623   3.857  10.878 -0.7912 -0.0825  0.1458
12281TIP3    H158334   4.685   3.832  10.946 -0.6889  1.6374  0.7453
12281TIP3    H258335   4.615   3.779  10.822 -0.6506 -1.4346  1.9355
12282TIP3   OH258336   0.356   1.680  14.275  0.7057  0.6934 -0.2632
12282TIP3    H158337   0.403   1.649  14.197 -1.3354 -0.4484 -1.0922
12282TIP3    H258338   0.314   1.761  14.246 -0.7396 -0.1603 -0.6734
12283TIP3   OH258339   4.650   2.975  11.406  0.2441 -0.4993  0.0091
12283TIP3    H158340   4.688   3.062  11.412  0.0860 -0.3455 -1.0905
12283TIP3    H258341   4.585   2.981  11.336 -1.7355 -0.7942  1.7199
12284TIP3   OH258342   4.133   6.124  12.981  0.1073  0.1815 -0.1686
12284TIP3    H158343   4.073   6.098  13.051  0.1713  0.8473  0.1489
12284TIP3    H258344   4.076   6.148  12.909  0.0505 -0.8810 -0.4939
12285TIP3   OH258345   0.396   3.396   1.086  1.0755  0.4762 -0.3911
12285TIP3    H158346   0.420   3.338   1.013  2.3937  1.1503 -0.5251
12285TIP3    H258347   0.467   3.385   1.149 -0.7043 -1.1171  1.4609
12286TIP3   OH258348   5.087   4.670   2.520  0.8151  0.2044  0.3399
12286TIP3    H158349   5.156   4.697   2.460  0.9324 -1.5244 -0.3553
12286TIP3    H258350   5.069   4.579   2.497 -1.8126  0.6290  0.4114
12287TIP3   OH258351   6.671   1.378  11.683 -0.4154 -0.4792  0.0479
12287TIP3    H158352   6.690   1.452  11.741  1.8048  0.1850 -1.3878
12287TIP3    H258353   6.615   1.320  11.735 -0.7145  1.3277  1.8658
12288TIP3   OH258354   3.419   0.303   4.681 -0.1475  0.0222  0.0895
12288TIP3    H158355   3.442   0.248   4.606  0.5309 -1.1314  1.1057
12288TIP3    H258356   3.349   0.255   4.725  0.6129 -0.1803  1.1217
12289TIP3   OH258357   4.490   3.374  12.692  0.3544  0.3288 -0.2616
12289TIP3    H158358   4.408   3.418  12.670  0.2298  0.4539  0.4470
12289TIP3    H258359   4.557   3.424  12.645 -0.0410 -0.2370 -1.4672
12290TIP3   OH258360   3.013   6.540   1.511  0.7001  0.5917  0.2525
12290TIP3    H158361   2.954   6.611   1.537 -2.0729 -1.9307  1.4184
12290TIP3    H258362   3.074   6.531   1.585  0.0002  0.7155  0.8576
12291TIP3   OH258363   5.002   4.813   5.447  0.5971  0.0986 -0.1236
12291TIP3    H158364   4.911   4.837   5.432 -0.1859 -0.4129  3.1273
12291TIP3    H258365   5.020   4.744   5.382 -2.1221 -1.4512  0.6137
12292TIP3   OH258366   3.838   6.246  13.038  0.1376  0.1836 -0.1750
12292TIP3    H158367   3.747   6.271  13.051  0.6657  3.1975 -1.4929
12292TIP3    H258368   3.876   6.248  13.126 -1.1734 -2.0673  0.5373
12293TIP3   OH258369   0.256   0.855  15.645 -0.8826  0.8640 -0.0217
12293TIP3    H158370   0.218   0.853  15.733 -0.8721 -3.2721  0.0920
12293TIP3    H258371   0.344   0.820  15.656 -1.7242 -2.1844 -1.8561
12294TIP3   OH258372   3.837   1.259   0.031 -0.3987  0.5242  0.4925
12294TIP3    H158373   3.822   1.196  -0.039  1.8313  0.4219  0.0286
12294TIP3    H258374   3.785   1.226   0.104 -0.6649 -0.8859 -0.2905
12295TIP3   OH258375   2.686   2.530  11.749  0.3842 -0.5426  0.1142
12295TIP3    H158376   2.625   2.519  11.822 -0.2038 -0.8827 -0.4172
12295TIP3    H258377   2.631   2.559  11.676  1.2408  1.6914  0.2881
12296TIP3   OH258378   5.061   6.323   4.668 -0.5457  0.5079 -0.4984
12296TIP3    H158379   5.031   6.244   4.713 -1.0083  0.7612 -0.3596
12296TIP3    H258380   4.983   6.358   4.625 -0.8614  2.0966  1.2279
12297TIP3   OH258381   5.526   4.767  15.004  0.0146  0.1272  0.0776
12297TIP3    H158382   5.493   4.758  15.093  0.4387  0.3784  0.2631
12297TIP3    H258383   5.607   4.817  15.013  0.3117 -0.2577 -0.3985
12298TIP3   OH258384   4.512   0.674  14.262 -0.1677 -0.3821  0.3527
12298TIP3    H158385   4.548   0.618  14.194 -1.3876 -1.3285  0.4540
12298TIP3    H258386   4.574   0.747  14.269  0.4526 -0.7477 -1.1060
12299TIP3   OH258387   4.504   1.448   3.452 -0.2446 -0.3290 -0.2829
12299TIP3    H158388   4.425   1.402   3.480  0.5035 -0.4952  1.7037
12299TIP3    H258389   4.571   1.380   3.450  0.2284  0.1318 -0.2565
12300TIP3   OH258390   4.284   1.368  15.648  0.0618  0.1387  0.0548
12300TIP3    H158391   4.243   1.285  15.623 -1.1810  0.7271  0.0649
12300TIP3    H258392   4.261   1.428  15.578 -0.3316  0.8536  0.7717
12301TIP3   OH258393   5.274   4.918   1.226 -0.2336 -0.0833 -0.0374
12301TIP3    H158394   5.256   4.952   1.138 -2.0756 -0.4724  0.1503
12301TIP3    H258395   5.188   4.895   1.261  0.5413 -0.6737  1.5797
12302TIP3   OH258396   5.302   2.266   1.323  0.2375 -0.5143 -0.1382
12302TIP3    H158397   5.350   2.331   1.272 -0.6303 -0.1294 -0.4814
12302TIP3    H258398   5.259   2.316   1.392  1.9187 -1.1077  1.4051
12303TIP3   OH258399   5.350   0.681  11.988 -0.0806  0.4277 -0.4156
12303TIP3    H158400   5.396   0.709  12.067 -1.3965 -0.4032  0.6904
12303TIP3    H258401   5.288   0.751  11.969 -0.1759  0.3617 -0.3520
12304TIP3   OH258402   1.398   1.154   1.458  0.0688  0.0898  0.1873
12304TIP3    H158403   1.376   1.233   1.409  0.4673  1.5516  2.2035
12304TIP3    H258404   1.315   1.126   1.496 -0.0769 -0.4893 -0.5491
12305TIP3   OH258405   1.791   1.058   0.402  0.3655  0.4751  0.4336
12305TIP3    H158406   1.858   1.127   0.406 -1.0570  1.9593 -0.2286
12305TIP3    H258407   1.803   1.018   0.316  0.1530  1.0331  0.1366
12306TIP3   OH258408   5.205   1.944   1.933 -0.4523 -0.1992 -0.2557
12306TIP3    H158409   5.208   1.904   1.846  1.5978 -0.7273 -0.0003
12306TIP3    H258410   5.184   2.036   1.917  1.9841  0.2107 -1.5598
12307TIP3   OH258411   0.882   5.104  11.486 -0.4115 -0.0133 -0.4707
12307TIP3    H158412   0.866   5.048  11.410  0.2443  0.1194 -0.7054
12307TIP3    H258413   0.860   5.192  11.456 -0.0342  0.0561 -0.5436
12308TIP3   OH258414   5.074   2.270   4.488 -0.4594 -0.3016  0.1324
12308TIP3    H158415   5.083   2.330   4.414 -0.3458  0.7265  0.9634
12308TIP3    H258416   4.981   2.271   4.508 -0.8702 -2.2186 -1.2868
12309TIP3   OH258417   6.205   1.151  16.450  0.1476  0.0553  0.2899
12309TIP3    H158418   6.186   1.245  16.455 -0.6092 -0.0545 -0.3829
12309TIP3    H258419   6.121   1.111  16.430  0.3336 -0.8385  1.2265
12310TIP3   OH258420   5.786   5.964  16.895  0.4537 -0.5476 -0.1370
12310TIP3    H158421   5.821   6.011  16.971  1.1293 -2.0953  0.5751
12310TIP3    H258422   5.862   5.920  16.857 -0.2215 -1.5332 -0.4001
12311TIP3   OH258423   5.062   1.362   5.618  0.5693  0.1568  0.0687
12311TIP3    H158424   4.990   1.385   5.676  2.5474  1.2147  2.2353
12311TIP3    H258425   5.112   1.296   5.665  0.5911 -1.2491 -1.7859
12312TIP3   OH258426   4.898   2.917   0.323 -0.1254  0.5416  0.2562
12312TIP3    H158427   4.944   2.876   0.249  1.1162  1.1003  0.7023
12312TIP3    H258428   4.964   2.924   0.391 -0.4812  2.6706  0.4244
12313TIP3   OH258429   6.100   0.725   5.265  0.2693  0.5123 -0.0773
12313TIP3    H158430   6.051   0.785   5.209 -1.4046 -0.1696  0.5766
12313TIP3    H258431   6.150   0.670   5.203 -1.1003  0.1432 -0.9109
12314TIP3   OH258432   3.683   3.459   3.719  0.6133 -0.2466  0.0569
12314TIP3    H158433   3.656   3.500   3.801  1.5615  1.6416 -0.4946
12314TIP3    H258434   3.779   3.461   3.722  0.6664  0.0252 -1.1527
12315TIP3   OH258435   3.819   0.164  16.058 -0.5981  0.2073  0.4253
12315TIP3    H158436   3.784   0.252  16.074 -0.9563  0.1899 -0.2184
12315TIP3    H258437   3.879   0.176  15.984 -1.1746 -0.2079 -0.1145
12316TIP3   OH258438   2.188   6.768  16.879 -0.4304  0.0550  0.0636
12316TIP3    H158439   2.226   6.680  16.883  1.0574  0.6851  0.4557
12316TIP3    H258440   2.245   6.817  16.821 -1.3825  0.7166 -0.3396
12317TIP3   OH258441   6.144   4.508  12.526 -0.0530 -0.1395 -0.1274
12317TIP3    H158442   6.226   4.543  12.491 -0.9965  1.5578 -0.7657
12317TIP3    H258443   6.148   4.527  12.620  1.0280 -1.6873  0.1781
12318TIP3   OH258444   5.284   0.625  15.854 -0.2458  0.2073 -0.0922
12318TIP3    H158445   5.249   0.605  15.767  0.5572  0.1584 -0.4115
12318TIP3    H258446   5.209   0.660  15.902 -0.1910  2.5696 -1.5507
12319TIP3   OH258447   4.766   4.173   1.610  0.1885  0.0584  0.2769
12319TIP3    H158448   4.773   4.106   1.542  0.7722 -1.4448  1.7441
12319TIP3    H258449   4.672   4.186   1.621 -0.2245 -3.5539  2.6760
12320TIP3   OH258450   5.866   6.677   4.098  0.3902 -0.2001 -0.1838
12320TIP3    H158451   5.801   6.726   4.048  1.0133  1.3953  0.4955
12320TIP3    H258452   5.877   6.595   4.049 -1.5565 -0.2042 -0.7070
12321TIP3   OH258453   5.955   6.251   4.719  0.5427 -0.0797  0.0853
12321TIP3    H158454   5.926   6.167   4.755 -1.5854  0.4557 -0.2701
12321TIP3    H258455   5.909   6.258   4.635  1.5750  0.9583 -0.4262
12322TIP3   OH258456   5.161   4.767   1.723 -0.6163  0.3410 -0.4085
12322TIP3    H158457   5.210   4.823   1.783  0.1318  0.3174 -0.9809
12322TIP3    H258458   5.215   4.763   1.644 -1.5253  0.2651 -1.0384
12323TIP3   OH258459   0.888   5.698   2.517 -0.4511 -0.5665 -0.6066
12323TIP3    H158460   0.815   5.751   2.484 -0.1770  0.2371  0.0352
12323TIP3    H258461   0.869   5.687   2.610 -0.1188 -0.9588 -0.5851
12324TIP3   OH258462   0.287   1.214  14.242  0.6411 -0.3965 -0.1311
12324TIP3    H158463   0.334   1.278  14.296  1.9229 -1.0959 -0.3694
12324TIP3    H258464   0.356   1.160  14.204 -0.3737 -1.4951 -0.4774
12325TIP3   OH258465   3.814   5.968   2.778  0.0128  0.4343  0.3540
12325TIP3    H158466   3.801   5.902   2.710 -0.0090  0.2765  0.5115
12325TIP3    H258467   3.840   5.918   2.855  1.0975  0.6996  0.1780
12326TIP3   OH258468   2.724   0.930  11.515  0.3718  0.4461 -0.0503
12326TIP3    H158469   2.704   1.007  11.569  2.4615  0.8749  0.1945
12326TIP3    H258470   2.705   0.855  11.571  2.7724  0.8815  1.5079
12327TIP3   OH258471   6.814   1.543  12.179 -0.0118 -0.1762  0.1299
12327TIP3    H158472   6.801   1.454  12.211 -0.7685 -0.1071  0.0280
12327TIP3    H258473   6.729   1.570  12.146 -0.6367  1.6971  2.8966
12328TIP3   OH258474   6.122   4.590   6.401  0.5022  0.4009  0.1964
12328TIP3    H158475   6.051   4.570   6.461 -0.3559  0.7903 -0.6624
12328TIP3    H258476   6.139   4.507   6.356  0.4992  0.3428  0.3015
12329TIP3   OH258477   4.409   1.496   0.860 -0.1178  0.3626 -0.2629
12329TIP3    H158478   4.348   1.538   0.920  0.1474 -0.2401  0.4472
12329TIP3    H258479   4.439   1.418   0.907 -0.4768 -0.5487 -1.4672
12330TIP3   OH258480   0.640   6.270   6.073  0.1688  0.1293 -0.2844
12330TIP3    H158481   0.723   6.315   6.087 -0.2562  0.9555 -0.3496
12330TIP3    H258482   0.662   6.177   6.074  1.2955  0.3565 -1.5752
12331TIP3   OH258483   5.012   1.749   0.457  0.3375 -0.0076  0.3632
12331TIP3    H158484   5.004   1.751   0.552 -1.8997 -1.1088  0.2806
12331TIP3    H258485   4.926   1.779   0.425  0.7783 -0.3828 -1.2924
12332TIP3   OH258486   6.388   2.539   3.484  0.4317 -0.0354 -0.1827
12332TIP3    H158487   6.326   2.475   3.518 -0.3657  0.2882 -0.9943
12332TIP3    H258488   6.472   2.492   3.480  0.5781 -0.0905  2.1903
12333TIP3   OH258489   4.366   6.099   5.466 -0.6628  0.7960  0.1877
12333TIP3    H158490   4.362   6.070   5.374 -1.2798  0.7281  0.2283
12333TIP3    H258491   4.322   6.184   5.465 -0.5083  0.8769  0.3902
12334TIP3   OH258492   4.542   6.761   0.229 -0.0504 -0.0923  0.6465
12334TIP3    H158493   4.619   6.815   0.214  0.7646 -0.9937  1.4755
12334TIP3    H258494   4.529   6.714   0.146 -0.1483  0.5908  0.2725
12335TIP3   OH258495   0.792   1.904  14.695  0.0980 -0.1263 -0.6531
12335TIP3    H158496   0.709   1.923  14.652  0.5043  1.6819 -0.6959
12335TIP3    H258497   0.831   1.834  14.642  0.5713  1.9808 -3.2728
12336TIP3   OH258498   0.549   5.784  16.932  0.1676  0.4025  0.6789
12336TIP3    H158499   0.544   5.701  16.883  2.1679  0.4387  0.3156
12336TIP3    H258500   0.635   5.819  16.910 -0.3219  2.1996  1.4742
12337TIP3   OH258501   5.588   3.658  11.213  0.0872  0.2946  0.5119
12337TIP3    H158502   5.565   3.611  11.132  0.9042  1.4464 -0.4171
12337TIP3    H258503   5.681   3.639  11.225 -0.0711 -0.0095  1.2917
12338TIP3   OH258504   0.942   2.855  17.034  0.4313  0.1741 -0.2478
12338TIP3    H158505   0.975   2.800  16.963  0.2246  0.3810 -0.5050
12338TIP3    H258506   0.893   2.796  17.090 -1.7171  0.4643 -1.7159
12339TIP3   OH258507   3.922   1.511   3.179 -0.0490 -0.1105  0.8227
12339TIP3    H158508   3.912   1.457   3.100 -1.2675 -0.0310  0.9103
12339TIP3    H258509   4.005   1.481   3.217  4.0040  3.8445 -3.5255
12340TIP3   OH258510   5.589   4.123   5.227  0.8236 -0.6991  0.3440
12340TIP3    H158511   5.604   4.048   5.285  0.8935  0.8028  2.3915
12340TIP3    H258512   5.509   4.163   5.261  1.6446  1.0265  0.3357
12341TIP3   OH258513   6.464   6.055  15.438  0.6166 -0.6208  0.2861
12341TIP3    H158514   6.506   6.069  15.523  0.5401  1.3047  0.0569
12341TIP3    H258515   6.483   6.135  15.389 -0.5144 -1.1181 -1.0222
12342TIP3   OH258516   4.832   1.973  11.078 -0.1824 -0.0688 -0.1890
12342TIP3    H158517   4.859   2.061  11.051 -1.2850  0.0025 -1.1505
12342TIP3    H258518   4.873   1.915  11.013 -2.8751  0.1049 -2.2114
12343TIP3   OH258519   5.342   5.842  12.928 -0.1730 -0.3005 -0.4917
12343TIP3    H158520   5.316   5.816  12.840 -0.1761 -2.0705  0.0048
12343TIP3    H258521   5.357   5.760  12.975 -1.4052  0.5571  1.5561
12344TIP3   OH258522   3.551   3.683   0.739  0.2025 -0.5228 -0.3188
12344TIP3    H158523   3.561   3.617   0.670 -1.2875  0.3930 -1.4608
12344TIP3    H258524   3.487   3.745   0.704  0.5210  0.7780  1.3027
12345TIP3   OH258525   5.448   2.891   3.882  0.0992 -0.4693  0.3059
12345TIP3    H158526   5.424   2.953   3.950 -1.5878 -1.3144  0.5464
12345TIP3    H258527   5.464   2.944   3.804  0.9530  0.4111  1.0619
12346TIP3   OH258528   6.246   2.913   4.137 -0.1465  0.4255  0.1171
12346TIP3    H158529   6.259   2.927   4.231 -0.8802  0.4032  0.2275
12346TIP3    H258530   6.165   2.862   4.132 -1.0834  1.9175 -0.6062
12347TIP3   OH258531   4.913   2.952   3.164  0.1386 -0.5954  0.3166
12347TIP3    H158532   4.959   2.870   3.181  1.2585  0.3504  2.1115
12347TIP3    H258533   4.921   3.002   3.245 -2.2316  0.5069 -0.0518
12348TIP3   OH258534   3.284   2.166  14.662 -0.2131  0.4963 -0.3282
12348TIP3    H158535   3.295   2.142  14.570  1.6732  1.9940 -0.5520
12348TIP3    H258536   3.211   2.229  14.661 -1.9601 -1.4349 -0.3764
12349TIP3   OH258537   6.175   5.481  16.184  0.1383  0.1635  0.0108
12349TIP3    H158538   6.102   5.460  16.242  1.6270  2.4591  2.9955
12349TIP3    H258539   6.224   5.400  16.176 -0.7980 -0.5183  0.9198
12350TIP3   OH258540   1.077   0.127  12.981 -0.2530  0.0923  0.3251
12350TIP3    H158541   1.036   0.176  12.910 -0.3805  0.4588  0.6525
12350TIP3    H258542   1.009   0.065  13.009  0.7477 -2.2279 -1.8943
12351TIP3   OH258543   4.032   2.504  11.370 -0.1742 -0.0872 -0.4549
12351TIP3    H158544   4.029   2.540  11.282 -0.8597 -0.0724 -0.4343
12351TIP3    H258545   4.005   2.576  11.427 -0.0522 -0.1904 -0.2624
12352TIP3   OH258546   5.257   4.064   4.523 -0.0819 -0.2863  0.2422
12352TIP3    H158547   5.167   4.084   4.495  0.2192  0.2598 -0.3530
12352TIP3    H258548   5.255   3.970   4.543 -0.2005 -0.9000 -2.2135
12353TIP3   OH258549   4.560   5.277   1.563  0.1134 -0.0760 -0.5704
12353TIP3    H158550   4.608   5.208   1.516 -0.1684 -2.2583  2.0853
12353TIP3    H258551   4.615   5.296   1.639 -0.2950  2.0158 -0.7408
12354TIP3   OH258552   4.203   3.729   4.909 -0.2333  0.1990  0.3914
12354TIP3    H158553   4.138   3.666   4.878  0.3893 -1.0386  1.5362
12354TIP3    H258554   4.175   3.751   4.998  0.5868  0.0953  0.6791
12355TIP3   OH258555   1.909   3.043   3.874 -0.3119 -0.5024  0.6435
12355TIP3    H158556   1.986   3.095   3.900 -0.2599  0.1343 -0.6952
12355TIP3    H258557   1.873   3.011   3.957  1.2332 -0.5823  1.3219
12356TIP3   OH258558   0.006   3.546  15.435  0.2960 -0.0453 -0.2956
12356TIP3    H158559   0.031   3.498  15.356 -1.0889  0.5510 -1.1333
12356TIP3    H258560  -0.084   3.574  15.418  0.7632  2.0879  0.5340
12357TIP3   OH258561   4.496   1.734   3.788 -0.1301 -0.1142  0.0422
12357TIP3    H158562   4.492   1.658   3.846 -0.3418 -1.2508 -1.3914
12357TIP3    H258563   4.588   1.761   3.789  0.4711 -1.9313 -1.2650
12358TIP3   OH258564   3.481   4.265   4.864 -0.0751 -0.0438 -0.0454
12358TIP3    H158565   3.445   4.280   4.951 -0.0938  1.1074 -0.2387
12358TIP3    H258566   3.558   4.322   4.859  1.7193 -2.2846  0.2781
12359TIP3   OH258567   5.622   5.316  12.836  0.1849  0.2468  0.1198
12359TIP3    H158568   5.663   5.284  12.755  0.6454  1.0563  0.0273
12359TIP3    H258569   5.563   5.386  12.806 -0.8481 -0.5004  0.3168
12360TIP3   OH258570   3.505   5.761  13.431 -0.5245  0.1567 -0.4628
12360TIP3    H158571   3.419   5.719  13.431 -1.1637  1.4512 -0.4311
12360TIP3    H258572   3.519   5.788  13.340 -1.4014  2.4123  0.0153
12361TIP3   OH258573   3.902   2.406  16.452  0.3026  0.0533 -0.6941
12361TIP3    H158574   3.817   2.439  16.481 -0.3605 -0.5325 -1.9046
12361TIP3    H258575   3.923   2.337  16.515  0.7665  1.3909  0.6737
12362TIP3   OH258576   1.209   1.362  16.678 -0.1736  0.4749 -0.3562
12362TIP3    H158577   1.125   1.371  16.723 -0.1720 -1.0939  0.0379
12362TIP3    H258578   1.223   1.446  16.635 -2.4244  0.4857 -1.2193
12363TIP3   OH258579   2.880   3.299   3.336  0.1344  0.0719 -0.0267
12363TIP3    H158580   2.825   3.360   3.385  0.0741 -0.5634  0.7188
12363TIP3    H258581   2.827   3.273   3.262 -1.2252 -1.7145  1.4884
12364TIP3   OH258582   1.373   5.449   2.149 -0.3045  0.1443 -0.4682
12364TIP3    H158583   1.390   5.525   2.204 -1.1014 -0.3407  0.4879
12364TIP3    H258584   1.427   5.380   2.186 -1.1619 -0.2981  0.0063
12365TIP3   OH258585   1.813   4.993   3.332 -0.1680  0.7901  1.1178
12365TIP3    H158586   1.844   5.078   3.299  3.1875 -1.5867 -2.8876
12365TIP3    H258587   1.891   4.954   3.372 -1.1125 -1.0792  1.2207
12366TIP3   OH258588   5.752   2.383   2.499 -0.5389  0.0528 -0.4911
12366TIP3    H158589   5.804   2.339   2.431 -0.6984 -0.9529  0.0243
12366TIP3    H258590   5.813   2.392   2.573 -0.5997  0.4179 -0.4865
12367TIP3   OH258591   1.968   6.662   2.388  0.6666  0.0325 -0.0825
12367TIP3    H158592   1.999   6.589   2.334  1.6291 -0.0292  0.5233
12367TIP3    H258593   1.873   6.647   2.396  0.5647 -0.1535 -1.4253
12368TIP3   OH258594   3.678   2.969  16.166  0.0913 -0.1974  0.1371
12368TIP3    H158595   3.625   3.045  16.190  0.5303 -0.3317  1.6192
12368TIP3    H258596   3.703   2.930  16.250  0.0144 -1.8826 -0.5925
12369TIP3   OH258597   1.976   3.595  11.434 -0.0830  0.3521  0.2057
12369TIP3    H158598   2.049   3.549  11.476  0.1040  1.3765  1.0688
12369TIP3    H258599   1.921   3.526  11.398 -0.4228 -0.6402  2.4588
12370TIP3   OH258600   3.191   2.054   5.454 -0.4587 -0.1846 -0.4024
12370TIP3    H158601   3.164   1.963   5.441  0.0814 -0.1472 -1.9832
12370TIP3    H258602   3.254   2.071   5.384  1.2973  0.6908  1.2968
12371TIP3   OH258603   2.011   6.026  13.379 -0.4178  0.3562 -0.0199
12371TIP3    H158604   2.001   5.954  13.441 -1.1469  0.6164  0.1747
12371TIP3    H258605   2.098   6.061  13.397 -0.5646  0.3400  0.7559
12372TIP3   OH258606   2.568   4.278  17.027 -0.0086  0.1535 -0.2368
12372TIP3    H158607   2.487   4.328  17.025  0.2844  0.6174 -1.1970
12372TIP3    H258608   2.637   4.344  17.025  0.3919 -0.2553 -0.0793
12373TIP3   OH258609   4.442   0.064  17.032 -0.1793 -0.3185  0.4439
12373TIP3    H158610   4.533   0.089  17.019 -0.6518  1.5222  0.3589
12373TIP3    H258611   4.442   0.018  17.116  0.8140 -0.3361  0.4516
12374TIP3   OH258612   3.935   4.189  16.880 -0.4955  0.4653 -0.2301
12374TIP3    H158613   3.871   4.140  16.931  1.2822 -1.0963  0.6301
12374TIP3    H258614   4.020   4.154  16.909  0.6806  1.2345 -2.5402
12375TIP3   OH258615   3.808   6.024   1.055  0.0526  0.0568 -0.2588
12375TIP3    H158616   3.807   6.107   1.008 -1.5427  0.1592 -0.0862
12375TIP3    H258617   3.787   6.047   1.146 -0.5430 -0.5542 -0.2394
12376TIP3   OH258618   3.691   0.078   5.059  0.6630  0.3811 -0.0520
12376TIP3    H158619   3.770   0.082   5.006  0.0358 -1.9456 -1.2731
12376TIP3    H258620   3.708   0.138   5.132  2.7027  1.4654 -1.3454
12377TIP3   OH258621   5.578   2.954   1.973 -0.7367 -0.2255  0.4263
12377TIP3    H158622   5.504   2.992   1.926 -0.4804  1.5514  1.3724
12377TIP3    H258623   5.554   2.960   2.066  0.1866 -0.5020  0.7003
12378TIP3   OH258624   4.981   2.203  13.932  0.2434  0.2312 -0.1912
12378TIP3    H158625   4.973   2.291  13.896 -1.4966  0.7975  1.3738
12378TIP3    H258626   4.890   2.173  13.942  0.5529  0.0234  3.2719
12379TIP3   OH258627   5.077   2.499   1.087  0.1697 -0.2998  0.9349
12379TIP3    H158628   5.062   2.425   1.146  1.5094 -0.2996  1.3053
12379TIP3    H258629   5.042   2.469   1.003 -1.3715 -0.4623  1.5928
12380TIP3   OH258630   0.122   1.278  12.020  0.2133 -0.4602 -0.6408
12380TIP3    H158631   0.099   1.288  12.112  0.3108 -2.3505 -0.3690
12380TIP3    H258632   0.038   1.266  11.976  0.2740 -1.7439 -0.4524
12381TIP3   OH258633   1.022   0.614   2.884  0.4185 -0.1335 -0.3542
12381TIP3    H158634   0.994   0.545   2.944  0.5164 -0.7490 -1.0004
12381TIP3    H258635   0.948   0.625   2.824 -0.7920  2.3376  1.4200
12382TIP3   OH258636   5.994   4.660  16.253 -0.9852  0.2759 -0.4773
12382TIP3    H158637   5.933   4.636  16.183 -0.0479 -0.8192 -0.9411
12382TIP3    H258638   5.971   4.602  16.325 -1.1551  0.5676 -0.2958
12383TIP3   OH258639   6.792   0.226  13.770 -0.0464 -0.1109 -0.1709
12383TIP3    H158640   6.761   0.145  13.809  1.4562 -0.9218 -0.5910
12383TIP3    H258641   6.728   0.246  13.702 -0.0063 -1.4046 -0.6076
12384TIP3   OH258642   4.574   0.161  10.665 -0.5180 -0.3121  0.5143
12384TIP3    H158643   4.533   0.102  10.601  0.7704 -1.4041  0.6524
12384TIP3    H258644   4.510   0.230  10.678 -0.8586 -0.0615 -1.9496
12385TIP3   OH258645   1.429   0.196   2.626  0.1027 -0.4967  0.0694
12385TIP3    H158646   1.336   0.184   2.645  0.2232 -0.2789  0.8664
12385TIP3    H258647   1.446   0.288   2.646  0.4746 -0.5237 -0.1131
12386TIP3   OH258648   2.069   4.430  12.975  0.1207  0.5074  0.0375
12386TIP3    H158649   2.062   4.518  12.938  0.1911 -0.0113 -1.2280
12386TIP3    H258650   2.162   4.408  12.968 -0.0052  0.0706 -0.2425
12387TIP3   OH258651   6.680   4.594  14.762  0.4832  0.4697  0.5769
12387TIP3    H158652   6.590   4.626  14.759  0.7509  1.2107 -1.0035
12387TIP3    H258653   6.733   4.673  14.777  0.9539  0.2860 -0.0527
12388TIP3   OH258654   0.520   2.637   1.617  0.2845  1.1124  0.2694
12388TIP3    H158655   0.436   2.674   1.643  0.5222  1.4150  0.6203
12388TIP3    H258656   0.574   2.713   1.595  0.0590  0.8646 -1.2468
12389TIP3   OH258657   6.474   2.598   4.657  0.0962  0.6584  0.1748
12389TIP3    H158658   6.476   2.560   4.745 -0.2953 -0.1585 -0.1545
12389TIP3    H258659   6.381   2.603   4.636  0.1594 -2.4460 -1.5216
12390TIP3   OH258660   4.207   4.851   6.061  0.7262 -0.0108 -0.0507
12390TIP3    H158661   4.273   4.918   6.044 -0.6728  1.1296 -1.3296
12390TIP3    H258662   4.148   4.891   6.125  0.4739 -0.4658  0.0070
12391TIP3   OH258663   3.527   1.073  10.317  0.9648 -0.4349  0.2748
12391TIP3    H158664   3.442   1.107  10.289  0.6479 -1.5849 -0.2063
12391TIP3    H258665   3.524   0.980  10.296  1.7377 -0.8175  1.7139
12392TIP3   OH258666   1.758   3.673   2.748  0.2618 -0.1367 -0.9934
12392TIP3    H158667   1.716   3.745   2.795  0.2585 -0.3243 -0.7046
12392TIP3    H258668   1.698   3.599   2.758 -1.3587  0.5925 -3.9944
12393TIP3   OH258669   0.579   4.071  15.700  0.1691  0.2643  0.4213
12393TIP3    H158670   0.617   4.097  15.784  1.8024 -0.5177 -0.0286
12393TIP3    H258671   0.585   3.975  15.699  0.0886  0.2568 -0.5461
12394TIP3   OH258672   1.619   0.102  15.477  0.0951  0.2587  0.0399
12394TIP3    H158673   1.678   0.130  15.407 -0.0707  0.9608  0.1683
12394TIP3    H258674   1.555   0.045  15.434  0.1116  0.5292 -0.3475
12395TIP3   OH258675   6.741   2.338   0.076  0.5811  0.0441  0.7549
12395TIP3    H158676   6.648   2.325   0.056  0.3800 -0.1458  1.7541
12395TIP3    H258677   6.749   2.432   0.090  0.3168 -0.0591  1.6684
12396TIP3   OH258678   0.742   3.568   3.692  0.2683  0.2871 -0.3954
12396TIP3    H158679   0.667   3.626   3.680 -0.0069 -0.1381 -0.7352
12396TIP3    H258680   0.721   3.490   3.641  0.9836  0.2037 -0.5742
12397TIP3   OH258681   1.100   0.903   1.522 -0.4246 -0.0019 -0.2909
12397TIP3    H158682   1.122   0.967   1.590 -0.9986 -0.8434  0.7183
12397TIP3    H258683   1.104   0.952   1.440  0.8280  0.9032  0.2944
12398TIP3   OH258684   4.846   6.335  13.924  0.0739 -0.6925  0.0116
12398TIP3    H158685   4.766   6.356  13.973  2.2997  0.7982  3.3545
12398TIP3    H258686   4.889   6.268  13.977  1.2141 -1.2933 -1.6050
12399TIP3   OH258687   1.110   4.368  13.944  0.2783 -0.0968  0.0983
12399TIP3    H158688   1.091   4.284  13.986 -0.4475 -1.0987 -2.1199
12399TIP3    H258689   1.159   4.417  14.011 -1.4223 -1.2897  2.3587
12400TIP3   OH258690   2.620   4.777  15.543  0.0635  0.4303  0.4116
12400TIP3    H158691   2.692   4.827  15.581  0.0169 -0.5230  1.7991
12400TIP3    H258692   2.634   4.784  15.448  2.4572 -0.3982  0.6347
12401TIP3   OH258693   0.060   0.654   1.079  0.5796  0.6271  0.4398
12401TIP3    H158694   0.075   0.748   1.074  1.8760  0.4850  1.2047
12401TIP3    H258695   0.026   0.630   0.993 -0.3543  1.8752  0.4396
12402TIP3   OH258696   1.066   6.006  10.888  0.3091 -0.2467  0.1310
12402TIP3    H158697   1.053   5.923  10.934 -0.0087 -0.3450 -0.1385
12402TIP3    H258698   1.146   5.993  10.838 -0.0614 -0.5973 -0.3765
12403TIP3   OH258699   2.017   3.375   6.451  0.1488  0.3773 -0.2085
12403TIP3    H158700   1.996   3.301   6.508  2.2557  0.8114  1.2482
12403TIP3    H258701   2.101   3.352   6.412  0.1562  1.4010 -0.8163
12404TIP3   OH258702   3.434   6.207   6.331 -0.2841  0.0450  0.4891
12404TIP3    H158703   3.356   6.230   6.281  0.9189  1.9209 -0.6643
12404TIP3    H258704   3.477   6.290   6.347  1.4797 -0.9333  1.0896
12405TIP3   OH258705   3.439   3.557  17.094 -0.3474 -0.1529  0.3474
12405TIP3    H158706   3.377   3.626  17.069  1.7070  0.5362 -3.8660
12405TIP3    H258707   3.524   3.588  17.061  1.3496 -3.1868  1.4288
12406TIP3   OH258708   3.574   3.267   2.950 -0.4465 -0.0404 -0.3002
12406TIP3    H158709   3.522   3.275   3.030 -0.9073 -0.4613 -0.5519
12406TIP3    H258710   3.601   3.357   2.929  1.3227 -0.1135  1.3932
12407TIP3   OH258711   1.472   4.784  15.043 -0.3437  0.1211 -0.2050
12407TIP3    H158712   1.469   4.730  15.122 -0.3039  2.4698  1.5296
12407TIP3    H258713   1.562   4.816  15.039 -0.3782  0.1149 -1.1411
12408TIP3   OH258714   3.150   1.384  15.115 -0.2933 -0.7431 -0.2514
12408TIP3    H158715   3.080   1.440  15.148  1.2846  2.2210 -1.5745
12408TIP3    H258716   3.136   1.381  15.020  1.4160  0.0916 -0.5740
12409TIP3   OH258717   2.695   3.793   4.917  0.1632  0.2044  0.0184
12409TIP3    H158718   2.758   3.761   4.981  0.6122  0.0634 -0.4834
12409TIP3    H258719   2.611   3.758   4.946  0.6635 -1.6892 -0.6541
12410TIP3   OH258720   3.325   4.889  11.750 -0.4017 -0.6398 -0.0533
12410TIP3    H158721   3.377   4.938  11.686  1.5575 -1.8720  0.4927
12410TIP3    H258722   3.264   4.954  11.786  0.1805  0.6804 -1.3424
12411TIP3   OH258723   0.307   2.754   3.682  0.3761 -0.1851 -0.2730
12411TIP3    H158724   0.364   2.826   3.654 -0.0153 -0.4217 -1.7543
12411TIP3    H258725   0.326   2.683   3.622 -1.2228 -0.3875 -0.5809
12412TIP3   OH258726   4.484   3.827   4.097 -0.5462  0.0822 -0.0584
12412TIP3    H158727   4.488   3.777   4.016  0.4717 -1.3840  0.8633
12412TIP3    H258728   4.399   3.805   4.134 -1.5846  1.7519 -1.2860
12413TIP3   OH258729   6.671   3.717   1.313  0.3072 -0.1307  0.6339
12413TIP3    H158730   6.639   3.801   1.346 -0.2531 -0.5084  1.0639
12413TIP3    H258731   6.603   3.654   1.335  0.6552 -0.6818  0.1878
12414TIP3   OH258732   6.362   4.201  11.352  0.5008  0.5839 -0.3175
12414TIP3    H158733   6.384   4.270  11.415 -0.7661  0.1730  0.6068
12414TIP3    H258734   6.271   4.217  11.329  0.4068 -0.3514 -0.6371
12415TIP3   OH258735   2.361   1.791  11.902  0.1705 -0.1601  0.3417
12415TIP3    H158736   2.418   1.867  11.890  1.2541 -1.0026 -0.0117
12415TIP3    H258737   2.302   1.792  11.827 -0.0215  0.4884  0.4948
12416TIP3   OH258738   4.349   4.736   3.365  0.3826  0.4441  0.5579
12416TIP3    H158739   4.391   4.763   3.284  0.5039 -0.0908  0.4395
12416TIP3    H258740   4.398   4.659   3.394 -0.6328 -0.3148  0.3068
12417TIP3   OH258741   5.950   3.426   1.765  0.1133  0.3464  0.1705
12417TIP3    H158742   5.951   3.378   1.682  1.3022  2.0043 -0.8230
12417TIP3    H258743   5.920   3.361   1.829  0.7221 -1.4347 -1.2533
12418TIP3   OH258744   3.086   0.001   4.916  0.4748 -0.0290 -0.2420
12418TIP3    H158745   2.998   0.011   4.879  1.1477  1.1943 -1.6309
12418TIP3    H258746   3.092   0.071   4.981  0.4016 -0.1563 -0.0974
12419TIP3   OH258747   4.001   1.369  12.124  0.4257  0.0978  0.0536
12419TIP3    H158748   3.917   1.395  12.086  1.0543  0.6001 -0.9987
12419TIP3    H258749   4.049   1.451  12.137  0.3477 -0.0716  1.7036
12420TIP3   OH258750   5.273   6.477  13.994 -0.7214  0.0665 -1.0006
12420TIP3    H158751   5.283   6.433  14.079  0.5593  0.4684 -0.9192
12420TIP3    H258752   5.178   6.484  13.982 -0.9360  0.6389  0.7384
12421TIP3   OH258753   3.730   2.616   1.745  0.0067  0.3376 -0.3118
12421TIP3    H158754   3.653   2.598   1.691  0.7192 -0.1348 -1.2076
12421TIP3    H258755   3.781   2.680   1.695  0.7108 -0.1544 -0.2532
12422TIP3   OH258756   3.611   3.488  13.751 -0.2326  0.1423  0.0156
12422TIP3    H158757   3.545   3.544  13.710  0.6737  2.9497  2.0743
12422TIP3    H258758   3.560   3.419  13.794 -1.5594  0.4117 -1.0305
12423TIP3   OH258759   2.898   5.184   1.418  0.2018  0.1633  0.0127
12423TIP3    H158760   2.961   5.146   1.480 -2.8009 -2.8841  1.5590
12423TIP3    H258761   2.840   5.238   1.472 -0.3519  0.3838 -0.7837
12424TIP3   OH258762   4.617   2.216   2.572  0.1047 -0.4673 -0.0265
12424TIP3    H158763   4.624   2.143   2.635  1.8323  0.2324  0.6467
12424TIP3    H258764   4.692   2.205   2.515 -0.3169  0.0970 -0.6994
12425TIP3   OH258765   6.389   2.828   1.742  0.4966  0.1594 -0.6640
12425TIP3    H158766   6.356   2.900   1.687  1.3834 -1.0369 -2.8744
12425TIP3    H258767   6.483   2.825   1.724  0.5645 -1.1983 -0.1545
12426TIP3   OH258768   0.719   4.654   6.574  0.1433 -0.2217 -0.0744
12426TIP3    H158769   0.779   4.687   6.506 -1.4815  1.4770 -0.7664
12426TIP3    H258770   0.704   4.563   6.550  0.6021 -0.0123 -1.2560
12427TIP3   OH258771   2.541   6.094   1.960  0.3111 -0.9243 -0.3991
12427TIP3    H158772   2.502   6.087   2.047  0.9943  0.1945  0.0192
12427TIP3    H258773   2.564   6.186   1.951 -1.6795 -0.5448 -2.6317
12428TIP3   OH258774   3.279   6.112  14.370  0.7078 -0.1785  0.5612
12428TIP3    H158775   3.347   6.045  14.365  0.3809 -0.4376 -1.3602
12428TIP3    H258776   3.324   6.192  14.396  1.6913 -0.4379 -0.3019
12429TIP3   OH258777   5.619   0.100  11.994 -0.3229 -0.0378 -0.1401
12429TIP3    H158778   5.666   0.087  11.911 -3.0672 -1.8416 -1.5708
12429TIP3    H258779   5.614   0.013  12.032 -1.9316  0.2047  0.2459
12430TIP3   OH258780   2.341   3.765   5.862  0.5224  0.0209  0.3912
12430TIP3    H158781   2.267   3.813   5.900  0.9144 -0.1052  1.3322
12430TIP3    H258782   2.342   3.792   5.770 -1.9014 -1.4451 -0.1659
12431TIP3   OH258783   3.224   1.551   1.241 -0.3680  0.0440 -0.0114
12431TIP3    H158784   3.158   1.513   1.184  0.0324 -0.9243  0.1493
12431TIP3    H258785   3.213   1.506   1.324  0.1138  0.2931  0.1951
12432TIP3   OH258786   5.536   5.477   0.258 -0.0754  0.3000 -0.2699
12432TIP3    H158787   5.626   5.448   0.269 -0.2814 -0.0530  0.5967
12432TIP3    H258788   5.493   5.404   0.213  0.1075  0.5437 -0.8464
12433TIP3   OH258789   4.216   5.382   0.464 -0.8528  0.8384  0.0852
12433TIP3    H158790   4.224   5.316   0.395  1.2917 -1.4355  2.2822
12433TIP3    H258791   4.125   5.377   0.493 -0.7063 -1.2879  0.2770
12434TIP3   OH258792   3.256   5.854   5.025 -0.0844 -0.2784 -0.2078
12434TIP3    H158793   3.253   5.950   5.022  2.8713 -0.0779  0.2167
12434TIP3    H258794   3.184   5.831   5.084 -0.2828  1.7562  0.4559
12435TIP3   OH258795   3.152   1.847  15.906  0.0070  0.0696 -0.2019
12435TIP3    H158796   3.083   1.792  15.945  0.2084  0.0898  0.1965
12435TIP3    H258797   3.150   1.826  15.813 -1.1831  0.7819 -0.3472
12436TIP3   OH258798   1.066   3.842   6.198 -0.0098  0.0557  0.3903
12436TIP3    H158799   0.987   3.797   6.228 -0.7124  0.4227 -0.8481
12436TIP3    H258800   1.041   3.934   6.194  0.6298  0.2372  0.4131
12437TIP3   OH258801   1.451   0.586   1.930 -0.0663  0.1037 -0.5746
12437TIP3    H158802   1.425   0.511   1.983 -0.9677  1.0870  0.4279
12437TIP3    H258803   1.408   0.572   1.845 -2.2560  0.6526  0.3775
12438TIP3   OH258804   5.850   6.555  12.042  0.2395  0.3058  0.0770
12438TIP3    H158805   5.814   6.573  11.955 -0.5439 -2.2877 -0.2217
12438TIP3    H258806   5.898   6.473  12.032 -2.2164 -1.6362  2.5788
12439TIP3   OH258807   0.263   6.090   2.847 -0.3594  0.2133  0.1003
12439TIP3    H158808   0.193   6.025   2.837 -0.7997  0.4320  1.4617
12439TIP3    H258809   0.289   6.112   2.758 -2.0615  0.1634 -0.4403
12440TIP3   OH258810   2.958   3.141  13.561  0.5178  0.1357 -0.2055
12440TIP3    H158811   2.874   3.186  13.568  0.8133  0.9719 -1.7220
12440TIP3    H258812   3.021   3.201  13.601  0.5273 -0.1603  0.2400
12441TIP3   OH258813   2.520   0.333  14.502 -0.1978  0.2376  0.3638
12441TIP3    H158814   2.606   0.301  14.474 -0.9908 -1.5688 -0.0936
12441TIP3    H258815   2.488   0.384  14.427  1.7793  3.8416  1.6890
12442TIP3   OH258816   1.657   1.703  14.554  0.1713 -0.2389 -0.2557
12442TIP3    H158817   1.646   1.780  14.498 -0.2377  0.9157  1.3315
12442TIP3    H258818   1.580   1.649  14.536  0.5322 -0.3758 -1.4891
12443TIP3   OH258819   0.243   6.350   0.984  0.5719 -0.4937  0.9108
12443TIP3    H158820   0.310   6.353   0.916  1.1408 -0.0377  1.4888
12443TIP3    H258821   0.210   6.260   0.981 -0.1535 -0.2257 -0.6695
12444TIP3   OH258822   1.017   2.839  12.723 -0.2485  0.2215  0.0674
12444TIP3    H158823   1.009   2.904  12.653  2.9269  0.9128  0.1867
12444TIP3    H258824   0.961   2.767  12.695 -0.1703  1.0451 -2.4899
12445TIP3   OH258825   1.335   4.691  15.763 -0.1856  0.0496 -0.2156
12445TIP3    H158826   1.291   4.637  15.829  0.6820  0.7278  0.9496
12445TIP3    H258827   1.273   4.761  15.745 -0.1010  0.3187  0.5054
12446TIP3   OH258828   4.638   5.225   3.784 -0.1937  0.6242  0.4835
12446TIP3    H158829   4.617   5.305   3.736  1.0213  1.8842  1.9644
12446TIP3    H258830   4.730   5.234   3.806 -0.3730 -0.5670  1.8399
12447TIP3   OH258831   6.512   0.945  16.836 -0.1809 -0.0025 -0.3204
12447TIP3    H158832   6.598   0.967  16.872  0.0915 -1.3116 -0.1219
12447TIP3    H258833   6.511   0.987  16.750  1.2227 -1.0786 -0.9066
12448TIP3   OH258834   3.067   3.142  14.421 -0.5205  0.0601 -0.3338
12448TIP3    H158835   3.033   3.203  14.485 -0.4444  0.2613 -0.4833
12448TIP3    H258836   2.989   3.108  14.376 -0.5708 -0.0523 -0.1639
12449TIP3   OH258837   1.527   4.169   0.521 -0.4736  0.4358  0.0390
12449TIP3    H158838   1.588   4.171   0.447 -0.7056 -1.2519 -0.2587
12449TIP3    H258839   1.500   4.077   0.526 -2.8125  1.0675  0.3164
12450TIP3   OH258840   3.739   3.705   6.055  0.0724  0.1005 -0.1989
12450TIP3    H158841   3.690   3.623   6.046 -0.3736  0.3842 -0.3830
12450TIP3    H258842   3.830   3.680   6.038 -0.1920 -0.1638 -1.3627
12451TIP3   OH258843   3.664   5.979  16.821  0.4691 -0.1691 -0.1903
12451TIP3    H158844   3.604   6.050  16.798  1.0667  0.9973  1.6172
12451TIP3    H258845   3.608   5.904  16.840 -0.3589  0.5627  0.3215
12452TIP3   OH258846   4.834   2.439   0.875  0.1225  0.1687 -0.1484
12452TIP3    H158847   4.823   2.429   0.969  1.7637  0.8424  0.1465
12452TIP3    H258848   4.814   2.353   0.839 -1.4384  0.1403  0.6937
12453TIP3   OH258849   5.265   3.197  12.029  0.2822 -0.0747 -1.1756
12453TIP3    H158850   5.280   3.285  12.065 -0.0915  1.3201 -4.1057
12453TIP3    H258851   5.353   3.165  12.007  0.3354  0.0329 -1.1193
12454TIP3   OH258852   1.071   2.726   5.663 -0.1326 -0.0494 -0.1294
12454TIP3    H158853   1.085   2.820   5.653  0.9804 -0.0760  0.9200
12454TIP3    H258854   1.131   2.700   5.733  0.7671 -1.8120 -1.4695
12455TIP3   OH258855   6.247   1.786   3.296 -0.0387  0.5595  0.0142
12455TIP3    H158856   6.325   1.744   3.333 -0.1934  1.2152  1.1174
12455TIP3    H258857   6.239   1.748   3.208 -0.1915 -1.7251  0.9485
12456TIP3   OH258858   1.816   1.590  10.695  0.4759 -0.3008  0.0231
12456TIP3    H158859   1.846   1.587  10.785 -0.2718 -1.5420  0.2518
12456TIP3    H258860   1.851   1.511  10.655  2.3074  1.0950 -1.3098
12457TIP3   OH258861   3.233   3.538  12.079 -0.0127 -0.1941 -0.1353
12457TIP3    H158862   3.206   3.454  12.040  1.0866 -1.5488  1.8180
12457TIP3    H258863   3.262   3.515  12.168 -1.3308  2.5446  1.1153
12458TIP3   OH258864   6.211   5.204   1.430  0.1786 -0.1582 -0.6112
12458TIP3    H158865   6.166   5.288   1.417 -0.3395 -0.7208 -2.9322
12458TIP3    H258866   6.145   5.148   1.470 -0.9304 -0.6274 -2.9130
12459TIP3   OH258867   2.938   0.665   4.345 -0.4428 -0.1605 -0.0197
12459TIP3    H158868   3.008   0.610   4.382 -0.6694  1.9449  4.1215
12459TIP3    H258869   2.857   0.624   4.376 -0.6575  1.4043  1.7011
12460TIP3   OH258870   1.963   6.588   3.508  0.3370 -0.4901  0.3019
12460TIP3    H158871   1.987   6.633   3.427  2.1087 -0.0223  1.0413
12460TIP3    H258872   1.911   6.512   3.479  0.1907  0.1495 -1.1846
12461TIP3   OH258873   4.096   6.699   4.663  0.4205 -0.1789 -0.2645
12461TIP3    H158874   4.005   6.698   4.635 -1.0055 -1.0689  3.7134
12461TIP3    H258875   4.127   6.609   4.649 -0.5398 -0.8380  1.5278
12462TIP3   OH258876   0.522   4.752  15.354  0.4197  0.4862 -0.4566
12462TIP3    H158877   0.449   4.809  15.378  1.2987  0.7164  1.9060
12462TIP3    H258878   0.553   4.788  15.271 -1.6435  0.8267 -1.1558
12463TIP3   OH258879   5.469   3.825  15.411 -0.6636 -0.9219 -0.4270
12463TIP3    H158880   5.388   3.848  15.457 -0.8266 -1.8863 -0.2153
12463TIP3    H258881   5.474   3.730  15.416  0.8507 -0.8404  0.1708
12464TIP3   OH258882   2.515   2.986  15.650 -0.0364 -1.0444  0.1610
12464TIP3    H158883   2.526   2.947  15.563  0.2319 -1.6346  0.4575
12464TIP3    H258884   2.601   2.979  15.690  0.4398  1.2601 -0.3410
12465TIP3   OH258885   5.521   1.776   5.043 -0.3061 -0.4994  0.2092
12465TIP3    H158886   5.605   1.731   5.046 -0.2662 -0.4366  0.0654
12465TIP3    H258887   5.474   1.735   4.970 -0.5708 -0.8268  0.5609
12466TIP3   OH258888   3.559   1.018  13.755  0.2793  0.4162 -0.7304
12466TIP3    H158889   3.484   1.046  13.701 -0.9581 -0.0837  0.6601
12466TIP3    H258890   3.579   1.094  13.809  0.4452  0.3718 -0.7292
12467TIP3   OH258891   6.834   0.693  16.108 -0.1516 -0.4344  0.6776
12467TIP3    H158892   6.743   0.664  16.105  0.4707 -2.6315  0.9248
12467TIP3    H258893   6.849   0.718  16.199 -0.2550 -1.0090  0.8562
12468TIP3   OH258894   5.669   2.348  15.602  0.2578 -0.1508  0.5754
12468TIP3    H158895   5.672   2.297  15.521  0.9991 -0.0227  0.5130
12468TIP3    H258896   5.606   2.302  15.657 -0.2038 -0.2795 -0.0442
12469TIP3   OH258897   1.119   5.979   6.375  0.4564  0.5017  0.1454
12469TIP3    H158898   1.151   6.069   6.382  1.8226 -0.0599  2.0190
12469TIP3    H258899   1.072   5.977   6.292 -0.5153  3.2011  0.5161
12470TIP3   OH258900   5.917   5.970  13.415 -0.1002 -0.2719  0.3937
12470TIP3    H158901   5.987   5.909  13.390  2.1376  1.6141  1.6270
12470TIP3    H258902   5.838   5.932  13.377  1.6254 -2.2967 -1.4954
12471TIP3   OH258903   3.169   3.499  15.016  0.0248 -0.1846  0.1650
12471TIP3    H158904   3.139   3.503  14.925  1.3219 -1.1095 -0.3228
12471TIP3    H258905   3.238   3.433  15.016  2.3242  2.0553  1.1654
12472TIP3   OH258906   5.494   5.187   2.853  1.0242 -0.0702  0.0043
12472TIP3    H158907   5.565   5.155   2.797  1.9311  1.2296  0.3597
12472TIP3    H258908   5.516   5.279   2.870  0.0786 -0.0744  1.4245
12473TIP3   OH258909   2.745   4.008   1.831 -0.1441  0.3998 -0.3466
12473TIP3    H158910   2.826   4.038   1.789  1.0039 -0.5196  1.1081
12473TIP3    H258911   2.743   3.913   1.813 -0.7235  0.3597 -0.0824
12474TIP3   OH258912   4.477   4.679  16.242  0.1338  0.4685 -0.2524
12474TIP3    H158913   4.543   4.615  16.218 -0.4027 -0.8722  1.6439
12474TIP3    H258914   4.405   4.663  16.181  0.7223  0.5413 -0.9820
12475TIP3   OH258915   5.148   2.374  12.577 -0.6140 -0.2600  0.2591
12475TIP3    H158916   5.114   2.462  12.594  1.9157  0.5856  1.3990
12475TIP3    H258917   5.132   2.326  12.658 -1.8896 -0.8752 -0.3230
12476TIP3   OH258918   1.767   2.815  11.356  0.1872  0.2220 -0.1131
12476TIP3    H158919   1.859   2.835  11.338 -0.4739  1.9247 -2.0365
12476TIP3    H258920   1.732   2.896  11.392 -0.2006 -1.0131  2.5625
12477TIP3   OH258921   0.503   6.123  12.352 -0.4284 -0.5200 -0.0346
12477TIP3    H158922   0.472   6.093  12.267 -0.0603 -2.7070  0.5219
12477TIP3    H258923   0.599   6.120  12.345 -0.3093  2.1804 -0.4367
12478TIP3   OH258924   6.766   0.127  10.861 -0.0963 -0.6852 -0.2175
12478TIP3    H158925   6.796   0.045  10.822 -0.2249 -0.8130 -0.0453
12478TIP3    H258926   6.672   0.116  10.872  0.1577 -1.2571  1.5916
12479TIP3   OH258927   2.931   5.406  13.749 -0.1201  0.1430 -1.0827
12479TIP3    H158928   2.940   5.369  13.662  0.6008  0.3024 -1.0819
12479TIP3    H258929   2.981   5.348  13.806 -0.1602  0.3250 -0.8549
12480TIP3   OH258930   3.804   3.093  14.817  0.7569  0.3626 -0.4938
12480TIP3    H158931   3.829   3.000  14.821 -1.8062 -0.5214 -2.1892
12480TIP3    H258932   3.762   3.110  14.901  0.9350 -0.1057 -0.3055
12481TIP3   OH258933   2.017   4.836  12.296 -0.0556  0.3232 -0.2987
12481TIP3    H158934   1.951   4.820  12.229  1.5342 -1.5667 -1.5135
12481TIP3    H258935   1.971   4.819  12.379 -1.1252 -0.8704 -1.0893
12482TIP3   OH258936   1.641   3.185   1.394 -0.3339  0.5018 -0.0576
12482TIP3    H158937   1.632   3.164   1.487  0.8083  2.6856  0.6144
12482TIP3    H258938   1.597   3.269   1.383 -1.0095 -0.0149 -1.6702
12483TIP3   OH258939   3.064   2.622  12.226  0.5838  0.4731  0.3313
12483TIP3    H158940   3.010   2.605  12.148  2.5738  1.1701 -1.3035
12483TIP3    H258941   3.022   2.573  12.296 -2.1266  0.9774 -0.8241
12484TIP3   OH258942   5.029   0.899  11.259  0.4793 -0.3312 -0.1892
12484TIP3    H158943   5.032   0.812  11.220  0.8556 -0.1950 -0.4792
12484TIP3    H258944   5.012   0.958  11.185 -0.7301 -0.2335  0.1390
12485TIP3   OH258945   1.056   6.782   4.082  0.0598  0.1311 -0.3043
12485TIP3    H158946   1.152   6.784   4.076  0.0362  1.9748 -0.7011
12485TIP3    H258947   1.033   6.867   4.119 -1.4695 -0.0361 -0.8239
12486TIP3   OH258948   3.905   5.320   5.866 -0.2839  0.0164  0.3217
12486TIP3    H158949   3.861   5.290   5.786 -1.1379 -0.4454  0.9487
12486TIP3    H258950   3.998   5.310   5.847 -0.4799 -0.2014 -0.5767
12487TIP3   OH258951   4.672   3.659  15.288 -0.4031 -0.5518  0.2783
12487TIP3    H158952   4.604   3.628  15.348  0.2184 -1.5615  0.4973
12487TIP3    H258953   4.707   3.738  15.329 -0.5773 -0.7451  0.8091
12488TIP3   OH258954   6.036   4.538  10.376 -0.2553  0.4178  0.4205
12488TIP3    H158955   6.066   4.601  10.440 -0.2326 -0.1283  0.9567
12488TIP3    H258956   5.965   4.491  10.419  0.2642 -0.4757  0.3472
12489TIP3   OH258957   1.797   4.352  12.994  0.3496 -0.3330 -0.0351
12489TIP3    H158958   1.749   4.347  12.911 -1.1639  2.2455  0.5771
12489TIP3    H258959   1.886   4.375  12.969 -0.5571  2.5741 -0.9720
12490TIP3   OH258960   3.871   5.318   6.545  0.6003  0.4609 -0.1455
12490TIP3    H158961   3.783   5.301   6.513  0.4463 -0.3594  0.6635
12490TIP3    H258962   3.928   5.261   6.494  0.4583 -0.1990  0.4143
12491TIP3   OH258963   0.271   0.171   3.727 -0.1743  0.0583  0.5502
12491TIP3    H158964   0.320   0.102   3.770 -0.5456 -0.0222  0.8489
12491TIP3    H258965   0.193   0.127   3.692 -0.8903  0.4775  1.5542
12492TIP3   OH258966   0.949   6.725  13.379 -0.1848  0.0061 -0.0002
12492TIP3    H158967   0.922   6.667  13.449  0.0360 -0.6833 -0.4799
12492TIP3    H258968   0.867   6.761  13.344 -0.3715 -0.6185 -0.2120
12493TIP3   OH258969   2.596   1.106   0.157 -0.0803 -0.2385  0.1256
12493TIP3    H158970   2.539   1.052   0.211 -1.0892 -0.0778 -0.7608
12493TIP3    H258971   2.647   1.043   0.106  0.9159 -0.3933  1.2549
12494TIP3   OH258972   4.890   1.790   1.471  0.1125  0.3471 -0.4006
12494TIP3    H158973   4.802   1.811   1.501  0.7794  3.7110 -0.3363
12494TIP3    H258974   4.879   1.720   1.407 -2.2843 -0.9673  1.3225
12495TIP3   OH258975   2.785   0.098  16.462 -0.3833  0.2149  0.3410
12495TIP3    H158976   2.781   0.025  16.400  0.3825 -0.2873  0.8601
12495TIP3    H258977   2.729   0.071  16.535 -1.4306  0.8849 -0.1891
12496TIP3   OH258978   0.607   3.756   3.328 -0.0102  0.5065 -0.5218
12496TIP3    H158979   0.655   3.685   3.285 -1.6007 -1.1405  0.3247
12496TIP3    H258980   0.515   3.737   3.311 -0.4764  2.5819 -0.5599
12497TIP3   OH258981   1.148   4.892  15.726  0.2036 -0.7320  0.4058
12497TIP3    H158982   1.101   4.971  15.697 -0.0242 -0.8132  0.5492
12497TIP3    H258983   1.110   4.872  15.811 -1.0492 -2.0633 -0.4105
12498TIP3   OH258984   0.466   5.825  10.704  0.4312 -0.0647 -0.4795
12498TIP3    H158985   0.511   5.765  10.644 -0.2544 -0.1389 -0.9333
12498TIP3    H258986   0.374   5.820  10.678  0.4317  1.6228 -0.8895
12499TIP3   OH258987   5.443   1.309   4.088  0.1201  1.0154  0.2717
12499TIP3    H158988   5.479   1.395   4.067  2.1060  0.0452 -0.5639
12499TIP3    H258989   5.476   1.290   4.175  0.5115  0.7012  0.0583
12500TIP3   OH258990   2.843   1.830   2.407 -0.4225 -0.5006 -0.6330
12500TIP3    H158991   2.758   1.872   2.393 -1.5593 -2.6925 -0.7114
12500TIP3    H258992   2.822   1.748   2.451  1.7634 -0.7170  0.1366
12501TIP3   OH258993   3.796   2.390  15.398  0.2746  0.4970  0.5612
12501TIP3    H158994   3.747   2.436  15.466  0.3789 -0.7021  1.4668
12501TIP3    H258995   3.728   2.345  15.346  0.3594 -1.3918  1.9830
12502TIP3   OH258996   2.867   4.228   6.058 -0.0281 -0.0080 -0.0372
12502TIP3    H158997   2.790   4.241   6.002  0.5921  0.5434 -0.7670
12502TIP3    H258998   2.850   4.284   6.134 -0.3073  0.1809 -0.2355
12503TIP3   OH258999   5.724   3.752   3.974 -0.0879  0.4351  0.3401
12503TIP3    H159000   5.748   3.689   3.907 -1.9683  0.4553 -0.4273
12503TIP3    H259001   5.703   3.699   4.051 -0.1931  0.2412  0.1776
12504TIP3   OH259002   2.546   0.712  14.618 -0.0410 -0.5083  0.0770
12504TIP3    H159003   2.552   0.767  14.696 -0.8788 -1.7723  1.0781
12504TIP3    H259004   2.461   0.669  14.625  0.5020 -1.7913 -0.7544
12505TIP3   OH259005   1.941   6.612  16.159  0.1791  0.7083  0.2142
12505TIP3    H159006   1.952   6.549  16.088  0.6743  2.1748 -1.0557
12505TIP3    H259007   1.959   6.697  16.120 -0.1962  1.6454  1.9428
12506TIP3   OH259008   0.511   6.030  15.237  0.6344 -0.8874 -0.3358
12506TIP3    H159009   0.498   5.977  15.158 -2.2918 -0.1607 -0.4547
12506TIP3    H259010   0.565   5.975  15.293  0.1002 -2.8192 -1.5788
12507TIP3   OH259011   3.053   0.736   5.838  0.6112  0.1950 -0.3571
12507TIP3    H159012   3.009   0.727   5.754  0.0539 -0.5249  0.0031
12507TIP3    H259013   3.066   0.831   5.848  0.1322  0.3313 -0.9722
12508TIP3   OH259014   2.772   5.818  14.950  0.3009  0.1321 -0.0060
12508TIP3    H159015   2.700   5.755  14.952  0.5000 -0.0937  0.0200
12508TIP3    H259016   2.805   5.814  14.860  1.8181 -1.5024  0.5791
12509TIP3   OH259017   6.328   1.922   2.798  0.1801 -0.5647  0.1757
12509TIP3    H159018   6.287   1.943   2.713  1.1826 -2.1855 -0.7488
12509TIP3    H259019   6.294   1.836   2.820  0.3391 -0.3743  1.1856
12510TIP3   OH259020   0.098   5.067  14.412  0.5629 -0.0178 -0.0593
12510TIP3    H159021   0.147   5.130  14.360  1.5313  0.0394  0.8929
12510TIP3    H259022   0.029   5.119  14.454  1.5884  0.5201  1.0209
12511TIP3   OH259023   6.114   1.791   2.326 -0.1867 -0.6877 -0.0828
12511TIP3    H159024   6.119   1.758   2.237 -2.8749 -4.0264  0.8077
12511TIP3    H259025   6.023   1.822   2.335 -0.5570 -2.1455  1.9357
12512TIP3   OH259026   6.375   5.829  13.620  0.1987 -0.1750  0.1551
12512TIP3    H159027   6.288   5.790  13.630  0.2864 -0.8769 -1.4853
12512TIP3    H259028   6.422   5.804  13.699 -1.0507  0.1335  1.0235
12513TIP3   OH259029   3.735   1.245   2.692  0.3289  0.3749  0.3584
12513TIP3    H159030   3.659   1.221   2.640  0.5398  1.3388 -0.4181
12513TIP3    H259031   3.701   1.301   2.761 -0.0519 -1.4379  1.7220
12514TIP3   OH259032   0.193   5.064   0.445 -1.1895  0.1205  0.1025
12514TIP3    H159033   0.226   5.075   0.534 -2.8967 -2.2878  1.1265
12514TIP3    H259034   0.098   5.057   0.454 -1.3218 -1.3487 -1.7321
12515TIP3   OH259035   1.634   1.333   4.961 -0.0848 -0.1369 -0.1788
12515TIP3    H159036   1.654   1.338   4.868 -0.4841  0.5339 -0.2353
12515TIP3    H259037   1.595   1.418   4.982 -0.5274 -0.4939  0.4773
12516TIP3   OH259038   5.620   1.678   6.428 -0.2539  0.2292  0.0582
12516TIP3    H159039   5.584   1.763   6.402  1.0684  0.2176 -2.0268
12516TIP3    H259040   5.698   1.699   6.479  0.3909  0.2988 -0.9353
12517TIP3   OH259041   0.737   2.348  12.955 -0.3761 -0.0925  0.3376
12517TIP3    H159042   0.662   2.405  12.936  0.2037  0.7948  0.6617
12517TIP3    H259043   0.705   2.259  12.935 -1.1664  0.3718 -0.5596
12518TIP3   OH259044   4.770   4.266  16.547  0.3536  0.8531  0.2556
12518TIP3    H159045   4.841   4.209  16.518 -0.8130 -0.8061  0.5195
12518TIP3    H259046   4.721   4.286  16.468  0.4370  1.0404  0.2500
12519TIP3   OH259047   2.078   3.527  13.042 -0.1763 -0.2942 -0.1659
12519TIP3    H159048   2.130   3.548  12.965  2.1812 -0.3453  1.3208
12519TIP3    H259049   2.008   3.593  13.043  0.3895  0.3648 -1.7242
12520TIP3   OH259050   4.942   0.092  13.969 -0.3685  0.2348 -0.2347
12520TIP3    H159051   5.011   0.068  14.031  0.5600  0.9674 -0.9481
12520TIP3    H259052   4.879   0.021  13.974 -0.7654  0.6695  2.1693
12521TIP3   OH259053   6.123   5.799  13.331  0.0353 -0.1936 -0.3464
12521TIP3    H159054   6.172   5.862  13.277 -0.9794 -1.1451 -2.5218
12521TIP3    H259055   6.188   5.733  13.355  0.7919  0.8939  0.7794
12522TIP3   OH259056   1.487   2.677  12.417  0.0807  0.5941 -0.5796
12522TIP3    H159057   1.461   2.715  12.332 -0.5241  2.4082  0.3616
12522TIP3    H259058   1.405   2.656  12.460  0.3621  0.3673 -0.1553
12523TIP3   OH259059   1.254   3.438   0.733 -0.0076  0.0799 -0.1633
12523TIP3    H159060   1.329   3.447   0.793 -0.7985  0.8896  0.7280
12523TIP3    H259061   1.256   3.346   0.707  0.4242 -0.2701  1.0356
12524TIP3   OH259062   5.034   5.711  16.830 -0.0588  0.1309  0.8051
12524TIP3    H159063   4.973   5.639  16.844  2.0235 -2.7009 -2.8605
12524TIP3    H259064   5.092   5.708  16.907  0.2435 -2.5085  0.5645
12525TIP3   OH259065   3.934   1.509   4.370 -0.4614  0.0179 -0.4358
12525TIP3    H159066   3.913   1.459   4.292 -1.3807 -0.1842 -0.0731
12525TIP3    H259067   3.934   1.600   4.341  0.0170 -0.1042 -0.8347
12526TIP3   OH259068   4.027   6.670  13.199  0.1757  0.3916 -0.1096
12526TIP3    H159069   4.111   6.694  13.238 -0.3374 -0.8255  1.9258
12526TIP3    H259070   3.971   6.746  13.213  0.8098  1.0641 -1.1388
12527TIP3   OH259071   4.251   4.462  16.684 -0.1469 -0.2489  0.6373
12527TIP3    H159072   4.313   4.430  16.749  0.2888 -0.6268  0.0423
12527TIP3    H259073   4.263   4.557  16.683 -0.4622 -0.1957  1.4101
12528TIP3   OH259074   4.246   5.276  16.049  0.1947  0.1738  0.1035
12528TIP3    H159075   4.156   5.302  16.030  0.1744 -1.3307 -2.2011
12528TIP3    H259076   4.298   5.314  15.978  1.3598  0.6210  1.1379
12529TIP3   OH259077   5.758   1.608  15.927 -0.4370  0.2779 -0.0931
12529TIP3    H159078   5.783   1.700  15.921 -2.1737  0.7193 -1.1075
12529TIP3    H259079   5.786   1.570  15.843  1.7564 -0.5760  0.9313
12530TIP3   OH259080   0.628   1.995  15.140 -0.0507 -0.4513 -0.0130
12530TIP3    H159081   0.663   1.978  15.227 -0.5504  0.5421  0.3975
12530TIP3    H259082   0.704   1.991  15.082  0.4753  0.0126  0.6254
12531TIP3   OH259083   1.481   2.829  17.102 -0.2937 -0.6955  0.4371
12531TIP3    H159084   1.469   2.844  17.008 -1.6254  1.8610  0.9185
12531TIP3    H259085   1.415   2.763  17.124 -0.0368 -1.2442 -0.3880
12532TIP3   OH259086   6.679   0.172  13.297  0.0988 -0.0317 -0.4940
12532TIP3    H159087   6.634   0.117  13.361  0.4737 -1.5844 -1.5227
12532TIP3    H259088   6.639   0.259  13.308 -0.6315 -0.5295  1.0446
12533TIP3   OH259089   3.450   4.264  15.471  0.3798  0.4858  0.4533
12533TIP3    H159090   3.523   4.210  15.500  0.3518 -1.0038 -1.9605
12533TIP3    H259091   3.374   4.230  15.519  0.4126 -1.5741 -0.8166
12534TIP3   OH259092   0.158   2.216  15.644  0.1196 -0.6215 -0.2998
12534TIP3    H159093   0.109   2.243  15.566 -0.6275  0.2340  0.4464
12534TIP3    H259094   0.227   2.282  15.653 -0.4065 -0.1404  0.3151
12535TIP3   OH259095   1.926   0.484   1.983 -0.4465 -0.1077  0.6944
12535TIP3    H159096   1.984   0.557   2.002  1.2505 -1.3119  0.3441
12535TIP3    H259097   1.932   0.428   2.060 -1.9479  0.2239  1.0798
12536TIP3   OH259098   2.317   2.062  13.758 -0.5589 -0.3929  0.3770
12536TIP3    H159099   2.296   2.073  13.851  0.3059  0.3479  0.5074
12536TIP3    H259100   2.278   2.139  13.716  1.6799  0.9582  0.6115
12537TIP3   OH259101   5.280   4.577  12.955  0.0776  0.0885  0.7977
12537TIP3    H159102   5.285   4.482  12.944 -0.1874  0.1144  0.4357
12537TIP3    H259103   5.284   4.591  13.049  0.1652 -0.2783  0.8502
12538TIP3   OH259104   6.574   4.065  11.606 -0.0330 -0.5212  0.3854
12538TIP3    H159105   6.554   3.975  11.631  1.3088 -0.7888  0.5757
12538TIP3    H259106   6.541   4.073  11.517 -1.3576 -0.7702  0.8268
12539TIP3   OH259107   5.872   2.549  13.560 -0.5405 -0.3332 -0.2140
12539TIP3    H159108   5.806   2.538  13.627 -1.0269 -0.5556 -0.7189
12539TIP3    H259109   5.839   2.619  13.504 -0.0671 -0.0406 -0.1298
12540TIP3   OH259110   1.837   3.812   0.652 -0.0154  0.0214  0.0408
12540TIP3    H159111   1.827   3.907   0.649  1.0280  0.1110 -1.4585
12540TIP3    H259112   1.774   3.784   0.718 -0.5597  1.7198  0.2942
12541TIP3   OH259113   1.978   4.637   3.081  0.0280  0.4199  0.2060
12541TIP3    H159114   1.968   4.542   3.087  0.7509  0.3057 -0.3189
12541TIP3    H259115   1.895   4.672   3.114  0.8072 -0.3130  3.1873
12542TIP3   OH259116   5.900   1.438  15.123 -0.3441 -0.2943  0.2707
12542TIP3    H159117   5.991   1.434  15.151 -0.4607  1.6182  1.0648
12542TIP3    H259118   5.901   1.488  15.042 -0.8059  1.1003  1.0930
12543TIP3   OH259119   5.862   0.861  12.954 -0.0440 -0.3835  0.7070
12543TIP3    H159120   5.898   0.922  12.890  0.7280 -2.4410 -0.9110
12543TIP3    H259121   5.779   0.901  12.981 -0.2568  0.6926 -1.3539
12544TIP3   OH259122   2.973   5.632   4.942  0.7238 -0.5333  1.0038
12544TIP3    H159123   3.068   5.621   4.946  1.3740  2.9970 -0.7899
12544TIP3    H259124   2.946   5.586   4.863  0.8548 -1.7076  1.6205
12545TIP3   OH259125   3.113   4.757  14.469 -0.4222  0.5172  0.4651
12545TIP3    H159126   3.168   4.784  14.395 -1.7922  0.9150 -0.4620
12545TIP3    H259127   3.037   4.716  14.428  0.0956 -1.9381  1.7650
12546TIP3   OH259128   6.408   0.107  11.528  0.2270 -0.1969 -0.1359
12546TIP3    H159129   6.377   0.173  11.467  0.6193 -1.3153 -1.5940
12546TIP3    H259130   6.487   0.072  11.487 -0.7888 -2.6198 -0.1949
12547TIP3   OH259131   6.566   1.465  15.927 -0.3988 -0.8658  0.0480
12547TIP3    H159132   6.608   1.490  16.010 -1.0339 -2.4851  0.8994
12547TIP3    H259133   6.474   1.455  15.950 -1.6073  3.2656 -1.9090
12548TIP3   OH259134   4.175   0.634   5.711  0.4354 -0.4150  0.3434
12548TIP3    H159135   4.246   0.698   5.701  0.7847 -0.8440  0.0796
12548TIP3    H259136   4.211   0.553   5.676 -0.3576 -0.5177 -0.2524
12549TIP3   OH259137   3.054   6.156  16.719  0.3558 -0.1846  0.3381
12549TIP3    H159138   3.101   6.117  16.793 -1.1464 -0.2036  1.3302
12549TIP3    H259139   3.011   6.232  16.756 -1.6638 -1.0473 -0.1297
12550TIP3   OH259140   3.840   6.675  17.101  0.1153  0.6864  0.4063
12550TIP3    H159141   3.864   6.688  17.010 -0.0420  0.1132  0.2832
12550TIP3    H259142   3.785   6.597  17.101  0.4036  0.4753  1.0387
12551TIP3   OH259143   1.030   2.811  14.529 -0.0156 -0.2477 -0.1852
12551TIP3    H159144   0.964   2.859  14.579 -2.3444 -2.7273 -0.6606
12551TIP3    H259145   1.042   2.729  14.577  1.3423 -0.6422 -1.1393
12552TIP3   OH259146   5.535   5.990  10.873 -0.1070  0.2905  0.1566
12552TIP3    H159147   5.517   5.980  10.966 -0.2598  1.1911  0.2334
12552TIP3    H259148   5.452   5.971  10.830 -0.2560  0.7188  0.2581
12553TIP3   OH259149   5.770   2.160  12.152 -0.2759 -0.1343 -0.2465
12553TIP3    H159150   5.715   2.160  12.073 -1.1626  0.7345  0.3436
12553TIP3    H259151   5.826   2.083  12.142 -0.9050 -0.4742 -1.3601
12554TIP3   OH259152   4.445   3.778  13.937 -0.1461  0.0423  0.1280
12554TIP3    H159153   4.494   3.742  13.863 -0.2698 -0.7721  0.4340
12554TIP3    H259154   4.476   3.728  14.013  0.2283  1.0947  0.6878
12555TIP3   OH259155   3.402   4.481   2.088 -0.3579 -0.1345  0.0470
12555TIP3    H159156   3.426   4.538   2.162 -0.2916 -0.0540 -0.0362
12555TIP3    H259157   3.393   4.541   2.014  1.4994 -0.4200 -0.4683
12556TIP3   OH259158   1.799   2.539   4.597  0.1012 -0.3014 -0.3201
12556TIP3    H159159   1.730   2.511   4.657 -0.0358  0.1937 -0.2431
12556TIP3    H259160   1.815   2.631   4.620  0.8576 -0.4390 -0.2638
12557TIP3   OH259161   4.033   2.269  15.185  0.9103  0.2321  0.3234
12557TIP3    H159162   3.992   2.280  15.271  1.0604 -0.7020  0.5324
12557TIP3    H259163   4.063   2.356  15.160 -1.4772  1.0248  0.0138
12558TIP3   OH259164   2.289   6.038   5.452  0.2178  0.1422  0.0565
12558TIP3    H159165   2.218   5.990   5.410  1.6711 -2.7639  0.6270
12558TIP3    H259166   2.338   6.076   5.380  0.0231 -0.8091 -0.6045
12559TIP3   OH259167   4.663   0.677   4.342  0.0447  0.3794  0.0904
12559TIP3    H159168   4.707   0.703   4.423  1.8063  1.6164 -1.1843
12559TIP3    H259169   4.635   0.760   4.302  1.2325  0.0352 -1.6070
12560TIP3   OH259170   1.403   3.801   3.911 -0.4025  0.6012  0.3697
12560TIP3    H159171   1.449   3.847   3.840  1.2797 -0.3252  0.8045
12560TIP3    H259172   1.346   3.739   3.866  0.6847 -0.0104 -0.2127
12561TIP3   OH259173   0.709   3.762   5.268 -0.0938 -0.0142 -0.0286
12561TIP3    H159174   0.749   3.753   5.181  0.4613 -0.0142  0.2285
12561TIP3    H259175   0.770   3.719   5.327 -1.3160 -1.5678  0.1403
12562TIP3   OH259176   3.721   4.075  11.252 -0.6286 -0.1905 -0.0546
12562TIP3    H159177   3.738   4.169  11.256  0.8377 -0.4757  1.5548
12562TIP3    H259178   3.772   4.045  11.176  1.8111 -0.1676  1.4696
12563TIP3   OH259179   2.240   3.442  14.802  0.2062  0.3049  0.1684
12563TIP3    H159180   2.158   3.491  14.802  0.8330  1.5742 -2.8189
12563TIP3    H259181   2.290   3.478  14.729  1.7129 -3.2286 -0.7870
12564TIP3   OH259182   1.748   2.933   5.200  0.3331  0.0694 -0.2316
12564TIP3    H159183   1.811   2.923   5.271 -0.2121 -1.4515  0.0749
12564TIP3    H259184   1.678   2.987   5.237  1.0741  1.1234 -0.3347
12565TIP3   OH259185   1.648   1.378   6.114 -0.7226  0.1839  0.1680
12565TIP3    H159186   1.557   1.394   6.091 -0.9151 -0.7540  0.2569
12565TIP3    H259187   1.689   1.465   6.110 -1.5585  0.5771 -0.0990
12566TIP3   OH259188   0.872   5.541  12.192  0.2745  0.1255  0.5292
12566TIP3    H159189   0.905   5.507  12.275 -0.7770  0.7709  1.2334
12566TIP3    H259190   0.784   5.574  12.212 -0.0707  0.1373 -0.8762
12567TIP3   OH259191   4.366   5.721  15.422 -0.0868  0.2177 -0.4980
12567TIP3    H159192   4.371   5.697  15.330 -1.6571 -0.3630 -0.4687
12567TIP3    H259193   4.311   5.799  15.424  0.1407  0.3712 -0.0810
12568TIP3   OH259194   4.291   3.826  12.978 -0.6765 -0.5338  0.0253
12568TIP3    H159195   4.318   3.839  12.887 -2.1571  0.3297 -0.3167
12568TIP3    H259196   4.206   3.783  12.972 -2.3220  2.3250  0.8523
12569TIP3   OH259197   1.538   1.643   5.973  0.0100  0.2160 -0.2405
12569TIP3    H159198   1.633   1.645   5.988 -0.0032  2.4946 -0.2061
12569TIP3    H259199   1.501   1.620   6.059  0.4751  1.1381  0.2239
12570TIP3   OH259200   2.232   4.068  13.040  0.1339  0.0719  0.3561
12570TIP3    H159201   2.272   4.083  13.125 -1.5242  2.8413  0.7647
12570TIP3    H259202   2.185   3.985  13.049  1.8986 -0.8588  1.3331
12571TIP3   OH259203   4.614   1.115  12.622  0.6356  0.3945  0.0262
12571TIP3    H159204   4.556   1.106  12.698 -0.0007 -1.1994 -0.5965
12571TIP3    H259205   4.653   1.028  12.612  1.4364  0.8497 -0.9038
12572TIP3   OH259206   6.407   0.351   2.238  0.5355 -0.3826  0.3489
12572TIP3    H159207   6.409   0.396   2.322  0.8734  0.1288  0.0707
12572TIP3    H259208   6.495   0.362   2.202 -0.2554  1.5357 -1.1739
12573TIP3   OH259209   3.037   3.032  11.817 -0.0813 -0.2433 -0.1916
12573TIP3    H159210   2.947   3.018  11.848 -0.3661  1.2733 -0.2635
12573TIP3    H259211   3.045   2.975  11.741 -0.7310 -0.9424  0.2394
12574TIP3   OH259212   6.819   2.702   2.877 -0.6054 -0.4663  0.1379
12574TIP3    H159213   6.893   2.650   2.909  1.1155  0.8143 -1.4973
12574TIP3    H259214   6.791   2.752   2.953  1.8088  0.7536  0.3437
12575TIP3   OH259215   1.742   3.086  14.440 -0.0479  0.1776 -0.3844
12575TIP3    H159216   1.823   3.044  14.412  0.1763  0.6783 -0.4987
12575TIP3    H259217   1.684   3.079  14.364 -0.4581 -1.0394  0.0262
12576TIP3   OH259218   1.524   5.032   5.301 -0.3651  0.1084  0.5028
12576TIP3    H159219   1.518   5.086   5.380 -1.2943  0.3182  0.3018
12576TIP3    H259220   1.618   5.014   5.291 -0.0280  1.7014  0.5569
12577TIP3   OH259221   1.718   5.588  14.166  0.8574  0.6627  0.0688
12577TIP3    H159222   1.693   5.659  14.107  0.2004 -0.8522 -1.5590
12577TIP3    H259223   1.756   5.521  14.110  1.2508 -0.3970  1.5156
12578TIP3   OH259224   6.148   0.733  13.533  0.2299  0.2811  0.2223
12578TIP3    H159225   6.240   0.757  13.523  0.5316  1.2533  3.9458
12578TIP3    H259226   6.100   0.809  13.501  0.7286  0.0794 -1.0443
12579TIP3   OH259227   1.012   1.612  12.220  0.2440  0.5040 -0.1549
12579TIP3    H159228   1.058   1.695  12.231  2.4830 -0.6219 -0.4870
12579TIP3    H259229   1.062   1.564  12.155 -0.7190 -1.2995  0.3455
12580TIP3   OH259230   1.921   3.954  11.946  0.1412 -0.0332 -0.2543
12580TIP3    H159231   2.009   3.981  11.919 -0.1742  0.8879 -0.3951
12580TIP3    H259232   1.862   4.002  11.887 -0.4944  0.3245  0.6550
12581TIP3   OH259233   3.578   2.934   1.431 -0.3938 -0.5881  0.1863
12581TIP3    H159234   3.549   3.005   1.488 -1.5361 -0.9581  0.0735
12581TIP3    H259235   3.525   2.942   1.352 -0.9332 -1.8816  0.3880
12582TIP3   OH259236   0.930   6.680   0.733 -0.0268 -0.3116 -0.0206
12582TIP3    H159237   0.977   6.695   0.815  0.1301 -4.2130  0.7812
12582TIP3    H259238   0.839   6.699   0.753 -0.0037 -1.3262  1.1440
12583TIP3   OH259239   6.454   5.034  11.953  0.4358 -0.3724  0.1773
12583TIP3    H159240   6.544   5.064  11.957  0.2733  0.1423  0.0059
12583TIP3    H259241   6.408   5.102  11.904 -0.2234 -0.1891  1.0247
12584TIP3   OH259242   6.750   2.055   3.427 -0.4849 -0.7327 -0.0763
12584TIP3    H159243   6.743   2.098   3.342 -0.2361  1.2135  0.8345
12584TIP3    H259244   6.663   2.066   3.466  0.0009  0.3142  0.7590
12585TIP3   OH259245   6.691   3.639  13.869  0.5538 -0.5247  0.0453
12585TIP3    H159246   6.726   3.663  13.784 -0.7887  1.4112 -0.0275
12585TIP3    H259247   6.755   3.671  13.932  0.1373  0.7434 -0.1612
12586TIP3   OH259248   5.559   0.763   2.343 -0.4205  0.0474 -0.5790
12586TIP3    H159249   5.549   0.668   2.342  0.7658 -0.0909 -1.4881
12586TIP3    H259250   5.630   0.779   2.404 -1.6648  0.5086  0.8129
12587TIP3   OH259251   0.684   4.398  16.929  0.3382 -0.3059 -0.6462
12587TIP3    H159252   0.605   4.451  16.934  0.4973 -0.1759  1.1237
12587TIP3    H259253   0.749   4.456  16.889  0.3436  0.6524  0.6972
12588TIP3   OH259254   2.633   2.539  16.321 -0.2156 -1.1763  0.1285
12588TIP3    H159255   2.669   2.596  16.390 -1.1696 -1.6007  0.9901
12588TIP3    H259256   2.628   2.596  16.244  0.9778 -0.7258  0.3612
12589TIP3   OH259257   3.687   0.471  12.815  0.0277  0.5013  0.0710
12589TIP3    H159258   3.666   0.491  12.906 -0.7381  1.7691 -0.3571
12589TIP3    H259259   3.701   0.377  12.814 -1.5573  0.2197  1.1840
12590TIP3   OH259260   6.082   4.159  15.565  0.4638  0.4038 -0.4812
12590TIP3    H159261   6.046   4.085  15.517  0.6550 -0.4884  0.6804
12590TIP3    H259262   6.011   4.188  15.622  1.2293 -0.7715  1.1480
12591TIP3   OH259263   3.369   3.553   0.182 -0.0548  0.4989  0.2022
12591TIP3    H159264   3.433   3.495   0.224 -1.6070  0.1657  2.2669
12591TIP3    H259265   3.395   3.554   0.089  1.0844 -2.0860  0.4068
12592TIP3   OH259266   3.799   3.337  11.781  0.4136  0.0013  0.0169
12592TIP3    H159267   3.788   3.322  11.875  1.4131 -0.3856  0.0819
12592TIP3    H259268   3.893   3.353  11.770  0.5617 -1.5020 -1.1363
12593TIP3   OH259269   5.288   5.047   0.145 -0.0113 -0.2493  0.0935
12593TIP3    H159270   5.319   5.020   0.058 -2.3242 -1.1904 -0.5271
12593TIP3    H259271   5.284   4.965   0.195 -2.2909 -0.3729 -0.1825
12594TIP3   OH259272   4.353   6.788   4.264  0.6434  0.5005 -0.6141
12594TIP3    H159273   4.300   6.853   4.217 -0.7635  1.0346  1.5646
12594TIP3    H259274   4.290   6.727   4.301  1.7433 -0.3210 -0.0209
12595TIP3   OH259275   6.423   0.980  15.330 -0.2643 -0.3423  0.2100
12595TIP3    H159276   6.438   0.926  15.407 -0.7859 -1.6618 -0.5741
12595TIP3    H259277   6.480   1.057  15.342  4.5396 -3.2859 -0.9037
12596TIP3   OH259278   2.227   0.563   0.714 -0.2289 -0.0228 -0.0454
12596TIP3    H159279   2.243   0.563   0.620  0.0519  0.0795  0.0002
12596TIP3    H259280   2.157   0.499   0.727  0.9527 -1.3800 -0.1171
12597TIP3   OH259281   3.669   3.819   2.090 -0.6404 -0.3991 -0.1339
12597TIP3    H159282   3.655   3.910   2.117 -0.2607 -0.4519  0.2388
12597TIP3    H259283   3.583   3.778   2.099 -0.8045 -0.0895 -0.2685
12598TIP3   OH259284   1.605   5.235  16.670  0.3510  0.3187 -0.1198
12598TIP3    H159285   1.687   5.280  16.693  0.3924  0.9811 -1.4765
12598TIP3    H259286   1.541   5.305  16.662  0.1940  0.0637 -1.3177
12599TIP3   OH259287   2.671   3.897  16.302 -0.3814  0.1361  0.3132
12599TIP3    H159288   2.757   3.932  16.283  0.2420 -1.1588  0.6150
12599TIP3    H259289   2.650   3.842  16.227 -1.0594  0.6390  0.1262
12600TIP3   OH259290   2.174   3.777  14.819  0.0373  0.3591  0.3523
12600TIP3    H159291   2.258   3.731  14.824  1.1244  2.0827 -1.0029
12600TIP3    H259292   2.109   3.707  14.815  1.5647 -1.0577 -0.9186
12601TIP3   OH259293   0.999   6.508  16.478 -0.4419 -0.6431 -0.0797
12601TIP3    H159294   0.989   6.578  16.413 -0.7944 -1.6638 -1.1610
12601TIP3    H259295   1.094   6.493  16.482 -0.3220  0.2190  0.5307
12602TIP3   OH259296   6.756   4.976  15.384 -0.1382 -0.0496 -0.0232
12602TIP3    H159297   6.669   5.009  15.405 -0.8841 -0.7708 -1.8044
12602TIP3    H259298   6.815   5.045  15.413 -1.3160  0.6448  0.8246
12603TIP3   OH259299   3.863   1.795  11.467  0.0928  0.6816 -0.0252
12603TIP3    H159300   3.839   1.763  11.380 -1.3638  0.7541  0.3189
12603TIP3    H259301   3.781   1.794  11.516  0.8317  0.9159  1.2713
12604TIP3   OH259302   0.980   3.337   1.939 -0.3449 -0.5117 -0.4453
12604TIP3    H159303   0.954   3.277   2.009  0.2935 -0.7590 -0.4111
12604TIP3    H259304   0.931   3.307   1.862 -0.6622 -0.5575 -0.2243
12605TIP3   OH259305   4.356   5.531  12.635  0.3011 -0.4657 -1.0720
12605TIP3    H159306   4.328   5.495  12.551  1.0097 -3.2059 -0.2368
12605TIP3    H259307   4.321   5.471  12.701  0.4376  1.1568  0.5694
12606TIP3   OH259308   2.256   2.013   5.112 -0.1683  0.0827 -0.2279
12606TIP3    H159309   2.266   2.102   5.079 -0.4408  0.4454  0.6275
12606TIP3    H259310   2.311   2.010   5.191  0.3877 -0.7227 -0.6343
12607TIP3   OH259311   0.738   6.250   4.503 -0.2340 -0.0440 -0.6519
12607TIP3    H159312   0.822   6.295   4.494  0.5690 -0.3529  3.4961
12607TIP3    H259313   0.755   6.160   4.473  0.2923  0.4083 -1.7490
12608TIP3   OH259314   0.402   2.398  15.654 -0.0776  0.4685 -0.0473
12608TIP3    H159315   0.381   2.434  15.740  0.9576  2.3483 -0.5191
12608TIP3    H259316   0.489   2.359  15.664  0.3989  1.3945 -0.3808
12609TIP3   OH259317   0.929   4.246   1.747  0.0097 -0.1993  0.4594
12609TIP3    H159318   0.865   4.316   1.755  0.1846 -0.1185  1.1705
12609TIP3    H259319   1.003   4.286   1.701 -0.1549 -0.0989  0.2811
12610TIP3   OH259320   2.664   5.110  11.945 -0.6089  0.2845 -0.2697
12610TIP3    H159321   2.615   5.112  11.863 -1.3200  0.5014  0.1562
12610TIP3    H259322   2.745   5.158  11.926 -1.3218  1.4324 -0.4891
12611TIP3   OH259323   2.524   5.810  11.077 -0.0440  0.4908  0.1818
12611TIP3    H159324   2.596   5.754  11.048  0.1967  0.8516  0.0757
12611TIP3    H259325   2.564   5.895  11.091 -0.4925  0.7516 -0.0847
12612TIP3   OH259326   4.725   0.885  14.839  0.1219 -0.0214  0.0549
12612TIP3    H159327   4.709   0.978  14.856 -2.3504 -0.0863 -1.4992
12612TIP3    H259328   4.735   0.846  14.925 -1.1012  1.3301  0.8465
12613TIP3   OH259329   1.927   0.051  16.341 -0.0967  0.7203 -0.0505
12613TIP3    H159330   1.954   0.115  16.407  0.2872 -0.0597  0.5710
12613TIP3    H259331   1.925  -0.032  16.388 -0.3286  0.2290 -0.9073
12614TIP3   OH259332   3.609   1.814  15.578 -0.2067  0.4590 -0.6755
12614TIP3    H159333   3.691   1.766  15.587 -0.9182 -0.8154 -0.7535
12614TIP3    H259334   3.564   1.769  15.507 -1.2725  0.7090 -0.1674
12615TIP3   OH259335   6.146   6.682   6.171  0.2181 -0.3478 -0.1461
12615TIP3    H159336   6.132   6.740   6.096  1.5756 -0.9272 -0.8844
12615TIP3    H259337   6.207   6.729   6.228 -0.5931 -0.0276  0.4712
12616TIP3   OH259338   3.162   2.413   3.464 -0.3730  0.0762 -0.4096
12616TIP3    H159339   3.084   2.451   3.425 -2.3853 -1.4964  1.7394
12616TIP3    H259340   3.170   2.327   3.423 -0.0418  0.0489 -0.2906
12617TIP3   OH259341   2.870   4.129   0.370 -0.2112  0.5703 -0.0765
12617TIP3    H159342   2.959   4.109   0.338 -0.6182  0.6003 -1.3031
12617TIP3    H259343   2.819   4.051   0.348 -0.9165  1.3227 -1.2132
12618TIP3   OH259344   5.111   0.340   6.113  0.5007  0.7956 -0.1220
12618TIP3    H159345   5.103   0.294   6.030  0.9727 -0.9187  0.7259
12618TIP3    H259346   5.174   0.410   6.097  1.1795 -0.0061 -1.0022
12619TIP3   OH259347   4.304   2.968  10.482 -0.4724  0.2770 -0.2874
12619TIP3    H159348   4.304   3.049  10.533 -2.0523 -0.3076  0.6993
12619TIP3    H259349   4.265   2.903  10.540  1.6606 -1.4750 -0.6736
12620TIP3   OH259350   5.294   5.698  12.670  0.0816 -0.6528  0.0225
12620TIP3    H159351   5.292   5.727  12.578  1.8015  1.1539  0.5047
12620TIP3    H259352   5.210   5.654  12.682 -1.3235  1.3420 -1.7259
12621TIP3   OH259353   3.399   4.133  11.735  0.6534  0.4168  0.1742
12621TIP3    H159354   3.339   4.206  11.720 -1.3507 -0.5918  2.4736
12621TIP3    H259355   3.363   4.061  11.684  0.9651  0.2988  0.1200
12622TIP3   OH259356   3.737   0.690   3.280 -0.2821  0.2027  0.6235
12622TIP3    H159357   3.712   0.763   3.336 -2.3025  0.6135 -0.7313
12622TIP3    H259358   3.700   0.710   3.195  1.3121 -1.1948 -0.4825
12623TIP3   OH259359   5.824   5.556  11.985 -0.4733  0.1619  0.1712
12623TIP3    H159360   5.766   5.480  11.978 -0.8547  0.3192  1.3965
12623TIP3    H259361   5.766   5.629  12.006  0.1308  0.3716  1.1691
12624TIP3   OH259362   4.522   2.161   1.208  0.5861  0.2909  0.2022
12624TIP3    H159363   4.505   2.181   1.116  0.3856 -0.4124  0.0786
12624TIP3    H259364   4.464   2.221   1.257 -0.5636 -0.4689 -0.1730
12625TIP3   OH259365   5.849   6.419   3.984 -0.2738  0.3585 -0.4884
12625TIP3    H159366   5.768   6.372   3.966 -0.0346 -0.5091  0.5777
12625TIP3    H259367   5.897   6.361   4.043  2.2280 -0.3097 -2.9427
12626TIP3   OH259368   0.249   3.099  12.303 -0.3307  0.0044 -0.2767
12626TIP3    H159369   0.329   3.145  12.277  0.7902 -1.2353  0.7976
12626TIP3    H259370   0.179   3.162  12.288  0.7342  0.8555 -2.0239
12627TIP3   OH259371   3.055   1.944  12.369 -0.2809  0.3079 -0.1153
12627TIP3    H159372   2.990   1.934  12.299  1.2088  0.6059 -1.6307
12627TIP3    H259373   3.134   1.902  12.334  0.3419 -0.1258  1.6930
12628TIP3   OH259374   6.552   2.451  13.624  0.5455  0.4511  0.4449
12628TIP3    H159375   6.615   2.463  13.695  1.1354 -2.2605  0.4978
12628TIP3    H259376   6.471   2.425  13.668  0.3386  0.6915  0.2115
12629TIP3   OH259377   2.140   5.903   1.642  0.6802  0.5422  0.1219
12629TIP3    H159378   2.188   5.858   1.573  1.3224  1.1817  0.1492
12629TIP3    H259379   2.207   5.938   1.700  0.1609  0.6039  0.6995
12630TIP3   OH259380   1.399   2.406   2.440 -1.2409 -0.2724  0.0237
12630TIP3    H159381   1.437   2.408   2.352 -0.8291  1.2030  0.1954
12630TIP3    H259382   1.454   2.345   2.489 -0.1361  0.5171 -0.1983
12631TIP3   OH259383   3.475   2.593   1.562  0.3106 -0.1285  0.4337
12631TIP3    H159384   3.462   2.501   1.539  0.4821 -0.6432  2.2297
12631TIP3    H259385   3.410   2.640   1.509 -1.1438 -1.4976  0.8993
12632TIP3   OH259386   4.799   3.510   5.431 -0.2643 -0.2045  0.4447
12632TIP3    H159387   4.733   3.447   5.404  0.6878 -0.2886 -1.9121
12632TIP3    H259388   4.754   3.594   5.432 -1.0752 -0.6235  1.7496
12633TIP3   OH259389   6.084   4.330   2.069 -0.5134  0.4828 -0.0754
12633TIP3    H159390   6.067   4.319   1.975 -1.8841 -0.3732  0.2419
12633TIP3    H259391   6.028   4.403   2.094 -0.6958  0.2368  0.2250
12634TIP3   OH259392   5.607   3.289  13.999  0.2047  0.0633 -0.1427
12634TIP3    H159393   5.696   3.288  13.964  1.0482  0.0084  1.8909
12634TIP3    H259394   5.551   3.288  13.921  1.9615  0.1309 -1.4701
12635TIP3   OH259395   3.686   0.981   0.575 -0.3253 -0.1848 -0.1271
12635TIP3    H159396   3.773   1.017   0.596 -0.1568  0.3874 -1.7286
12635TIP3    H259397   3.635   0.996   0.654 -0.1704  3.2984 -0.5544
12636TIP3   OH259398   6.680   6.398   1.601  0.0322  0.4008  0.0020
12636TIP3    H159399   6.621   6.330   1.571 -0.2441  0.5831  0.1277
12636TIP3    H259400   6.678   6.393   1.696  0.7279 -0.0229  0.0005
12637TIP3   OH259401   1.069   0.729   1.777  0.5659 -0.1076  0.2739
12637TIP3    H159402   0.998   0.675   1.744  1.6056 -2.0670  1.1177
12637TIP3    H259403   1.089   0.788   1.704  0.6630 -2.1645 -1.4517
12638TIP3   OH259404   3.788   0.807  10.339  0.1275 -0.2841 -0.4985
12638TIP3    H159405   3.756   0.733  10.390 -0.2083  0.0661 -0.1926
12638TIP3    H259406   3.878   0.819  10.368 -0.6084  1.1269  1.4942
12639TIP3   OH259407   4.782   6.249  15.158  0.0286  0.1198 -0.1178
12639TIP3    H159408   4.735   6.196  15.094 -0.6411  0.1967  0.2994
12639TIP3    H259409   4.794   6.191  15.233  2.0416 -0.4166 -0.8048
12640TIP3   OH259410   6.115   1.784   5.458 -0.0202 -0.0267 -0.4944
12640TIP3    H159411   6.086   1.706   5.505 -2.1089 -0.4406 -2.2707
12640TIP3    H259412   6.195   1.757   5.413  0.4250 -0.4691  0.5308
12641TIP3   OH259413   3.849   6.232  13.706  0.4844  0.0926  0.3790
12641TIP3    H159414   3.866   6.293  13.778  1.4470 -0.0293  0.2759
12641TIP3    H259415   3.852   6.287  13.628  1.7685 -0.1198  0.2489
12642TIP3   OH259416   2.233   5.818   3.403  0.0267 -0.2526 -0.3412
12642TIP3    H159417   2.304   5.776   3.356  1.5866  1.5676  0.2395
12642TIP3    H259418   2.256   5.809   3.495 -2.5748 -3.0661  0.1740
12643TIP3   OH259419   0.465   4.029  14.124  0.2895  0.0354  0.4310
12643TIP3    H159420   0.482   3.946  14.079 -1.1546 -0.6948  1.1547
12643TIP3    H259421   0.503   4.017  14.211  0.2343  0.1982  0.4778
12644TIP3   OH259422   2.041   1.472   0.960  0.0929  0.3140  0.2614
12644TIP3    H159423   2.122   1.431   0.928  0.2937  2.0794 -1.8038
12644TIP3    H259424   2.071   1.535   1.025  0.1290 -0.4467  1.0009
12645TIP3   OH259425   0.740   4.408   4.558 -0.2497  0.2565  1.1420
12645TIP3    H159426   0.799   4.349   4.605 -1.0050 -1.4442  0.0568
12645TIP3    H259427   0.697   4.352   4.492 -0.5655  2.1362 -0.3501
12646TIP3   OH259428   4.030   3.210  16.594  0.4158 -0.2095  0.2294
12646TIP3    H159429   3.957   3.204  16.533  0.8241 -1.5161 -0.1688
12646TIP3    H259430   4.104   3.172  16.547  0.9119 -0.5646  1.2669
12647TIP3   OH259431   1.570   6.799  12.767 -0.3070 -0.2995 -0.0605
12647TIP3    H159432   1.657   6.798  12.808 -0.1109 -1.2551 -0.4719
12647TIP3    H259433   1.579   6.858  12.693  0.4892 -1.6720 -1.1025
12648TIP3   OH259434   3.256   0.190  10.671 -0.5677  0.8435  0.1029
12648TIP3    H159435   3.288   0.269  10.714 -0.3042  0.7609  0.0604
12648TIP3    H259436   3.333   0.154  10.627  0.1260 -1.1498  2.6986
12649TIP3   OH259437   5.406   4.775   5.050  0.3472 -0.0616 -0.2295
12649TIP3    H159438   5.383   4.697   5.100 -0.9708  0.3776 -0.0965
12649TIP3    H259439   5.322   4.819   5.035  1.0546  1.3201 -0.3016
12650TIP3   OH259440   3.930   1.625   3.535 -0.1391 -0.6829 -0.4298
12650TIP3    H159441   3.980   1.625   3.453  1.9775 -1.6743  0.7840
12650TIP3    H259442   3.985   1.670   3.598 -1.8843  0.3785  0.4182
12651TIP3   OH259443   2.630   0.205  15.928  0.1661  0.7253 -0.0880
12651TIP3    H159444   2.640   0.141  15.857  0.0912  1.8500 -1.1453
12651TIP3    H259445   2.537   0.226  15.929 -0.1299 -0.4756  1.4565
12652TIP3   OH259446   6.561   5.055  11.296 -0.1314 -0.8719  0.7508
12652TIP3    H159447   6.638   5.029  11.347  1.4147 -1.0411 -1.5244
12652TIP3    H259448   6.580   5.145  11.268 -0.9240 -0.7910  0.4384
12653TIP3   OH259449   4.815   2.453   2.526  0.1773 -0.5503  0.3886
12653TIP3    H159450   4.908   2.467   2.548  0.5552  0.2954 -1.5518
12653TIP3    H259451   4.816   2.389   2.455 -0.5141  1.0918 -1.1854
12654TIP3   OH259452   4.580   1.723   4.620  0.2114 -0.9832  0.0949
12654TIP3    H159453   4.672   1.714   4.596  0.5834 -2.4176  1.8084
12654TIP3    H259454   4.581   1.756   4.710 -1.0453  1.6913 -0.7796
12655TIP3   OH259455   2.245   5.553   2.504 -0.3782  0.3635 -0.3288
12655TIP3    H159456   2.186   5.568   2.430  0.1139 -0.2869 -0.8788
12655TIP3    H259457   2.313   5.620   2.494 -0.6147  0.6309 -0.1400
12656TIP3   OH259458   2.150   2.523  13.548 -0.1939 -0.0640  0.0622
12656TIP3    H159459   2.098   2.561  13.619 -0.3339  1.4162 -0.7877
12656TIP3    H259460   2.107   2.553  13.468 -1.1204 -3.1615 -0.7411
12657TIP3   OH259461   3.240   1.814   1.178 -0.2573  0.2520  0.1704
12657TIP3    H159462   3.326   1.825   1.219 -0.8200 -0.9902  1.7725
12657TIP3    H259463   3.239   1.723   1.149 -0.8901  0.3724 -0.1869
12658TIP3   OH259464   3.982   3.303  14.738 -0.1411 -0.4965 -0.4615
12658TIP3    H159465   3.909   3.293  14.799 -1.6222 -0.7482 -2.2190
12658TIP3    H259466   4.026   3.383  14.768 -1.4675 -0.0164  0.2936
12659TIP3   OH259467   6.558   3.000   4.261  0.3338 -0.0620  0.5521
12659TIP3    H159468   6.510   3.051   4.197 -0.3637 -1.9165 -0.4611
12659TIP3    H259469   6.593   3.065   4.323 -0.0762  1.6415 -0.9484
12660TIP3   OH259470   5.177   3.131  11.021 -0.3101 -0.0122 -0.4318
12660TIP3    H159471   5.171   3.063  10.954 -0.5385 -1.1235  0.6925
12660TIP3    H259472   5.256   3.180  10.999  0.1447 -0.9628 -0.9535
12661TIP3   OH259473   0.055   0.538   5.847 -0.3037 -0.2236 -0.7238
12661TIP3    H159474   0.112   0.562   5.921  1.9661  0.5092 -2.5757
12661TIP3    H259475  -0.019   0.493   5.887  1.8678 -1.7909  1.8629
12662TIP3   OH259476   1.429   1.686  13.341  0.0233  0.1757 -0.1250
12662TIP3    H159477   1.486   1.664  13.268  0.0853  0.6872 -0.2374
12662TIP3    H259478   1.354   1.730  13.301 -0.5801 -0.7111 -0.0043
12663TIP3   OH259479   5.510   2.126  14.869 -0.5672 -0.0207 -0.2221
12663TIP3    H159480   5.462   2.081  14.800 -0.9309  2.1738 -1.4549
12663TIP3    H259481   5.487   2.218  14.859  2.5471  0.9100  0.2268
12664TIP3   OH259482   1.864   4.134  12.410  0.4049 -0.6848 -0.1161
12664TIP3    H159483   1.840   4.042  12.422  2.8569 -1.2397  1.0635
12664TIP3    H259484   1.949   4.131  12.366  0.5126  1.0262 -0.0843
12665TIP3   OH259485   5.173   1.698  14.837  0.0453 -0.0770  0.4005
12665TIP3    H159486   5.240   1.634  14.813  0.5148  0.1790  1.0006
12665TIP3    H259487   5.090   1.652  14.827  0.1190  0.2429 -2.5681
12666TIP3   OH259488   5.967   5.051  13.428  0.1627  0.5369  0.2815
12666TIP3    H159489   5.913   5.085  13.357  0.7625 -0.4935 -0.6986
12666TIP3    H259490   6.055   5.047  13.391  0.2327 -1.4642  0.5592
12667TIP3   OH259491   3.699   3.959   3.738 -0.1506  0.4996 -0.1626
12667TIP3    H159492   3.638   3.907   3.788 -0.1314 -0.7126 -1.3368
12667TIP3    H259493   3.660   3.966   3.651 -1.9283  5.4775  0.6992
12668TIP3   OH259494   1.607   4.582   2.304 -0.9546 -0.3177 -0.6353
12668TIP3    H159495   1.642   4.513   2.248 -1.8708 -0.1273 -1.4813
12668TIP3    H259496   1.662   4.659   2.285 -0.2340 -0.6715 -0.0412
12669TIP3   OH259497   1.251   4.014  13.330  0.1388  0.0647 -0.0990
12669TIP3    H159498   1.235   4.076  13.401  3.2039 -1.1872  1.9162
12669TIP3    H259499   1.193   4.042  13.260 -0.9766  3.1592  1.8553
12670TIP3   OH259500   5.736   6.583  13.791  0.1214  0.4969  0.1392
12670TIP3    H159501   5.817   6.532  13.795  2.6077  3.8147 -2.3966
12670TIP3    H259502   5.709   6.577  13.699  0.5481  3.5466 -0.2918
12671TIP3   OH259503   0.725   4.178   4.377 -0.2599 -0.6247  0.2580
12671TIP3    H159504   0.703   4.087   4.395  0.0075 -0.7270  0.0758
12671TIP3    H259505   0.802   4.195   4.430  1.1756 -1.2423 -1.5127
12672TIP3   OH259506   6.205   2.056   1.070  0.0601  0.3552 -0.3120
12672TIP3    H159507   6.128   2.005   1.045 -0.6659  1.2500  0.0294
12672TIP3    H259508   6.172   2.145   1.081  1.1709  0.7759 -0.2514
12673TIP3   OH259509   0.762   2.089   0.174 -0.0195 -0.5441 -0.4184
12673TIP3    H159510   0.833   2.153   0.180 -0.0602 -0.3854 -1.3699
12673TIP3    H259511   0.804   2.005   0.190  0.1929 -0.3602  0.0100
12674TIP3   OH259512   3.523   5.803   4.955 -0.1591  0.2200  0.2279
12674TIP3    H159513   3.494   5.761   4.874 -0.0021  1.3934 -0.4622
12674TIP3    H259514   3.442   5.826   5.000 -0.3016  1.2461 -0.5094
12675TIP3   OH259515   4.138   3.089  12.123 -0.2090  0.3544 -0.2994
12675TIP3    H159516   4.228   3.074  12.153 -0.4663  0.8308  0.7245
12675TIP3    H259517   4.107   3.164  12.174 -0.3003  1.9219 -2.5284
12676TIP3   OH259518   2.096   3.966   2.012  0.0740 -0.0349  0.0195
12676TIP3    H159519   2.068   4.008   1.932 -1.2849 -0.2304  0.3734
12676TIP3    H259520   2.113   4.037   2.073 -0.5225  0.0679  0.0713
12677TIP3   OH259521   1.495   6.245  15.580  0.2355 -0.5430 -0.1763
12677TIP3    H159522   1.490   6.251  15.485 -0.9507  1.4126 -0.0371
12677TIP3    H259523   1.443   6.168  15.602  0.6304 -1.0919 -1.0893
12678TIP3   OH259524   0.687   5.693  12.357  0.7798 -0.4526 -0.1509
12678TIP3    H159525   0.675   5.608  12.399  0.0823 -1.3303 -2.0135
12678TIP3    H259526   0.632   5.753  12.408 -1.2329 -1.7762 -0.6544
12679TIP3   OH259527   1.904   1.256  11.016 -0.0727 -0.3856 -0.4638
12679TIP3    H159528   1.985   1.282  11.060 -0.6934 -2.0878  1.8422
12679TIP3    H259529   1.931   1.188  10.955  0.5504  0.8365 -1.6123
12680TIP3   OH259530   4.921   6.485  15.262  0.5628  0.0365 -0.0055
12680TIP3    H159531   4.924   6.563  15.207 -0.0361  1.5633  2.0024
12680TIP3    H259532   4.878   6.419  15.207  0.4163  1.3273 -1.5236
12681TIP3   OH259533   4.664   3.698   0.104  0.2421 -0.0966  0.0247
12681TIP3    H159534   4.724   3.660   0.040 -0.9914 -0.8771 -0.7022
12681TIP3    H259535   4.586   3.721   0.053 -1.1173 -1.5320  1.3479
12682TIP3   OH259536   6.606   2.332   0.741  0.2184  0.3287  0.1302
12682TIP3    H159537   6.540   2.361   0.679  0.4400  1.6753  0.4803
12682TIP3    H259538   6.627   2.242   0.715 -0.1735  0.6372 -1.3076
12683TIP3   OH259539   2.951   3.425  16.702  0.3378 -0.0153  0.3943
12683TIP3    H159540   2.968   3.353  16.641  1.2276 -0.9743  1.7377
12683TIP3    H259541   2.879   3.393  16.757 -0.0889  0.6338  0.2347
12684TIP3   OH259542   4.487   6.702   1.721  0.7613 -0.1649  0.1112
12684TIP3    H159543   4.458   6.723   1.633 -0.0944 -0.9374  0.2045
12684TIP3    H259544   4.474   6.783   1.771  0.1397 -0.0801 -0.1916
12685TIP3   OH259545   6.293   4.237  10.956 -0.0796  0.1348  0.5357
12685TIP3    H159546   6.261   4.189  10.880  0.9086 -1.2636  0.9781
12685TIP3    H259547   6.301   4.171  11.025  3.6194  0.3492  0.4976
12686TIP3   OH259548   0.694   0.047  11.161 -0.0971  0.7097  0.2341
12686TIP3    H159549   0.708  -0.030  11.217  0.2377  0.9824  0.5359
12686TIP3    H259550   0.599   0.054  11.151 -0.0949 -1.1153 -1.7393
12687TIP3   OH259551   3.716   5.158  12.885 -0.1989  0.1729  0.1249
12687TIP3    H159552   3.795   5.118  12.847  0.0340  1.1140 -0.4058
12687TIP3    H259553   3.667   5.084  12.921  0.6086 -0.4997 -0.1230
12688TIP3   OH259554   1.504   3.187  12.228  0.7109 -0.2481 -0.2540
12688TIP3    H159555   1.576   3.188  12.165  0.8577  1.4539 -0.0955
12688TIP3    H259556   1.505   3.274  12.266  0.6834 -1.2564  2.1929
12689TIP3   OH259557   2.232   1.641  15.525  0.1374 -1.0637  0.2492
12689TIP3    H159558   2.180   1.682  15.593 -0.4335  0.2659 -0.9351
12689TIP3    H259559   2.206   1.548  15.528 -1.3768 -0.6610  0.5147
12690TIP3   OH259560   0.156   0.471  16.100  0.0437  0.5510 -0.0954
12690TIP3    H159561   0.107   0.553  16.108 -0.5987  0.1702 -0.0294
12690TIP3    H259562   0.157   0.436  16.189  3.2249  2.0793  0.6337
12691TIP3   OH259563   4.383   5.587   0.440  0.0628  0.1803 -0.2030
12691TIP3    H159564   4.333   5.509   0.415 -1.9270  1.2043  0.3990
12691TIP3    H259565   4.319   5.658   0.439  1.2607  1.3715  1.6257
12692TIP3   OH259566   5.241   5.124   3.134  0.2583  0.9052 -0.0061
12692TIP3    H159567   5.323   5.076   3.144  0.8873  1.7838 -0.7744
12692TIP3    H259568   5.192   5.074   3.069 -0.8073 -0.8441  1.9847
12693TIP3   OH259569   4.094   0.640  13.506  0.3984  0.2792  0.2778
12693TIP3    H159570   4.129   0.559  13.543 -1.9108  0.2009  2.6594
12693TIP3    H259571   4.079   0.696  13.582 -2.6847  0.9537 -0.6791
12694TIP3   OH259572   4.090   3.566  13.845 -0.2782  0.5704 -0.0481
12694TIP3    H159573   3.997   3.584  13.830  0.0857  3.3401  0.5236
12694TIP3    H259574   4.125   3.647  13.880  2.3618 -0.4618 -0.0604
12695TIP3   OH259575   4.835   5.464   3.366  0.4060 -0.3329 -0.2397
12695TIP3    H159576   4.758   5.412   3.345  0.0870 -1.0252  2.3091
12695TIP3    H259577   4.898   5.402   3.404  0.5288  0.8331  1.6292
12696TIP3   OH259578   4.777   4.652  12.289 -0.9519  0.2042 -0.6723
12696TIP3    H159579   4.784   4.612  12.376  0.6771  0.5248 -0.6321
12696TIP3    H259580   4.800   4.744  12.302 -0.5722  0.2293 -1.4628
12697TIP3   OH259581   2.801   0.330   2.548 -0.5355 -0.0271 -0.3708
12697TIP3    H159582   2.816   0.386   2.472  1.1496  1.6733  1.1065
12697TIP3    H259583   2.763   0.389   2.614  0.2709 -0.8587  0.8780
12698TIP3   OH259584   3.235   1.143   4.639 -0.0631  0.0757 -0.2887
12698TIP3    H159585   3.313   1.104   4.600  0.7508 -0.6341  1.9463
12698TIP3    H259586   3.200   1.076   4.697 -0.9852  1.2160  0.5307
12699TIP3   OH259587   0.181   6.839  17.007 -0.7887 -0.0317 -0.3187
12699TIP3    H159588   0.210   6.792  16.929  1.1000 -0.6003  0.6718
12699TIP3    H259589   0.201   6.931  16.988  0.7299 -0.2919 -0.0940
12700TIP3   OH259590   4.041   4.808  16.839  0.4737  0.3826 -0.2422
12700TIP3    H159591   3.949   4.782  16.848  0.7012 -0.4902 -0.3303
12700TIP3    H259592   4.075   4.750  16.771  1.8095 -1.2796  1.7272
12701TIP3   OH259593   5.173   5.680  14.649 -0.3166 -0.3004 -0.1450
12701TIP3    H159594   5.190   5.772  14.628  0.9845 -0.3620  0.5802
12701TIP3    H259595   5.254   5.648  14.688 -0.7365 -1.7792 -0.4202
12702TIP3   OH259596   5.333   0.497  13.947  0.5713  0.2532 -0.6334
12702TIP3    H159597   5.277   0.553  14.001  0.6393 -0.2971  0.0319
12702TIP3    H259598   5.296   0.502  13.859 -1.1655 -0.8767 -0.0244
12703TIP3   OH259599   0.537   1.129   3.907 -0.3522  0.4092  0.4249
12703TIP3    H159600   0.445   1.141   3.884 -0.4439 -0.3039  0.3890
12703TIP3    H259601   0.552   1.035   3.894  0.4224  0.5511  0.2778
12704TIP3   OH259602   1.502   5.843  11.622 -0.0555 -0.0734 -0.4330
12704TIP3    H159603   1.488   5.771  11.684  1.1612 -0.5910 -0.7518
12704TIP3    H259604   1.414   5.877  11.606 -0.4176  0.1697  1.6797
12705TIP3   OH259605   3.455   3.098  14.329 -0.1243  0.5282 -0.2594
12705TIP3    H159606   3.517   3.067  14.263  1.0000  1.1401  0.4786
12705TIP3    H259607   3.475   3.047  14.407  1.9709  3.0984  1.0787
12706TIP3   OH259608   5.762   4.210   2.395 -0.0112 -0.1976 -0.0535
12706TIP3    H159609   5.718   4.292   2.420  0.6218  0.0901  0.1407
12706TIP3    H259610   5.768   4.215   2.299  0.7959  0.4036  0.0118
12707TIP3   OH259611   0.168   5.107   1.046 -0.3561 -0.7657  0.0372
12707TIP3    H159612   0.204   5.022   1.069 -0.8877 -1.0240 -0.0630
12707TIP3    H259613   0.177   5.160   1.125 -0.8320 -1.1916  0.3827
12708TIP3   OH259614   3.500   4.307  11.487  0.6389 -0.2525  0.2920
12708TIP3    H159615   3.536   4.220  11.507 -1.7839 -1.6620 -0.9978
12708TIP3    H259616   3.408   4.302  11.515  0.5958  2.1650  0.7985
12709TIP3   OH259617   3.757   3.689   1.857  0.1084 -0.0128  0.9933
12709TIP3    H159618   3.731   3.729   1.940  1.2930  1.0105  0.9070
12709TIP3    H259619   3.852   3.683   1.863  0.0768 -1.4479  0.3572
12710TIP3   OH259620   0.621   5.103  14.983  0.2128  0.0270 -0.0525
12710TIP3    H159621   0.638   5.186  15.027  2.0295 -2.1804  3.8491
12710TIP3    H259622   0.687   5.098  14.914 -0.5914  2.1663 -1.0684
12711TIP3   OH259623   4.047   1.315  15.179 -0.3546  0.3101 -0.1719
12711TIP3    H159624   4.094   1.307  15.096 -1.2148  1.0789 -0.7547
12711TIP3    H259625   3.992   1.393  15.168 -0.9335  0.0763  0.9012
12712TIP3   OH259626   4.122   5.610  13.024 -0.2314 -0.1690 -0.7674
12712TIP3    H159627   4.148   5.552  12.952  1.8987 -0.8667  0.4802
12712TIP3    H259628   4.029   5.591  13.037 -0.7805  0.1941 -3.4592
12713TIP3   OH259629   3.900   5.738  16.242  0.1060  0.6513  0.3032
12713TIP3    H159630   3.973   5.706  16.190  0.4080  0.1907  0.9922
12713TIP3    H259631   3.928   5.825  16.271 -0.1540  1.0020 -0.4630
12714TIP3   OH259632   2.606   4.001  13.758 -0.3558  0.3773 -0.2053
12714TIP3    H159633   2.677   4.043  13.709  1.0100 -0.9443  0.5442
12714TIP3    H259634   2.649   3.962  13.834 -0.9260 -4.3814 -1.9409
12715TIP3   OH259635   4.315   6.636  12.377  0.1625  0.2933 -0.2518
12715TIP3    H159636   4.393   6.676  12.338 -0.2664  1.2017 -0.2020
12715TIP3    H259637   4.272   6.591  12.304 -0.1727  1.2439 -0.6555
12716TIP3   OH259638   1.241   0.646  16.165  0.3577  0.0387  0.2882
12716TIP3    H159639   1.237   0.591  16.087 -2.3085 -0.7408  0.8845
12716TIP3    H259640   1.181   0.605  16.227 -0.0042  2.3656  1.6029
12717TIP3   OH259641   3.961   5.523   2.352  0.1930  0.0546  0.0921
12717TIP3    H159642   4.048   5.509   2.317  1.3979 -3.7283  3.8201
12717TIP3    H259643   3.974   5.588   2.422 -0.2489  0.3473 -0.0921
12718TIP3   OH259644   3.460   2.139  16.622  0.3113  0.1984  0.2965
12718TIP3    H159645   3.473   2.066  16.682 -0.8682 -0.6623 -0.4532
12718TIP3    H259646   3.459   2.099  16.535  0.5727  1.2274 -0.1982
12719TIP3   OH259647   4.132   3.046  14.806  0.2040 -0.9258  0.8859
12719TIP3    H159648   4.108   3.124  14.756  1.5751 -1.7853 -1.2835
12719TIP3    H259649   4.093   3.059  14.892 -0.6605  1.5508  0.1960
12720TIP3   OH259650   4.197   1.238   6.537 -0.5494 -0.3463  0.0716
12720TIP3    H159651   4.175   1.306   6.474  0.8263  0.1484  0.0869
12720TIP3    H259652   4.154   1.159   6.503 -1.6225  0.3799 -0.2889
12721TIP3   OH259653   0.205   3.156   1.004  0.8064 -0.8823 -0.3275
12721TIP3    H159654   0.300   3.145   1.000  0.7663 -1.0070 -0.8901
12721TIP3    H259655   0.169   3.080   0.959  0.3768 -1.8354  1.5003
12722TIP3   OH259656   3.185   2.810  13.909  0.1930 -0.1403  0.5639
12722TIP3    H159657   3.119   2.750  13.945  0.2126  1.3678  3.3935
12722TIP3    H259658   3.145   2.897  13.918  0.6284  0.4568 -2.3757
12723TIP3   OH259659   1.402   3.358  15.229  0.2651  0.7678  0.0753
12723TIP3    H159660   1.313   3.364  15.194  1.1525  0.5771 -2.4747
12723TIP3    H259661   1.395   3.300  15.305 -1.4126 -1.4759 -1.6632
12724TIP3   OH259662   4.485   4.418  15.622  0.1789  0.5655  0.2924
12724TIP3    H159663   4.561   4.414  15.679  0.0494 -0.5140  0.4073
12724TIP3    H259664   4.428   4.347  15.652 -0.2439  0.4715 -0.6829
12725TIP3   OH259665   3.728   5.347   3.739  0.4951 -0.0012 -0.2968
12725TIP3    H159666   3.710   5.264   3.694 -2.1598  0.3256  0.0270
12725TIP3    H259667   3.701   5.414   3.676  1.3485  0.6068 -0.0277
12726TIP3   OH259668   3.248   4.469  15.847 -0.6658 -0.3761  0.2644
12726TIP3    H159669   3.273   4.512  15.765  0.8531 -2.0824 -0.2497
12726TIP3    H259670   3.327   4.473  15.901 -1.6785  0.8231  1.7475
12727TIP3   OH259671   3.383   2.121   5.265  0.0166  0.8058 -0.1466
12727TIP3    H159672   3.470   2.161   5.263  0.7829 -0.6857  1.2010
12727TIP3    H259673   3.371   2.087   5.176  1.1060  0.4403 -0.1673
12728TIP3   OH259674   1.318   6.417  13.162 -0.1522  0.0384 -0.2529
12728TIP3    H159675   1.374   6.407  13.239  0.2459  2.9833 -0.0390
12728TIP3    H259676   1.231   6.433  13.198 -0.3786 -0.6296 -0.4912
12729TIP3   OH259677   2.451   3.269  15.683  0.0751 -0.0405 -0.0167
12729TIP3    H159678   2.499   3.207  15.628 -1.2186  0.3942 -1.7152
12729TIP3    H259679   2.422   3.217  15.758 -0.3828 -1.3445 -1.0557
12730TIP3   OH259680   2.580   1.984  13.039  1.2041 -0.4702 -0.1248
12730TIP3    H159681   2.539   1.912  12.992 -0.9685 -0.5427  1.7142
12730TIP3    H259682   2.623   1.943  13.115  0.1779  0.0800  0.7901
12731TIP3   OH259683   0.938   0.100   2.850  0.1755  0.2693 -0.1563
12731TIP3    H159684   0.932   0.180   2.799 -0.3678  0.5851  0.3986
12731TIP3    H259685   0.851   0.060   2.844  1.1800 -1.8826 -2.9460
12732TIP3   OH259686   0.204   3.072  11.830  0.3214 -0.0140  0.0807
12732TIP3    H159687   0.184   3.020  11.908 -1.5787 -3.1417 -2.2578
12732TIP3    H259688   0.119   3.100  11.797  1.0845  1.2782 -0.9247
12733TIP3   OH259689   1.799   5.828  10.595 -0.1690  0.5800 -0.0589
12733TIP3    H159690   1.711   5.801  10.567 -1.0833  3.3780 -0.1597
12733TIP3    H259691   1.857   5.767  10.550 -1.9795 -0.1973 -1.5123
12734TIP3   OH259692   3.304   1.367   4.485 -0.4943  0.4724 -0.3906
12734TIP3    H159693   3.246   1.301   4.446  0.8213 -0.7411 -0.3608
12734TIP3    H259694   3.353   1.320   4.552  1.8158  0.9798 -1.6236
12735TIP3   OH259695   3.861   6.468  11.423  0.8901  0.0148  0.4254
12735TIP3    H159696   3.845   6.504  11.510  2.4952  0.3824  0.6033
12735TIP3    H259697   3.801   6.393  11.416 -1.9027  2.1089  0.3882
12736TIP3   OH259698   6.734   3.661   4.078 -0.0939 -0.1378  0.4988
12736TIP3    H159699   6.687   3.635   3.999  0.1700 -0.6390  0.5014
12736TIP3    H259700   6.818   3.695   4.046 -1.2076  2.7014  0.3361
12737TIP3   OH259701   1.626   6.122  10.886 -0.1488 -0.0072 -0.1965
12737TIP3    H159702   1.576   6.190  10.842 -2.0819  0.3774  2.3550
12737TIP3    H259703   1.701   6.105  10.829 -0.5943  2.9387 -1.7888
12738TIP3   OH259704   0.157   4.459  13.775 -0.0643  0.1159 -0.0019
12738TIP3    H159705   0.219   4.451  13.847 -1.1204 -0.4145  0.8631
12738TIP3    H259706   0.191   4.401  13.707  0.4325 -0.1028  0.4289
12739TIP3   OH259707   1.883   2.559  13.973 -0.4416  0.0435 -0.1165
12739TIP3    H159708   1.809   2.613  14.001 -0.5279 -0.9419  1.7544
12739TIP3    H259709   1.939   2.554  14.051  2.6928  2.3475 -1.9414
12740TIP3   OH259710   3.636   4.392   0.970  1.2291 -0.5518  0.1224
12740TIP3    H159711   3.637   4.457   1.040 -1.5779  0.1727 -0.4101
12740TIP3    H259712   3.645   4.308   1.016  3.1305  0.0569  0.9647
12741TIP3   OH259713   1.954   2.225  14.148 -0.4641  0.3827 -0.6722
12741TIP3    H159714   1.916   2.138  14.160  0.8790  0.0372  1.4801
12741TIP3    H259715   1.984   2.226  14.057 -2.3065 -0.6194 -1.3364
12742TIP3   OH259716   0.938   6.042   1.832  0.6702  0.1987  0.0834
12742TIP3    H159717   0.892   6.116   1.871  1.4563  0.5220  0.4286
12742TIP3    H259718   1.021   6.038   1.879  0.6404 -0.9062  0.0624
12743TIP3   OH259719   6.618   6.025  13.236  0.2396  0.0196 -0.1346
12743TIP3    H159720   6.561   5.953  13.209  0.7852 -0.1161 -0.9497
12743TIP3    H259721   6.566   6.073  13.302 -0.2229 -0.9517  0.2226
12744TIP3   OH259722   6.704   5.746   4.666  0.1413  0.1278 -0.3946
12744TIP3    H159723   6.619   5.754   4.710 -0.7196 -0.4649 -1.8948
12744TIP3    H259724   6.698   5.803   4.590  0.8724 -0.3598 -0.8373
12745TIP3   OH259725   3.545   1.001  11.507 -0.1164 -0.2964 -0.2684
12745TIP3    H159726   3.553   0.976  11.415 -0.1267  1.4833 -0.7960
12745TIP3    H259727   3.599   1.080  11.514 -0.5250 -0.1317  1.1344
12746TIP3   OH259728   6.072   6.333  14.242  0.8677 -0.5146  0.1707
12746TIP3    H159729   6.131   6.385  14.296  0.4768 -0.6711  0.7649
12746TIP3    H259730   5.988   6.336  14.289  0.6358 -1.0217 -0.1972
12747TIP3   OH259731   1.887   2.712  12.468  0.5338  0.6833  0.2083
12747TIP3    H159732   1.856   2.639  12.415  1.0213  0.2805  0.4669
12747TIP3    H259733   1.924   2.774  12.405  1.1100  0.2066  0.0736
12748TIP3   OH259734   3.821   4.365  11.423 -0.1764 -0.4817  0.4677
12748TIP3    H159735   3.831   4.285  11.475 -0.0721 -1.0153 -0.3586
12748TIP3    H259736   3.854   4.435  11.480  0.1918 -1.0917  1.0132
12749TIP3   OH259737   4.755   2.395   3.149 -0.2008  0.1335 -0.0689
12749TIP3    H159738   4.697   2.322   3.127  0.7460 -0.1391 -1.7631
12749TIP3    H259739   4.839   2.373   3.110  0.3987  1.6589  0.2679
12750TIP3   OH259740   6.531   5.795  15.461 -0.0340  0.8021 -0.1036
12750TIP3    H159741   6.497   5.876  15.423  0.8990  1.9405  1.3756
12750TIP3    H259742   6.484   5.786  15.544 -1.0762 -0.9174 -0.8289
12751TIP3   OH259743   2.266   3.978   5.394 -0.7859 -0.1939 -0.0313
12751TIP3    H159744   2.289   3.958   5.303  0.7119  0.2157  0.2364
12751TIP3    H259745   2.228   4.066   5.391 -1.6359 -0.5574 -0.3690
12752TIP3   OH259746   6.368   1.524   4.079  0.1376 -0.2674  0.3897
12752TIP3    H159747   6.456   1.536   4.044 -0.1202 -1.5188 -0.7471
12752TIP3    H259748   6.350   1.431   4.068 -1.1884 -0.1026  0.9530
12753TIP3   OH259749   1.488   1.002   4.631  0.4411 -0.3532  0.1726
12753TIP3    H159750   1.525   1.029   4.548  2.6795 -1.5574  0.7021
12753TIP3    H259751   1.440   0.921   4.612 -1.7419  0.9928 -0.4358
12754TIP3   OH259752   2.527   4.483  15.084  0.2162 -0.8010 -0.2577
12754TIP3    H159753   2.444   4.448  15.117 -0.0999  0.4204  0.3278
12754TIP3    H259754   2.507   4.512  14.995 -0.2443  0.2723  0.1742
12755TIP3   OH259755   6.210   1.560   1.702  0.8583 -0.1885  0.0755
12755TIP3    H159756   6.294   1.532   1.664  0.3276 -0.2429 -1.1046
12755TIP3    H259757   6.171   1.479   1.736  0.3543 -0.5349 -1.2720
12756TIP3   OH259758   0.598   2.178  14.489  0.0059 -0.1550  0.1537
12756TIP3    H159759   0.509   2.210  14.505  0.3269  1.1190 -0.5164
12756TIP3    H259760   0.645   2.198  14.570  0.2180  1.1456 -0.2824
12757TIP3   OH259761   3.267   5.252   1.510  0.0775 -0.0879 -0.3166
12757TIP3    H159762   3.252   5.173   1.458  2.7603 -1.9817  1.5593
12757TIP3    H259763   3.222   5.235   1.593  0.4402  0.4799  0.0027
12758TIP3   OH259764   5.752   2.188   4.694 -0.0813 -0.2569  0.1988
12758TIP3    H159765   5.834   2.236   4.682 -0.1178 -0.1506  0.3719
12758TIP3    H259766   5.714   2.184   4.607 -0.6139  0.9849  0.3606
12759TIP3   OH259767   6.294   3.471   0.813  0.0861 -0.4970 -0.4093
12759TIP3    H159768   6.213   3.477   0.864  0.4957  0.9736  0.1219
12759TIP3    H259769   6.274   3.409   0.743 -1.1820 -0.8993  0.2874
12760TIP3   OH259770   0.307   6.597   3.500 -0.2763 -0.0778  0.1548
12760TIP3    H159771   0.283   6.546   3.578  0.2418 -2.4614 -1.1381
12760TIP3    H259772   0.229   6.648   3.480 -0.9668 -0.6020  1.3603
12761TIP3   OH259773   0.963   1.572   6.061  0.0671  0.2108 -0.3665
12761TIP3    H159774   0.943   1.639   5.996 -2.0866  1.4340  1.4211
12761TIP3    H259775   0.898   1.585   6.130  0.5878 -2.7130  0.8231
12762TIP3   OH259776   4.599   0.449  14.088  0.7650 -0.3399  0.4840
12762TIP3    H159777   4.655   0.475  14.014 -0.2339  0.4952 -0.0150
12762TIP3    H259778   4.517   0.422  14.046 -0.1419  1.0026  1.3026
12763TIP3   OH259779   4.937   1.774  13.966 -0.4232 -0.2531 -0.0495
12763TIP3    H159780   4.899   1.709  13.907  0.9837 -1.3903  0.2492
12763TIP3    H259781   5.004   1.726  14.015  2.8873  2.0092 -1.9587
12764TIP3   OH259782   0.386   2.181  11.731 -0.4094 -0.8342 -0.0561
12764TIP3    H159783   0.410   2.206  11.820 -0.1632  3.9742 -1.1825
12764TIP3    H259784   0.465   2.144  11.693  0.7163  0.6847  0.7001
12765TIP3   OH259785   3.508   0.107  15.480  0.2558  0.0553  0.1876
12765TIP3    H159786   3.456   0.027  15.491 -2.1399  1.4971  0.0742
12765TIP3    H259787   3.463   0.172  15.534  0.6063  1.9491 -1.6849
12766TIP3   OH259788   0.282   1.951  11.305  0.5327  0.2501 -0.4966
12766TIP3    H159789   0.347   1.962  11.236  0.6145 -0.9188 -0.6170
12766TIP3    H259790   0.227   2.029  11.299  2.8196  2.0914  0.6072
12767TIP3   OH259791   3.715   6.761   0.851 -0.2620  0.4924  0.2175
12767TIP3    H159792   3.636   6.713   0.824 -1.3152  1.8457  0.8052
12767TIP3    H259793   3.747   6.802   0.771  1.5967 -2.3792 -0.6615
12768TIP3   OH259794   0.376   2.647   3.308  0.1058  0.4662 -0.2418
12768TIP3    H159795   0.291   2.605   3.318 -0.1471  0.6301 -1.5412
12768TIP3    H259796   0.431   2.605   3.373 -0.9511  0.3229  0.5870
12769TIP3   OH259797   5.999   0.510   3.684  0.1028  0.6635 -0.9928
12769TIP3    H159798   5.974   0.554   3.765 -1.0266 -0.0023 -0.9548
12769TIP3    H259799   6.084   0.470   3.704 -0.7427 -0.5817  0.3253
12770TIP3   OH259800   1.506   3.851   4.166  0.2722 -0.1017 -0.0540
12770TIP3    H159801   1.438   3.866   4.232  0.1902  0.8559 -0.3361
12770TIP3    H259802   1.457   3.840   4.084  0.3899 -0.9596 -0.0183
12771TIP3   OH259803   1.399   4.905   4.967  0.1107 -0.0384 -0.0122
12771TIP3    H159804   1.369   4.934   5.053  1.4347 -1.4724  0.9777
12771TIP3    H259805   1.319   4.899   4.915 -0.9198 -0.5664  1.5477
12772TIP3   OH259806   4.424   2.490   3.209 -0.1548  0.1574 -0.1588
12772TIP3    H159807   4.403   2.444   3.291 -1.9842 -2.0507 -1.7423
12772TIP3    H259808   4.487   2.433   3.165  0.1720  0.9164 -0.6934
12773TIP3   OH259809   0.748   0.929   2.974  0.5742 -0.6398  0.3333
12773TIP3    H159810   0.659   0.892   2.971  0.5918 -0.7480  0.9566
12773TIP3    H259811   0.775   0.934   2.882 -0.4575  0.3217  0.0551
12774TIP3   OH259812   2.973   0.061  11.882  0.2448  0.2773  0.1868
12774TIP3    H159813   2.922   0.027  11.809 -0.6415  1.3562  0.2799
12774TIP3    H259814   2.928   0.027  11.960  0.5257  0.0541  0.2550
12775TIP3   OH259815   2.953   2.009   0.846  0.1450  0.5262  0.4423
12775TIP3    H159816   2.878   1.952   0.831  0.5887  0.3552 -1.3771
12775TIP3    H259817   2.975   1.996   0.939 -0.5819 -1.2452  0.4035
12776TIP3   OH259818   5.950   0.826  13.208  0.2215  0.5600  0.0389
12776TIP3    H159819   5.900   0.834  13.127 -1.2762  0.6444  0.9485
12776TIP3    H259820   6.031   0.874  13.190 -0.9668  2.4117 -0.6958
12777TIP3   OH259821   2.533   0.233   3.566  0.8541  0.0116 -0.0662
12777TIP3    H159822   2.536   0.326   3.588  1.2669 -0.2179  0.8906
12777TIP3    H259823   2.491   0.192   3.641 -2.0409 -0.2564 -1.7023
12778TIP3   OH259824   4.604   6.644  12.437  0.1341  0.0481  0.2057
12778TIP3    H159825   4.642   6.596  12.511 -1.0787 -0.3034  0.6233
12778TIP3    H259826   4.551   6.712  12.478  0.3077  0.5352 -0.3644
12779TIP3   OH259827   4.121   2.047   1.619 -0.0751 -0.1092 -0.3958
12779TIP3    H159828   4.210   2.059   1.652 -0.5152 -1.2238  1.2983
12779TIP3    H259829   4.082   1.982   1.677 -1.4144 -1.0432 -2.2232
12780TIP3   OH259830   5.651   3.784   2.380  0.1310  0.2326  0.2672
12780TIP3    H159831   5.634   3.704   2.429 -1.1073  0.2025 -0.1643
12780TIP3    H259832   5.571   3.835   2.389  0.6383  1.1134 -0.0618
12781TIP3   OH259833   2.070   3.515   4.691  0.2015 -0.4639  0.5257
12781TIP3    H159834   2.058   3.458   4.767  0.7445 -0.0415  0.9337
12781TIP3    H259835   2.002   3.487   4.629 -0.1423 -0.9197  1.0999
12782TIP3   OH259836   3.870   3.420  12.691  0.4424  0.0944 -0.4806
12782TIP3    H159837   3.932   3.413  12.764 -1.1041  1.7434  1.0803
12782TIP3    H259838   3.806   3.351  12.708  0.2029  0.3371 -0.3923
12783TIP3   OH259839   4.413   5.162   5.467 -0.2001  0.3959 -0.5311
12783TIP3    H159840   4.397   5.172   5.561 -0.5649  0.8320 -0.6357
12783TIP3    H259841   4.337   5.113   5.434 -0.7645  1.4364 -0.8247
12784TIP3   OH259842   1.083   3.584   1.486  0.2788  0.0056  0.7038
12784TIP3    H159843   1.009   3.554   1.434  0.2092 -1.2599  1.4958
12784TIP3    H259844   1.047   3.596   1.574  0.6141  1.1466  0.7002
12785TIP3   OH259845   1.670   0.171   3.679 -0.3985  0.7035  0.2731
12785TIP3    H159846   1.689   0.244   3.621  0.2123  0.8624  0.6671
12785TIP3    H259847   1.613   0.113   3.628 -1.5538  1.8298  0.2285
12786TIP3   OH259848   6.522   3.126   6.111 -0.2939 -0.3117  0.4261
12786TIP3    H159849   6.487   3.055   6.058 -1.7906  0.4934  0.3006
12786TIP3    H259850   6.473   3.121   6.193 -0.4229  0.5826  0.4117
12787TIP3   OH259851   4.610   2.822  12.637 -0.2975  0.0675 -0.0799
12787TIP3    H159852   4.578   2.774  12.713  0.7344 -0.3337  0.1126
12787TIP3    H259853   4.649   2.755  12.581  0.7018  0.6067 -0.0459
12788TIP3   OH259854   5.313   4.254   1.534 -0.0512  0.7195  0.3913
12788TIP3    H159855   5.315   4.289   1.445  0.1203 -0.6132 -0.1619
12788TIP3    H259856   5.287   4.163   1.522 -0.6276  0.6861  1.7727
12789TIP3   OH259857   4.213   3.251   3.703 -0.4785  0.4994  0.1349
12789TIP3    H159858   4.257   3.202   3.772 -2.4169 -0.4674  0.7482
12789TIP3    H259859   4.167   3.185   3.652  0.4764  1.2543 -1.7932
12790TIP3   OH259860   1.046   5.118  15.139  0.3452 -0.0506  0.1515
12790TIP3    H159861   1.110   5.170  15.187 -0.7466  0.2427  1.3695
12790TIP3    H259862   1.091   5.036  15.119  1.1560  0.2222  0.8159
12791TIP3   OH259863   1.552   4.875  15.581 -0.2932 -0.5718  0.6477
12791TIP3    H159864   1.554   4.967  15.609 -3.8713  0.0950 -0.7136
12791TIP3    H259865   1.546   4.826  15.663  0.0112  0.5215  1.3516
12792TIP3   OH259866   0.111   5.230  13.709  0.2822 -0.4443 -0.2862
12792TIP3    H159867   0.104   5.214  13.803 -0.4100 -1.6089 -0.5284
12792TIP3    H259868   0.021   5.239  13.678  0.5289  2.0550 -0.5274
12793TIP3   OH259869   3.838   6.816   2.763  0.2436 -0.1067 -0.0716
12793TIP3    H159870   3.784   6.738   2.777  0.4921 -0.6878 -2.0505
12793TIP3    H259871   3.927   6.782   2.755  0.1821  0.1310 -2.4824
12794TIP3   OH259872   3.004   1.424   5.338  0.0546 -0.1536  0.0169
12794TIP3    H159873   3.093   1.392   5.323  0.3939  0.2002  1.1922
12794TIP3    H259874   2.947   1.353   5.308  0.7520 -0.8199  0.2673
12795TIP3   OH259875   1.111   0.194   4.172  0.1862  0.4550  0.4614
12795TIP3    H159876   1.074   0.270   4.126 -1.2358 -0.1759  0.5162
12795TIP3    H259877   1.206   0.202   4.158 -0.0753  1.1293 -1.2505
12796TIP3   OH259878   0.124   4.879   4.414 -0.6067  0.5683  0.3608
12796TIP3    H159879   0.032   4.895   4.433 -0.7986 -0.3679  0.2427
12796TIP3    H259880   0.160   4.966   4.398 -2.4389  0.7658 -4.0967
12797TIP3   OH259881   6.741   0.463   3.663 -0.5704 -0.5018  0.1182
12797TIP3    H159882   6.815   0.447   3.603 -0.8925  0.3072 -0.5140
12797TIP3    H259883   6.775   0.525   3.727 -1.0781  0.9248 -0.9621
12798TIP3   OH259884   5.851   5.161  11.573  0.2148 -0.0267  0.0854
12798TIP3    H159885   5.828   5.234  11.516 -2.4273 -0.3854  0.5654
12798TIP3    H259886   5.908   5.105  11.520 -1.7388 -0.0957 -2.0613
12799TIP3   OH259887   4.216   5.668  16.318 -0.5588  0.2663 -0.6630
12799TIP3    H159888   4.212   5.761  16.340  0.7991 -0.0612  1.2072
12799TIP3    H259889   4.194   5.664  16.225 -3.1934  2.1585 -0.2288
12800TIP3   OH259890   4.659   0.984  13.420  0.0549  0.5250 -0.0736
12800TIP3    H159891   4.585   1.006  13.477  0.6938  0.2192  0.8841
12800TIP3    H259892   4.701   0.910  13.462  1.5610  1.3639 -0.0158
12801TIP3   OH259893   0.062   5.483   5.542 -0.6021 -0.0059 -0.2140
12801TIP3    H159894  -0.030   5.466   5.520 -0.2687 -1.5419 -0.5218
12801TIP3    H259895   0.067   5.466   5.636 -0.3056 -1.5704 -0.4908
12802TIP3   OH259896   6.238   6.347  13.543 -0.5185 -0.2804 -0.2200
12802TIP3    H159897   6.252   6.282  13.612  1.5312 -0.2669 -0.5723
12802TIP3    H259898   6.279   6.309  13.465 -0.2949  0.9463 -0.7178
12803TIP3   OH259899   3.292   5.415  12.157 -0.8190  0.4267  0.3301
12803TIP3    H159900   3.287   5.430  12.062 -1.1219  0.0638  0.2833
12803TIP3    H259901   3.385   5.402  12.175 -0.8518 -0.4040 -0.0633
12804TIP3   OH259902   2.126   5.459   0.445  0.0589  0.4116 -0.1428
12804TIP3    H159903   2.061   5.394   0.469  0.4873 -0.2822 -0.8018
12804TIP3    H259904   2.167   5.486   0.527 -0.0124 -0.2767  0.1188
12805TIP3   OH259905   5.991   0.944  13.446 -0.4872  0.1928  0.1653
12805TIP3    H159906   5.963   1.035  13.431 -0.0691  0.7671  2.5346
12805TIP3    H259907   5.968   0.899  13.364 -1.2191  2.2872 -0.8711
12806TIP3   OH259908   4.426   1.777  12.734 -0.2008 -0.2071  0.3178
12806TIP3    H159909   4.453   1.704  12.789  1.4638  0.1447  0.0170
12806TIP3    H259910   4.354   1.743  12.682  0.3482 -1.5487  0.4053
12807TIP3   OH259911   5.758   2.309  13.084 -0.3599 -0.1952  0.0768
12807TIP3    H159912   5.746   2.302  12.989  2.6425 -1.1436 -0.3351
12807TIP3    H259913   5.765   2.403  13.100 -2.1500  0.0572 -0.3987
12808TIP3   OH259914   5.624   3.900   3.298 -0.5054  0.0193 -0.1149
12808TIP3    H159915   5.605   3.966   3.232  1.5416 -0.1161 -0.8997
12808TIP3    H259916   5.601   3.817   3.255  0.0841 -0.0111 -0.3781
12809TIP3   OH259917   1.019   2.410  11.436 -0.3753 -0.4163 -0.1978
12809TIP3    H159918   1.106   2.397  11.397  1.4774  1.1190  2.9501
12809TIP3    H259919   1.012   2.505  11.445 -2.4730 -0.5168 -0.4785
12810TIP3   OH259920   0.291   6.430   2.099  0.0923 -0.1586 -0.2883
12810TIP3    H159921   0.225   6.450   2.165  0.7436 -1.9177  0.9697
12810TIP3    H259922   0.243   6.379   2.033 -0.6697  2.0063 -1.5220
12811TIP3   OH259923   1.978   6.801  14.170 -0.2543 -0.2950  0.3031
12811TIP3    H159924   1.906   6.753  14.128 -0.9102  1.2934 -0.4659
12811TIP3    H259925   2.057   6.753  14.145 -0.8829 -0.9641 -0.4431
12812TIP3   OH259926   3.656   3.531   2.423  0.0156 -0.4326 -0.1845
12812TIP3    H159927   3.633   3.475   2.496  4.3306 -0.4102  1.4825
12812TIP3    H259928   3.673   3.471   2.350  0.2981 -0.9047  0.2685
12813TIP3   OH259929   1.084   3.079   0.815 -0.1715 -0.0733 -0.2749
12813TIP3    H159930   1.179   3.076   0.828 -0.2978  0.5305  1.0622
12813TIP3    H259931   1.061   2.991   0.785  0.8639 -0.0744 -1.1312
12814TIP3   OH259932   0.931   1.637  12.874  0.3974  0.3682  0.3227
12814TIP3    H159933   1.000   1.591  12.825  1.7189  1.8857  0.6711
12814TIP3    H259934   0.973   1.717  12.906 -1.4853  1.2406  0.7690
12815TIP3   OH259935   5.532   0.684   4.564 -0.1309  0.2303  0.5534
12815TIP3    H159936   5.602   0.720   4.619 -0.0632  0.8351  0.0856
12815TIP3    H259937   5.554   0.592   4.555  1.5917  0.7279 -0.9828
12816TIP3   OH259938   6.140   0.365   2.167 -0.1191 -0.1822 -0.0080
12816TIP3    H159939   6.228   0.336   2.192  0.4600  0.8193 -0.7890
12816TIP3    H259940   6.117   0.431   2.233 -0.3213 -0.5017  0.2425
12817TIP3   OH259941   5.230   6.612  11.851 -0.2812  0.5028 -0.0025
12817TIP3    H159942   5.198   6.524  11.872 -1.0947  1.3697  2.8138
12817TIP3    H259943   5.325   6.602  11.843 -0.3581 -0.6278  0.3358
12818TIP3   OH259944   4.912   3.315  16.504  0.0463  0.1490  0.2491
12818TIP3    H159945   4.828   3.354  16.477 -0.0952  0.3832  0.9994
12818TIP3    H259946   4.896   3.284  16.593 -0.4715 -3.4952 -0.9448
12819TIP3   OH259947   1.683   0.055  13.505 -0.0180 -0.2075 -0.0511
12819TIP3    H159948   1.664   0.089  13.592  0.2868  2.5619 -0.9814
12819TIP3    H259949   1.735  -0.024  13.521  0.7684  0.7148  2.2544
12820TIP3   OH259950   2.855   3.651   5.091 -0.0238  0.2016  0.3288
12820TIP3    H159951   2.825   3.562   5.109  0.4955  0.0100  0.2674
12820TIP3    H259952   2.950   3.646   5.101 -0.0327  0.8587  0.7826
12821TIP3   OH259953   0.538   6.521  12.282 -0.1559 -0.1449  0.2996
12821TIP3    H159954   0.607   6.495  12.221 -1.2178 -1.9444 -0.2298
12821TIP3    H259955   0.467   6.552  12.226 -0.1545  0.7832  0.7914
12822TIP3   OH259956   4.714   5.155  11.606  0.4091 -0.1113 -0.7549
12822TIP3    H159957   4.618   5.149  11.600  0.3320 -0.1348  0.3320
12822TIP3    H259958   4.735   5.240  11.566 -0.0259 -0.2362 -1.2699
12823TIP3   OH259959   0.561   2.124  16.070 -0.0501  0.5457 -0.6958
12823TIP3    H159960   0.497   2.106  16.001  0.0726  1.6407 -1.1181
12823TIP3    H259961   0.632   2.063  16.053 -2.3316 -3.2316  1.8279
12824TIP3   OH259962   6.577   0.228   1.520  0.0420  0.0759  0.4696
12824TIP3    H159963   6.593   0.135   1.503  0.5844  0.1770  0.4153
12824TIP3    H259964   6.637   0.273   1.461  0.4238  0.4537  1.1380
12825TIP3   OH259965   6.425   1.831  13.659  0.1494 -0.0097 -0.1578
12825TIP3    H159966   6.506   1.877  13.679  0.2123  1.3291 -3.0567
12825TIP3    H259967   6.361   1.900  13.642 -0.2303 -0.8980 -2.8196
12826TIP3   OH259968   0.985   3.757   3.906 -0.4768  0.0302  0.4697
12826TIP3    H159969   1.063   3.771   3.853 -1.1975  0.0083 -0.6350
12826TIP3    H259970   0.970   3.841   3.950 -0.1744  0.2102  0.2283
12827TIP3   OH259971   2.480   6.329  13.627  0.6526 -0.1741  0.2656
12827TIP3    H159972   2.509   6.252  13.674 -1.4352 -0.8337  0.5919
12827TIP3    H259973   2.498   6.310  13.535 -0.3495 -1.3380  0.2851
12828TIP3   OH259974   0.258   1.363  17.152  0.2053  1.0026 -0.1787
12828TIP3    H159975   0.302   1.347  17.235  0.6461 -2.5682 -0.9575
12828TIP3    H259976   0.330   1.380  17.090  0.2141 -0.4537 -0.5921
12829TIP3   OH259977   0.396   4.102  15.263  0.1588 -0.0611  0.3083
12829TIP3    H159978   0.437   4.147  15.337  1.9078 -1.9900  0.6028
12829TIP3    H259979   0.407   4.009  15.282 -1.2742 -0.6411 -1.3770
12830TIP3   OH259980   4.866   2.047   5.627 -0.0765  0.4296 -0.4268
12830TIP3    H159981   4.841   1.987   5.698 -1.7041  1.3371 -0.1744
12830TIP3    H259982   4.831   2.006   5.548 -1.1988  1.0208 -0.2531
12831TIP3   OH259983   3.961   2.540  14.843 -0.2466 -0.1021  0.1166
12831TIP3    H159984   3.962   2.548  14.748  0.4129  0.0654  0.1389
12831TIP3    H259985   3.939   2.628  14.874 -0.4940 -0.1641  0.1261
12832TIP3   OH259986   5.756   2.604   4.518  0.1101 -0.6191 -0.2642
12832TIP3    H159987   5.728   2.634   4.604  0.0639 -0.4984 -0.3212
12832TIP3    H259988   5.690   2.541   4.491  0.7394 -1.5455  0.2959
12833TIP3   OH259989   3.669   0.366  13.550 -0.3962 -0.3658  0.5976
12833TIP3    H159990   3.677   0.446  13.602  0.1522 -0.5210  0.7557
12833TIP3    H259991   3.597   0.318  13.590 -1.0962  0.2913  0.1709
12834TIP3   OH259992   1.862   4.480   2.779 -0.0886 -0.2367  0.4060
12834TIP3    H159993   1.874   4.396   2.734 -0.3273 -0.1114  0.1134
12834TIP3    H259994   1.941   4.530   2.759  0.0702 -0.4024  0.6092
12835TIP3   OH259995   3.674   0.201   6.017  0.5487  0.2723 -0.6317
12835TIP3    H159996   3.608   0.202   6.086  0.7895  1.5472 -0.4047
12835TIP3    H259997   3.627   0.225   5.938  0.1239 -1.8820 -1.0957
12836TIP3   OH259998   5.720   0.926  15.195  0.3613  0.1115  0.3004
12836TIP3    H159999   5.732   1.009  15.150 -1.7963  1.2184  1.5576
12836TIP3    H260000   5.766   0.937  15.278  1.5454 -0.6562 -0.2311
12837TIP3   OH260001   5.212   0.825  15.409 -0.0866  0.1384  0.1737
12837TIP3    H160002   5.281   0.798  15.348 -2.4360 -0.9270 -2.2105
12837TIP3    H260003   5.208   0.755  15.474 -1.1635 -1.6276 -1.6984
12838TIP3   OH260004   4.183   2.657   1.730  0.3831  0.1175  0.9491
12838TIP3    H160005   4.185   2.633   1.822 -0.2573  2.7635  1.7227
12838TIP3    H260006   4.264   2.705   1.715  1.2741 -1.6888 -0.3448
12839TIP3   OH260007   2.409   4.896  14.584  0.2856 -0.6196  0.8556
12839TIP3    H160008   2.489   4.900  14.532 -0.0944  0.4777  0.3239
12839TIP3    H260009   2.338   4.910  14.520 -0.2879 -0.9088  1.4154
12840TIP3   OH260010   2.321   3.198  15.939  0.2519 -0.3562  0.3489
12840TIP3    H160011   2.233   3.215  15.906  0.6441 -1.3882 -1.2832
12840TIP3    H260012   2.338   3.271  16.000 -0.8360  1.1251 -1.0540
12841TIP3   OH260013   0.891   6.026   5.799 -0.3721 -0.4520 -0.3464
12841TIP3    H160014   0.843   5.996   5.876  0.2270  1.5811  0.8747
12841TIP3    H260015   0.973   6.061   5.833 -0.4817  1.3585 -1.7578
12842TIP3   OH260016   1.092   4.138   6.116  0.3486  0.1373  0.4348
12842TIP3    H160017   1.128   4.205   6.173 -0.7739  0.9531  0.2217
12842TIP3    H260018   1.013   4.178   6.078 -0.5567 -1.4217  0.5856
12843TIP3   OH260019   0.459   6.841   2.215 -0.1336 -0.2273  0.4747
12843TIP3    H160020   0.366   6.859   2.231 -0.0399  0.4123  0.3249
12843TIP3    H260021   0.460   6.794   2.132 -0.3167 -0.1820  0.4463
12844TIP3   OH260022   3.781   2.774  14.958  0.5422 -0.4609  0.1582
12844TIP3    H160023   3.792   2.698  15.015 -0.7993 -1.0901 -0.3785
12844TIP3    H260024   3.837   2.841  14.996  1.3609 -1.5522  0.9408
12845TIP3   OH260025   0.436   0.887  11.583 -0.7473 -0.2494  0.6066
12845TIP3    H160026   0.411   0.976  11.608  1.3989  0.2355  1.3051
12845TIP3    H260027   0.357   0.835  11.598 -1.9192  1.4384  0.6340
12846TIP3   OH260028   3.517   2.897  14.918  0.3307  0.9001  0.4318
12846TIP3    H160029   3.604   2.861  14.937  1.1528  2.4062 -0.3201
12846TIP3    H260030   3.459   2.821  14.921  1.4079  0.0819  2.4279
12847TIP3   OH260031   4.906   5.905  14.372  0.4277 -0.0364  0.4315
12847TIP3    H160032   4.909   5.810  14.375  0.7193 -0.0276  0.4341
12847TIP3    H260033   4.996   5.933  14.390  0.2338  0.2528  0.9652
12848TIP3   OH260034   1.299   0.076  11.222  0.7740  0.0594 -0.0329
12848TIP3    H160035   1.296  -0.014  11.252  0.1030 -0.2083 -0.8848
12848TIP3    H260036   1.377   0.112  11.264  1.5124 -1.1458 -0.3194
12849TIP3   OH260037   0.379   1.793  16.263  0.5091  0.4372  0.2264
12849TIP3    H160038   0.333   1.720  16.222 -1.0458  1.0295  0.8514
12849TIP3    H260039   0.354   1.870  16.212 -1.0167  1.1032  1.8623
12850TIP3   OH260040   1.010   4.711   3.252 -0.4385  0.1112 -0.5860
12850TIP3    H160041   1.026   4.793   3.298  1.2006 -0.9348  0.8263
12850TIP3    H260042   1.088   4.698   3.198 -0.5910 -0.6179 -0.6412
12851TIP3   OH260043   2.665   4.942  13.128  0.3275  0.2088  0.5794
12851TIP3    H160044   2.710   5.017  13.089  0.7540 -0.1367  0.4079
12851TIP3    H260045   2.624   4.897  13.054 -0.9730  0.9541  0.8131
12852TIP3   OH260046   4.693   2.802  16.017  0.7858 -0.1554  0.0034
12852TIP3    H160047   4.638   2.824  16.091  1.5657  3.2734 -0.2791
12852TIP3    H260048   4.656   2.720  15.983 -2.1896  0.3960  1.5875
12853TIP3   OH260049   5.362   6.728   2.904 -0.0851  0.0624  0.2406
12853TIP3    H160050   5.303   6.682   2.964 -0.1800 -0.8626 -0.5429
12853TIP3    H260051   5.407   6.658   2.857 -0.1144  0.7762 -0.8708
12854TIP3   OH260052   5.321   2.318   4.945  1.0061 -0.1319 -0.3509
12854TIP3    H160053   5.343   2.260   5.017 -0.5324  1.2388  1.3324
12854TIP3    H260054   5.401   2.370   4.931  1.1975 -0.1203  0.6952
12855TIP3   OH260055   2.390   0.428   3.909 -0.0259  0.0788  0.0853
12855TIP3    H160056   2.304   0.455   3.876  0.4857  2.9525  0.8972
12855TIP3    H260057   2.401   0.338   3.876 -1.9381  0.7650 -2.7584
12856TIP3   OH260058   3.849   1.412  16.162  0.2261 -0.0403  0.1416
12856TIP3    H160059   3.943   1.431  16.151  0.1271  0.6650  0.4813
12856TIP3    H260060   3.844   1.368  16.247  0.1071  1.0579  0.7229
12857TIP3   OH260061   5.396   5.609   2.059  0.7219  0.2769 -0.0677
12857TIP3    H160062   5.473   5.652   2.095  1.3576 -0.1964 -0.8324
12857TIP3    H260063   5.405   5.517   2.084 -0.2474  0.4150  0.9087
12858TIP3   OH260064   2.145   3.470  16.333 -0.4706 -0.0256 -0.2496
12858TIP3    H160065   2.114   3.551  16.373 -1.1018 -1.5772  2.7254
12858TIP3    H260066   2.066   3.418  16.320  0.0766 -0.8134 -0.5137
12859TIP3   OH260067   3.136   2.692   6.210  0.2938 -0.9248  0.5957
12859TIP3    H160068   3.215   2.662   6.164 -0.1160  0.8303 -1.3997
12859TIP3    H260069   3.167   2.762   6.267  0.3227 -1.0040  0.6793
12860TIP3   OH260070   4.763   2.327   1.963  0.0976  0.1469 -0.1008
12860TIP3    H160071   4.812   2.259   1.916  0.8740  1.6107 -1.5140
12860TIP3    H260072   4.823   2.356   2.031 -1.5069 -2.8991  2.9018
12861TIP3   OH260073   0.375   4.879   1.075 -0.3777  0.6438 -0.2149
12861TIP3    H160074   0.421   4.849   0.996  0.8369  0.9521  0.3606
12861TIP3    H260075   0.390   4.974   1.076  1.9345  0.3344  1.8009
12862TIP3   OH260076   0.651   5.812   5.242  0.1399  0.3329  0.0329
12862TIP3    H160077   0.591   5.810   5.167  2.6912 -0.2289 -2.1601
12862TIP3    H260078   0.650   5.903   5.271 -0.4987  0.6891 -1.0331
12863TIP3   OH260079   3.858   4.422  10.519 -0.2302  0.4802 -0.6004
12863TIP3    H160080   3.876   4.339  10.474 -1.8833 -0.3788  0.1927
12863TIP3    H260081   3.793   4.465  10.463 -0.7083  0.3881 -0.1233
12864TIP3   OH260082   4.108   6.052   3.745 -0.7025  0.1801  0.0228
12864TIP3    H160083   4.099   5.977   3.804 -0.2107 -1.0131 -1.3665
12864TIP3    H260084   4.041   6.038   3.678  0.7908 -0.1964 -1.4487
12865TIP3   OH260085   4.294   4.191  12.660  0.2168 -0.4744 -0.1347
12865TIP3    H160086   4.353   4.255  12.700  0.8173 -0.0561 -1.6240
12865TIP3    H260087   4.323   4.106  12.695 -0.4996  0.0065  1.7454
12866TIP3   OH260088   4.428   4.039  15.106 -0.9278  0.2364 -0.2627
12866TIP3    H160089   4.351   4.066  15.155 -0.7538 -0.7600  0.5775
12866TIP3    H260090   4.393   3.985  15.035 -0.9952 -0.5131  0.3263
12867TIP3   OH260091   4.063   4.639  16.495  0.5452 -0.2102  0.0718
12867TIP3    H160092   3.981   4.609  16.535  0.1500 -0.5762 -0.9726
12867TIP3    H260093   4.100   4.560  16.455 -1.2654  0.7651 -4.0655
12868TIP3   OH260094   2.386   4.241  11.364  0.0712 -0.1478 -0.0596
12868TIP3    H160095   2.342   4.158  11.384 -0.5957 -0.2676 -1.8032
12868TIP3    H260096   2.411   4.232  11.272  1.3555  1.0143  0.1418
12869TIP3   OH260097   3.894   4.723  12.232  0.1179 -0.2472 -0.6707
12869TIP3    H160098   3.946   4.646  12.253  0.2685  0.2796  1.0527
12869TIP3    H260099   3.822   4.722  12.294  2.7967  3.5685  3.0717
12870TIP3   OH260100   5.853   3.595  10.908 -0.5470 -0.3642 -0.7849
12870TIP3    H160101   5.854   3.650  10.829 -0.0469  0.6230 -0.1092
12870TIP3    H260102   5.876   3.654  10.979 -0.9209 -1.2578  0.1079
12871TIP3   OH260103   1.954   1.848   3.203 -0.0959  0.1040 -0.1818
12871TIP3    H160104   1.875   1.805   3.171  0.2637 -0.7859  0.1040
12871TIP3    H260105   2.020   1.779   3.206  0.4859  0.6663  0.3324
12872TIP3   OH260106   4.422   1.614  11.822  0.1401 -0.3871  0.4979
12872TIP3    H160107   4.327   1.624  11.819  0.1258 -0.4932  0.5985
12872TIP3    H260108   4.446   1.633  11.913  0.2725  0.1306  0.3601
12873TIP3   OH260109   6.268   4.049  12.039 -0.3976  0.6855  0.5253
12873TIP3    H160110   6.185   4.085  12.071 -0.5107  1.2061 -0.3086
12873TIP3    H260111   6.247   4.017  11.951  0.1768  0.3939  0.4928
12874TIP3   OH260112   5.326   1.059   4.637 -0.4651  0.2535 -0.6307
12874TIP3    H160113   5.402   1.113   4.662 -0.2310 -0.8944  1.3166
12874TIP3    H260114   5.322   1.067   4.541  0.7057  2.1638 -0.5844
12875TIP3   OH260115   3.343   5.004  13.532  0.1498  0.1521 -0.3221
12875TIP3    H160116   3.432   5.033  13.512 -0.1095  0.0773 -1.6631
12875TIP3    H260117   3.303   5.078  13.576  1.1325 -0.1247  1.1266
12876TIP3   OH260118   4.026   5.559  17.145 -0.1922 -0.0922  0.1469
12876TIP3    H160119   3.944   5.532  17.105  0.5446  0.0007 -1.5350
12876TIP3    H260120   4.022   5.527  17.235 -1.9972 -0.1836  0.0577
12877TIP3   OH260121   3.081   4.433  16.145  0.2626  0.3543  0.1695
12877TIP3    H160122   3.148   4.499  16.129  1.0048  0.4218  3.0245
12877TIP3    H260123   3.123   4.350  16.122  1.1853  0.4439  1.4405
12878TIP3   OH260124   6.210   4.928   0.811 -0.2508  0.2118  0.4519
12878TIP3    H160125   6.300   4.936   0.779 -0.8025  1.9930 -0.7886
12878TIP3    H260126   6.181   4.843   0.777  0.5895  0.1134 -0.0670
12879TIP3   OH260127   1.857   0.437   2.476  0.1524  0.1602 -0.2872
12879TIP3    H160128   1.895   0.524   2.484  1.5076 -0.5426  2.2370
12879TIP3    H260129   1.790   0.434   2.544  0.3458 -0.8381 -0.1229
12880TIP3   OH260130   0.947   0.543  16.817 -0.4612 -0.1486 -0.1687
12880TIP3    H160131   0.888   0.552  16.742  0.1217  1.9307 -0.4469
12880TIP3    H260132   0.908   0.599  16.885  0.8665  0.8278 -0.1798
12881TIP3   OH260133   2.109   4.744  10.881 -0.2962  0.6721 -0.9974
12881TIP3    H160134   2.115   4.698  10.797 -3.2151  0.7789 -1.3750
12881TIP3    H260135   2.031   4.707  10.923 -0.6231  2.6969  0.3265
12882TIP3   OH260136   2.912   4.034   3.166 -0.4267 -0.0877 -0.2560
12882TIP3    H160137   2.997   4.010   3.202 -0.4517  2.4810  1.7756
12882TIP3    H260138   2.917   4.009   3.074  2.2178 -0.7346 -0.0027
12883TIP3   OH260139   0.355   6.531   2.811  0.1422  0.2597  0.3739
12883TIP3    H160140   0.340   6.440   2.839 -1.4829  0.3720 -0.0081
12883TIP3    H260141   0.405   6.570   2.883  0.4372 -0.8083  0.7678
12884TIP3   OH260142   1.793   2.134  12.818 -0.4204  0.1037  0.0430
12884TIP3    H160143   1.773   2.135  12.911 -0.7744 -0.3057 -0.0272
12884TIP3    H260144   1.764   2.219  12.785 -0.8064  0.0309  0.1982
12885TIP3   OH260145   5.758   2.766  16.233 -1.0423  0.2155  0.4975
12885TIP3    H160146   5.750   2.786  16.140 -0.6497 -0.0555  0.4024
12885TIP3    H260147   5.714   2.681  16.244 -0.1840 -0.2582  0.3604
12886TIP3   OH260148   0.827   0.278  16.199 -0.5533 -0.5064 -0.3619
12886TIP3    H160149   0.854   0.369  16.196 -2.4131  0.0950 -0.3435
12886TIP3    H260150   0.731   0.281  16.200 -0.7184 -2.3572  2.3124
12887TIP3   OH260151   1.009   3.895  11.500  0.0446 -0.5690  0.7311
12887TIP3    H160152   1.076   3.890  11.431 -1.0614  2.0329 -0.7001
12887TIP3    H260153   0.955   3.817  11.488  0.1431 -0.3960 -1.1202
12888TIP3   OH260154   1.196   1.163  11.112  0.0966 -0.0801  0.6175
12888TIP3    H160155   1.155   1.248  11.098 -0.0944 -0.2736 -0.0328
12888TIP3    H260156   1.281   1.183  11.152 -0.4985  0.3396  1.6847
12889TIP3   OH260157   1.513   1.596  17.090  0.3608 -0.2035 -0.3215
12889TIP3    H160158   1.502   1.538  17.014  0.5302 -1.2159  0.4039
12889TIP3    H260159   1.591   1.647  17.071  0.7597 -0.8936 -0.5648
12890TIP3   OH260160   2.458   1.303  16.437 -0.4430  0.6497  0.0067
12890TIP3    H160161   2.443   1.236  16.370 -2.1558  1.8628 -0.8978
12890TIP3    H260162   2.416   1.268  16.516  1.1591 -0.5665  0.3770
12891TIP3   OH260163   2.857   4.240   2.803  0.0682  0.3305 -0.1839
12891TIP3    H160164   2.915   4.258   2.728 -0.4888  0.1844 -0.6556
12891TIP3    H260165   2.858   4.321   2.854 -0.9624  1.0730 -1.3071
12892TIP3   OH260166   2.333   2.278   5.081 -0.6321  0.3292 -0.1113
12892TIP3    H160167   2.411   2.281   5.026  0.5913 -0.0243  1.5563
12892TIP3    H260168   2.305   2.369   5.088 -0.5251  0.4294 -0.9028
12893TIP3   OH260169   4.486   0.919   2.161  0.3644  0.5484  0.2704
12893TIP3    H160170   4.574   0.882   2.153  0.9156  1.9153 -0.2841
12893TIP3    H260171   4.430   0.856   2.116  0.9630 -0.6211  1.1196
12894TIP3   OH260172   4.825   1.951   5.344 -0.4285  0.0792  0.0590
12894TIP3    H160173   4.829   2.046   5.335 -0.5204  0.0791  0.0179
12894TIP3    H260174   4.772   1.922   5.269  1.2311 -0.1686 -1.0959
12895TIP3   OH260175   1.048   3.921  10.914  0.3763 -0.4218  0.3607
12895TIP3    H160176   1.052   3.827  10.928 -1.6090 -0.7037 -0.5577
12895TIP3    H260177   1.110   3.937  10.842  0.6116 -1.0521  0.4200
12896TIP3   OH260178   2.350   5.364   3.277  0.2793 -0.6205  0.1932
12896TIP3    H160179   2.324   5.456   3.266 -0.4760 -0.6116  1.8169
12896TIP3    H260180   2.303   5.335   3.354 -0.6848 -2.8480 -1.1402
12897TIP3   OH260181   6.811   4.640   4.279 -1.1559  0.4496 -0.1428
12897TIP3    H160182   6.806   4.578   4.206 -2.9482 -0.1073  0.3979
12897TIP3    H260183   6.901   4.632   4.311 -0.9614 -0.8595 -0.9477
12898TIP3   OH260184   1.596   2.667  15.760 -0.4682  0.0342  0.2049
12898TIP3    H160185   1.527   2.648  15.823  0.1355 -2.5146  0.1897
12898TIP3    H260186   1.607   2.586  15.710  1.2728  0.9467 -1.0089
12899TIP3   OH260187   5.994   6.671  14.151 -0.2710 -0.0334 -0.4854
12899TIP3    H160188   5.960   6.601  14.207  1.1929 -1.3574 -1.1807
12899TIP3    H260189   5.921   6.691  14.092 -0.6572 -1.1400 -0.4247
12900TIP3   OH260190   2.784   1.652  16.301  0.4605  0.2040  0.6000
12900TIP3    H160191   2.723   1.606  16.244 -0.8999  1.0167  1.3630
12900TIP3    H260192   2.847   1.584  16.327  0.8008 -0.3072 -1.3699
12901TIP3   OH260193   0.318   0.125   5.447 -0.0525  0.2318 -0.2077
12901TIP3    H160194   0.232   0.099   5.412 -1.2866  2.8801  0.5510
12901TIP3    H260195   0.339   0.057   5.511 -0.9951 -1.0801 -1.2127
12902TIP3   OH260196   6.810   4.834  13.644 -0.7345 -0.7298  0.1954
12902TIP3    H160197   6.903   4.815  13.654 -0.7713 -0.0510  2.1782
12902TIP3    H260198   6.766   4.763  13.690 -1.2574 -1.3269 -1.1641
12903TIP3   OH260199   6.213   5.577  15.824 -0.2624 -0.6336  0.2342
12903TIP3    H160200   6.228   5.619  15.739 -0.6606 -0.7464  0.1056
12903TIP3    H260201   6.299   5.577  15.866 -0.2826  0.4297  0.2980
12904TIP3   OH260202   6.384   4.181   3.815  0.2498  0.5242 -0.0752
12904TIP3    H160203   6.370   4.092   3.782  0.6467  1.1713 -2.1003
12904TIP3    H260204   6.337   4.238   3.754  1.6565  1.8407 -0.0058
12905TIP3   OH260205   1.572   0.132   2.005  0.8534 -0.0348 -0.4067
12905TIP3    H160206   1.520   0.202   2.046  0.8001  2.1225 -3.7839
12905TIP3    H260207   1.512   0.057   2.001  0.7233 -0.2678  2.8000
12906TIP3   OH260208   1.144   2.628   4.587  0.1437  0.5334 -0.2686
12906TIP3    H160209   1.079   2.580   4.535 -0.1954  0.4053  0.2674
12906TIP3    H260210   1.093   2.694   4.634  0.6126  1.4590 -1.0329
12907TIP3   OH260211   6.265   2.186   5.036 -0.6316  0.3227 -0.1889
12907TIP3    H160212   6.170   2.195   5.045 -0.8169 -0.4985 -1.1057
12907TIP3    H260213   6.299   2.198   5.124 -1.8449 -2.1260  0.7090
12908TIP3   OH260214   1.417   0.712   5.263 -0.2140 -0.4768 -1.0982
12908TIP3    H160215   1.435   0.717   5.357 -0.0684  1.7598 -1.1885
12908TIP3    H260216   1.323   0.700   5.257 -0.3338  0.1402 -0.6352
12909TIP3   OH260217   1.652   0.027   4.950 -0.2243 -0.3491  0.3765
12909TIP3    H160218   1.707   0.097   4.914 -2.0067  1.1721  0.4873
12909TIP3    H260219   1.630  -0.027   4.875 -0.8095  0.6160 -0.1590
12910TIP3   OH260220   1.414   1.071   2.385  0.2912 -0.3288 -0.1998
12910TIP3    H160221   1.457   1.009   2.444 -1.4426 -0.0543  1.4571
12910TIP3    H260222   1.450   1.051   2.299  2.5064 -1.1352  0.8299
12911TIP3   OH260223   3.744   5.982   3.780 -0.1486 -0.4823 -0.5139
12911TIP3    H160224   3.663   5.932   3.770 -1.1850  0.3195  2.7634
12911TIP3    H260225   3.794   5.934   3.846  0.1995  1.1546  0.4669
12912TIP3   OH260226   5.410   3.772  15.964 -0.5562  0.5294 -0.1748
12912TIP3    H160227   5.438   3.762  16.055 -1.2367 -1.6838 -0.1412
12912TIP3    H260228   5.490   3.760  15.913 -0.5360 -0.5014  0.0806
12913TIP3   OH260229   0.697   0.561   3.936  0.1803  0.0378  0.2731
12913TIP3    H160230   0.624   0.579   3.995 -0.0245 -1.2904  0.4565
12913TIP3    H260231   0.667   0.488   3.882  0.9043  0.3107 -0.5057
12914TIP3   OH260232   1.892   5.923  14.556  0.2270  0.4206 -0.2641
12914TIP3    H160233   1.834   5.923  14.632 -0.2298  2.5461 -0.5329
12914TIP3    H260234   1.980   5.923  14.593  0.1111 -2.1069  0.1560
12915TIP3   OH260235   6.026   1.676   1.414 -0.0866  0.2748 -0.0077
12915TIP3    H160236   5.944   1.715   1.385 -0.8531 -0.4528  1.1060
12915TIP3    H260237   6.084   1.682   1.338 -0.3590  2.9866 -0.1041
12916TIP3   OH260238   1.767   3.495  13.370  0.3576  1.1525 -0.8222
12916TIP3    H160239   1.810   3.529  13.448 -0.0845  3.1931 -1.3942
12916TIP3    H260240   1.675   3.484  13.397  0.6526 -0.6194 -0.3755
12917TIP3   OH260241   4.758   1.916  16.230  0.1594  0.2311 -0.8003
12917TIP3    H160242   4.686   1.903  16.292  1.4032  1.2620  0.9516
12917TIP3    H260243   4.816   1.841  16.245  1.9121  1.9117  1.4882
12918TIP3   OH260244   1.586   0.630   1.611 -0.0070 -0.3048 -0.6093
12918TIP3    H160245   1.500   0.589   1.601  0.4832 -1.5806  0.0944
12918TIP3    H260246   1.569   0.711   1.658 -0.7872 -0.7718 -0.0559
12919TIP3   OH260247   2.107   3.886  12.236 -0.1361 -0.2576  0.4000
12919TIP3    H160248   2.155   3.845  12.164 -0.6636 -1.3803  0.6569
12919TIP3    H260249   2.116   3.980  12.221  1.3494 -0.4465 -0.0631
12920TIP3   OH260250   1.704   3.681  16.440 -0.0629  0.6618 -0.4996
12920TIP3    H160251   1.693   3.669  16.345  1.5022 -2.2815 -0.4266
12920TIP3    H260252   1.780   3.739  16.447  0.9227 -0.5034 -1.1081
12921TIP3   OH260253   4.673   6.439   5.793  0.1797  0.2184 -0.0647
12921TIP3    H160254   4.641   6.517   5.839  0.0370 -0.3482  0.8399
12921TIP3    H260255   4.670   6.370   5.860 -1.2421 -0.9425 -1.2605
12922TIP3   OH260256   0.162   1.776   1.480  0.3513 -0.3353  0.0519
12922TIP3    H160257   0.182   1.842   1.546 -0.7004  0.1983 -0.1473
12922TIP3    H260258   0.238   1.776   1.422 -0.8508  2.9563 -1.7641
12923TIP3   OH260259   1.681   5.722  16.347  0.6469 -0.1052  0.2891
12923TIP3    H160260   1.603   5.696  16.397  0.3572  0.4497  0.1275
12923TIP3    H260261   1.654   5.713  16.255  0.7703  0.1010  0.2340
12924TIP3   OH260262   4.710   1.143  15.630  0.4002 -0.0916  0.3980
12924TIP3    H160263   4.777   1.098  15.680  0.0413 -1.3641 -0.2335
12924TIP3    H260264   4.677   1.078  15.569  0.7642  1.3835 -1.4664
12925TIP3   OH260265   1.207   2.516   3.843  0.1019 -0.1145  0.0879
12925TIP3    H160266   1.247   2.541   3.927  0.8935 -0.8813 -0.0497
12925TIP3    H260267   1.190   2.422   3.852  1.2202 -0.4456 -1.0061
12926TIP3   OH260268   5.226   2.572   0.729  0.3713 -0.5590 -0.1969
12926TIP3    H160269   5.196   2.626   0.655 -0.3195 -1.1530 -0.3613
12926TIP3    H260270   5.225   2.632   0.804 -1.5025 -0.6131 -0.1443
12927TIP3   OH260271   0.760   3.584   3.180  0.2262  0.1455  0.3707
12927TIP3    H160272   0.845   3.593   3.224  0.3118  1.7482 -0.0651
12927TIP3    H260273   0.737   3.491   3.191  0.7949  0.2179  2.7299
12928TIP3   OH260274   3.084   2.336  11.083  0.0299  0.3433 -0.2179
12928TIP3    H160275   2.999   2.380  11.076 -1.7208 -2.6292  0.7573
12928TIP3    H260276   3.117   2.334  10.994 -1.3305  0.7992 -0.7590
12929TIP3   OH260277   2.853   2.062  13.237  0.1493 -0.2579 -0.4603
12929TIP3    H160278   2.938   2.021  13.251 -0.6943 -2.0135 -0.2117
12929TIP3    H260279   2.832   2.043  13.145  0.3180  0.8109 -0.7418
12930TIP3   OH260280   1.308   6.004  16.905 -0.0682  0.3478 -0.4099
12930TIP3    H160281   1.294   5.953  16.825  1.9269  1.7187 -1.7246
12930TIP3    H260282   1.220   6.025  16.937 -0.9273  0.4168 -2.6781
12931TIP3   OH260283   3.265   1.277   0.944 -0.1427 -0.4493 -0.3585
12931TIP3    H160284   3.285   1.350   0.885  0.2362  0.0203  0.3276
12931TIP3    H260285   3.208   1.219   0.893 -0.3666  0.2762 -0.9528
12932TIP3   OH260286   1.157   0.066   0.726 -0.4132 -0.2286 -0.3061
12932TIP3    H160287   1.144   0.046   0.819  0.4809 -0.1730 -0.1631
12932TIP3    H260288   1.172   0.160   0.724 -0.0263 -0.2905 -0.4530
12933TIP3   OH260289   4.893   2.818  12.479 -0.0112 -0.0646  0.2724
12933TIP3    H160290   4.931   2.906  12.479  0.7611 -0.3880  0.5797
12933TIP3    H260291   4.869   2.802  12.388  0.0956  0.3623  0.1669
12934TIP3   OH260292   6.001   2.870   1.647 -0.0481 -0.2831 -0.4885
12934TIP3    H160293   6.079   2.923   1.629 -0.4111 -0.9086 -5.0105
12934TIP3    H260294   5.936   2.932   1.678  1.0378  1.0057 -0.6840
12935TIP3   OH260295   6.782   5.771   3.123 -0.1149 -0.0214  0.6924
12935TIP3    H160296   6.752   5.700   3.066 -3.2443  3.3068 -2.3500
12935TIP3    H260297   6.731   5.760   3.204 -0.2023 -1.4216  0.4731
12936TIP3   OH260298   0.853   6.279   2.001 -0.0424  0.1602  0.2834
12936TIP3    H160299   0.823   6.369   2.003  1.3566  0.6672 -0.3506
12936TIP3    H260300   0.885   6.261   2.089  0.9579  0.7703  0.0648
12937TIP3   OH260301   2.758   3.747   0.576  0.5390  0.4069 -0.0378
12937TIP3    H160302   2.817   3.728   0.503 -0.0997  2.8538 -1.2911
12937TIP3    H260303   2.806   3.811   0.629  0.0635  0.4045  0.3982
12938TIP3   OH260304   2.769   3.571  12.819  0.0744  0.6586 -0.2670
12938TIP3    H160305   2.765   3.537  12.908 -1.0423 -0.3369 -0.6761
12938TIP3    H260306   2.740   3.662  12.826  0.2802  0.6723  0.4164
12939TIP3   OH260307   2.272   3.551  13.603  0.4913 -0.0525 -0.0264
12939TIP3    H160308   2.334   3.566  13.531 -0.5279 -0.7539 -1.0851
12939TIP3    H260309   2.321   3.574  13.682  2.0439 -0.4550 -0.8366
12940TIP3   OH260310   6.033   5.679   3.175  0.0085  0.0525 -0.2555
12940TIP3    H160311   6.002   5.721   3.095  1.5412  0.5124 -0.6434
12940TIP3    H260312   6.107   5.625   3.147  0.7448  0.4289  0.8774
12941TIP3   OH260313   4.809   6.519  14.238 -0.5062 -0.0618  0.4138
12941TIP3    H160314   4.726   6.529  14.285  0.2335 -0.1375  1.7641
12941TIP3    H260315   4.824   6.425  14.236 -0.5886 -0.0710 -0.1187
12942TIP3   OH260316   5.591   6.832  16.692 -0.0079  0.2074 -0.5553
12942TIP3    H160317   5.518   6.796  16.742  0.1094  0.0736 -0.4798
12942TIP3    H260318   5.659   6.764  16.696  0.4528  0.6942  0.1304
12943TIP3   OH260319   3.306   6.666  13.957 -0.4001 -0.3512 -0.2667
12943TIP3    H160320   3.335   6.576  13.970 -0.9200 -0.2292  2.2422
12943TIP3    H260321   3.215   6.666  13.986 -0.5878  0.8590 -0.7952
12944TIP3   OH260322   5.254   0.613  14.965 -0.4773  0.1534  0.3405
12944TIP3    H160323   5.290   0.559  15.035  0.3291 -0.6107 -0.6108
12944TIP3    H260324   5.160   0.596  14.967 -0.5524  0.6976  1.6740
12945TIP3   OH260325   3.389   2.618  16.711  0.4057 -0.4071 -0.4884
12945TIP3    H160326   3.301   2.628  16.674  0.4259 -1.3458 -0.8127
12945TIP3    H260327   3.384   2.538  16.763  0.6488  0.3711  0.7749
12946TIP3   OH260328   6.142   5.251   2.736  0.0572  0.2297  0.4158
12946TIP3    H160329   6.206   5.239   2.667 -0.3076 -1.7581  0.3524
12946TIP3    H260330   6.071   5.190   2.714  0.6492 -1.6949  3.3180
12947TIP3   OH260331   3.624   6.741  11.863  0.0568 -0.1582  0.5076
12947TIP3    H160332   3.657   6.815  11.812  0.4733 -0.6123  0.1067
12947TIP3    H260333   3.550   6.776  11.912 -0.5440  0.2236 -0.6363
12948TIP3   OH260334   5.537   6.660   5.434  0.2021 -0.3963  0.6048
12948TIP3    H160335   5.591   6.725   5.391  0.0948 -0.9551 -0.4184
12948TIP3    H260336   5.562   6.663   5.526 -0.9594  2.2305  0.9158
12949TIP3   OH260337   5.323   4.477   4.036 -0.6725  0.8854 -0.1385
12949TIP3    H160338   5.344   4.384   4.043  0.6042  1.2694  2.2990
12949TIP3    H260339   5.407   4.519   4.019 -1.4441  1.5466 -2.7094
12950TIP3   OH260340   3.352   1.487  11.336  0.7231  0.0341  0.4781
12950TIP3    H160341   3.301   1.492  11.416  1.5960  1.3798  0.9964
12950TIP3    H260342   3.441   1.513  11.363  1.1924 -0.1990 -0.7747
12951TIP3   OH260343   2.077   0.816  13.692  0.0546 -0.2232  0.2320
12951TIP3    H160344   2.057   0.872  13.617  1.8399 -0.0157 -0.1171
12951TIP3    H260345   2.153   0.856  13.733 -0.3525 -0.8341  1.6563
12952TIP3   OH260346   6.233   2.516  12.017  0.6772 -0.3864  0.5886
12952TIP3    H160347   6.169   2.449  12.040 -1.6938  1.5687  0.1992
12952TIP3    H260348   6.251   2.501  11.924  2.5416 -2.2531  1.1938
12953TIP3   OH260349   1.610   0.515  13.266  0.6032 -0.5972  0.6514
12953TIP3    H160350   1.627   0.421  13.267  0.6464 -0.6059 -0.3623
12953TIP3    H260351   1.514   0.522  13.274  0.6405 -0.7046  1.2407
12954TIP3   OH260352   0.841   0.556   0.362  0.0428 -0.2696 -0.7172
12954TIP3    H160353   0.869   0.603   0.441  2.0084 -0.6896 -1.1093
12954TIP3    H260354   0.770   0.499   0.392  0.1223  0.2525  0.5370
12955TIP3   OH260355   4.972   6.300   5.666  0.5696  0.0839 -0.3074
12955TIP3    H160356   4.952   6.360   5.593  1.7228  1.2315  0.2739
12955TIP3    H260357   5.036   6.239   5.630  0.8036  0.3717 -0.3786
12956TIP3   OH260358   6.148   3.634   3.218  0.0076  0.1325  0.8440
12956TIP3    H160359   6.099   3.602   3.143  2.0919 -0.8615 -0.1493
12956TIP3    H260360   6.221   3.683   3.181  0.8614 -0.0298  2.2354
12957TIP3   OH260361   5.660   6.009   1.074 -0.0820  0.8180 -0.1317
12957TIP3    H160362   5.714   5.974   1.002  0.0797  0.2459  0.2604
12957TIP3    H260363   5.711   6.082   1.108  1.0922 -0.5066  1.0715
12958TIP3   OH260364   5.591   0.970   3.740  0.5079  0.0045 -0.5200
12958TIP3    H160365   5.577   1.060   3.768  0.1807 -0.2768  0.2437
12958TIP3    H260366   5.572   0.917   3.817 -2.7763 -0.9971 -1.8673
12959TIP3   OH260367   2.210   3.121   5.749 -0.1230  0.5291 -0.7925
12959TIP3    H160368   2.204   3.027   5.766  0.9512  0.6038  0.1033
12959TIP3    H260369   2.130   3.157   5.786 -0.6635 -0.0479 -1.3666
12960TIP3   OH260370   1.045   2.616  14.728  0.9118  0.2921 -0.0717
12960TIP3    H160371   1.025   2.587  14.817  0.3497  1.9457  0.3710
12960TIP3    H260372   1.139   2.630  14.728  1.0902 -0.7830 -0.0958
12961TIP3   OH260373   1.792   2.670  16.208  0.1846 -0.1554 -0.3707
12961TIP3    H160374   1.804   2.742  16.146  3.6904  0.1803  0.4414
12961TIP3    H260375   1.777   2.594  16.153 -1.9381  0.8791 -1.3252
12962TIP3   OH260376   2.475   2.477  12.993 -0.5458  0.1072  0.1515
12962TIP3    H160377   2.445   2.440  13.076 -1.0379 -1.3002 -0.6116
12962TIP3    H260378   2.432   2.423  12.926 -0.3422  1.3429 -1.0252
12963TIP3   OH260379   6.720   6.693  15.454 -0.2976 -0.4062  0.4400
12963TIP3    H160380   6.719   6.787  15.474  1.4096 -0.3257  0.3683
12963TIP3    H260381   6.759   6.689  15.366  0.9651 -1.2442  1.0190
12964TIP3   OH260382   5.246   5.867  17.176  0.2524 -0.5559 -0.0748
12964TIP3    H160383   5.243   5.802  17.246 -0.0705 -1.5425 -0.9824
12964TIP3    H260384   5.242   5.951  17.222 -1.0140 -1.1815  1.0442
12965TIP3   OH260385   0.144   5.805  14.444 -0.1321  0.0951 -0.4081
12965TIP3    H160386   0.238   5.810  14.462 -0.3009 -1.0310  0.8930
12965TIP3    H260387   0.129   5.872  14.377  1.8713 -0.7670 -1.8068
12966TIP3   OH260388   4.325   2.771   0.881 -0.0078 -0.5532 -0.3803
12966TIP3    H160389   4.296   2.784   0.791  2.0635 -2.2930 -1.3782
12966TIP3    H260390   4.369   2.852   0.904 -1.2827  0.2325 -0.5745
12967TIP3   OH260391   6.330   0.863  17.082  0.2388  0.1986  0.1661
12967TIP3    H160392   6.316   0.927  17.013 -0.1557 -0.2312 -0.1674
12967TIP3    H260393   6.242   0.848  17.118  0.5802  1.2114  1.4989
12968TIP3   OH260394   3.850   5.471   3.140  0.1319 -0.2401 -0.1740
12968TIP3    H160395   3.878   5.382   3.164  0.6524 -0.2703 -0.8658
12968TIP3    H260396   3.885   5.526   3.210 -0.9595 -0.6703  0.7426
12969TIP3   OH260397   6.276   5.559  13.331  0.2422 -0.6294 -0.0613
12969TIP3    H160398   6.316   5.488  13.280  0.0659 -0.0580 -1.0244
12969TIP3    H260399   6.347   5.622  13.344  1.1518 -2.1033  3.0886
12970TIP3   OH260400   0.095   5.682  15.717  0.0092  0.2608  0.5107
12970TIP3    H160401   0.021   5.622  15.713  0.3447 -0.1688  0.7000
12970TIP3    H260402   0.118   5.697  15.625  0.4059 -0.5102  0.4750
12971TIP3   OH260403   0.519   1.802  14.947  0.4735  0.2578 -0.1082
12971TIP3    H160404   0.553   1.884  14.985  0.1839 -0.0373  0.8298
12971TIP3    H260405   0.588   1.772  14.888  0.3926  1.4147 -0.8132
12972TIP3   OH260406   2.257   2.545   2.459 -0.1119 -0.8797 -0.3781
12972TIP3    H160407   2.252   2.626   2.408  1.2026  0.3729  1.3702
12972TIP3    H260408   2.290   2.480   2.396  1.1304  0.5232 -1.2642
12973TIP3   OH260409   0.900   3.912   0.251 -0.4255 -0.1842 -0.3275
12973TIP3    H160410   0.948   3.847   0.303  0.2902  0.5936  0.0202
12973TIP3    H260411   0.869   3.976   0.316 -0.8826 -0.0315 -0.6907
12974TIP3   OH260412   1.404   2.156   1.437 -0.3776  0.6017  0.1186
12974TIP3    H160413   1.373   2.153   1.528 -1.4823 -2.2833 -0.2750
12974TIP3    H260414   1.451   2.074   1.425 -1.0176  0.5116 -2.1527
12975TIP3   OH260415   2.111   2.405  13.904 -0.0976 -0.5233  0.1718
12975TIP3    H160416   2.019   2.430  13.911 -0.2353 -0.8039 -0.6473
12975TIP3    H260417   2.159   2.487  13.918 -0.5196 -0.0212 -1.1976
12976TIP3   OH260418   0.141   3.773   4.836  0.2576 -0.8273  0.2289
12976TIP3    H160419   0.056   3.783   4.794  0.1412  0.5215  0.7555
12976TIP3    H260420   0.181   3.698   4.791 -1.1436 -1.4003 -0.0964
12977TIP3   OH260421   3.680   4.444   3.208 -0.0155  0.1246 -0.1528
12977TIP3    H160422   3.745   4.482   3.267 -0.3726 -1.9157  1.6558
12977TIP3    H260423   3.720   4.449   3.121  1.5146  1.0616  0.5773
12978TIP3   OH260424   0.139   4.211   3.870  0.1076 -0.4291 -0.5309
12978TIP3    H160425   0.074   4.142   3.885  1.6781 -1.4514  2.5272
12978TIP3    H260426   0.190   4.180   3.795 -1.5710 -0.6344 -1.6362
12979TIP3   OH260427   1.470   1.111  15.014 -0.4067 -0.0115 -0.1390
12979TIP3    H160428   1.540   1.093  14.952 -0.8010 -0.5592 -0.4404
12979TIP3    H260429   1.510   1.164  15.082  0.2887 -0.2888 -0.3271
12980TIP3   OH260430   5.506   1.223  16.410  0.2964 -0.2935  0.7272
12980TIP3    H160431   5.584   1.201  16.358  0.8253  1.5421  0.6688
12980TIP3    H260432   5.541   1.253  16.494 -0.3724 -0.0043  0.9069
12981TIP3   OH260433   4.755   4.264  17.059 -0.3434  0.5419 -0.4589
12981TIP3    H160434   4.810   4.341  17.042  0.7743  0.0034  0.6095
12981TIP3    H260435   4.745   4.262  17.154 -1.0118 -0.2116 -0.5318
12982TIP3   OH260436   2.920   3.895  11.807 -0.3172 -0.2982 -0.5442
12982TIP3    H160437   2.863   3.967  11.833 -0.8252 -0.5834 -0.8211
12982TIP3    H260438   2.879   3.817  11.846  0.5402 -0.3691  0.2218
12983TIP3   OH260439   0.266   3.844  10.851  0.2999  0.3145 -0.0135
12983TIP3    H160440   0.231   3.798  10.927  0.3888  0.6218  0.2170
12983TIP3    H260441   0.297   3.928  10.886  0.3268  0.4641 -0.3897
12984TIP3   OH260442   0.047   1.615   5.824  0.5020 -0.2880 -0.0964
12984TIP3    H160443   0.049   1.580   5.914  0.9759 -1.6448 -0.6027
12984TIP3    H260444   0.104   1.692   5.827 -0.1411  0.1665  0.9503
12985TIP3   OH260445   4.795   6.537  13.383 -0.5036 -0.1519 -0.1551
12985TIP3    H160446   4.829   6.624  13.404  0.6990 -0.6298 -0.0386
12985TIP3    H260447   4.703   6.552  13.362 -0.7379  0.9189  1.4420
12986TIP3   OH260448   1.357   1.255   4.705 -0.1691 -0.3774  0.2788
12986TIP3    H160449   1.424   1.323   4.711 -0.0089 -0.3434 -1.4004
12986TIP3    H260450   1.405   1.174   4.689 -0.4708 -0.5420  0.1940
12987TIP3   OH260451   4.830   0.731   3.420  0.9385  0.2184  0.1179
12987TIP3    H160452   4.860   0.705   3.508  2.2527  0.5929 -0.1952
12987TIP3    H260453   4.841   0.652   3.367 -0.0756 -0.0745  0.3326
12988TIP3   OH260454   0.246   3.667   2.233  0.1596 -0.2398 -0.0395
12988TIP3    H160455   0.336   3.694   2.216  0.1453 -1.3870 -2.3791
12988TIP3    H260456   0.196   3.708   2.162 -0.9140 -0.8236  0.3613
12989TIP3   OH260457   4.296   2.627  11.237  0.3042  0.4740 -0.2894
12989TIP3    H160458   4.288   2.650  11.330 -1.8934 -0.0046 -0.3109
12989TIP3    H260459   4.268   2.705  11.191 -2.6083 -0.5335 -0.4248
12990TIP3   OH260460   4.437   0.494   3.047  0.1420  0.4813 -0.2182
12990TIP3    H160461   4.357   0.477   3.098 -0.6342 -0.6401 -1.7452
12990TIP3    H260462   4.508   0.479   3.109 -0.7931  2.3351  1.4352
12991TIP3   OH260463   2.371   4.568   2.617  0.3486 -0.4526  0.1505
12991TIP3    H160464   2.378   4.580   2.711  0.8266 -1.1894  0.2167
12991TIP3    H260465   2.422   4.639   2.579  0.9941 -0.7341  0.4732
12992TIP3   OH260466   5.614   1.375  12.864  0.2455 -0.0580  0.1481
12992TIP3    H160467   5.679   1.397  12.798 -0.8487  0.0094 -0.9520
12992TIP3    H260468   5.641   1.289  12.897  1.3344  0.3356  0.3284
12993TIP3   OH260469   4.194   0.239  15.042  0.1772  0.2215 -0.4775
12993TIP3    H160470   4.142   0.159  15.052  0.5429 -0.2250 -1.9138
12993TIP3    H260471   4.221   0.261  15.131  1.7936 -2.4500 -0.1796
12994TIP3   OH260472   5.135   5.939   3.828  0.7556 -0.4179 -0.7595
12994TIP3    H160473   5.110   5.895   3.909 -0.2158  0.0779 -0.7771
12994TIP3    H260474   5.211   5.992   3.851  0.5806 -0.4036 -0.2147
12995TIP3   OH260475   3.669   4.126  15.585 -0.1486 -0.3671 -0.4115
12995TIP3    H160476   3.687   4.033  15.573  1.7268 -0.4936  2.5085
12995TIP3    H260477   3.745   4.170  15.546  0.4482 -0.2604  0.8233
12996TIP3   OH260478   3.548   2.293  15.247  0.2252 -0.2114  0.2640
12996TIP3    H160479   3.475   2.233  15.232  0.3308  0.1802 -2.1771
12996TIP3    H260480   3.509   2.380  15.247  0.5120 -0.0799  0.3988
12997TIP3   OH260481   2.264   4.318  13.355  0.6784  0.6592 -0.6212
12997TIP3    H160482   2.315   4.374  13.413  0.9935  0.8577 -1.0919
12997TIP3    H260483   2.327   4.287  13.290  0.4084  0.1247 -0.6299
12998TIP3   OH260484   2.843   2.774  12.037 -0.0670 -0.2544  0.2663
12998TIP3    H160485   2.786   2.772  12.114  0.2165  1.4841  0.5666
12998TIP3    H260486   2.914   2.832  12.062 -0.5285  1.2443 -1.6786
12999TIP3   OH260487   2.020   1.060   1.225 -0.4497 -0.5101 -0.2061
12999TIP3    H160488   2.080   0.994   1.260 -1.0935 -0.0145  2.0205
12999TIP3    H260489   2.067   1.143   1.235 -0.4347 -0.3994 -1.0987
13000TIP3   OH260490   2.486   4.713  13.720  0.2509 -0.2790 -0.0396
13000TIP3    H160491   2.571   4.675  13.698  0.8823  1.1239 -0.1519
13000TIP3    H260492   2.486   4.719  13.815  0.5548  0.2920 -0.0692
13001TIP3   OH260493   0.876   2.128   5.211 -0.0218  0.0990  0.0965
13001TIP3    H160494   0.931   2.200   5.243  0.4735 -0.0041 -0.5048
13001TIP3    H260495   0.937   2.056   5.198 -0.4566 -0.3179  0.3315
13002TIP3   OH260496   5.066   2.708   3.882 -0.2246  0.1569 -0.3563
13002TIP3    H160497   5.059   2.643   3.952  0.4672  2.6044  2.1744
13002TIP3    H260498   5.160   2.718   3.867  0.0746  3.5558  2.5337
13003TIP3   OH260499   0.365   6.375  16.679  0.0963  0.3623 -0.9147
13003TIP3    H160500   0.294   6.353  16.619 -0.8567  2.5177 -0.6985
13003TIP3    H260501   0.413   6.446  16.635  0.0774  1.1960  0.3449
13004TIP3   OH260502   5.868   4.519   2.061 -0.1944  0.2577 -0.5149
13004TIP3    H160503   5.784   4.512   2.107 -0.2095  1.7430 -0.2733
13004TIP3    H260504   5.904   4.604   2.089  1.4185 -0.3692 -0.5672
13005TIP3   OH260505   5.664   6.117   5.600  0.0683 -0.0990  0.1982
13005TIP3    H160506   5.703   6.202   5.621 -0.5365  0.6463 -1.5190
13005TIP3    H260507   5.603   6.100   5.672  0.1824  0.9285  0.5579
13006TIP3   OH260508   6.506   4.633  12.700  1.2536 -0.0352 -0.0055
13006TIP3    H160509   6.423   4.597  12.730  2.0440 -1.2406  0.8512
13006TIP3    H260510   6.483   4.717  12.659 -0.6815 -1.5472 -2.2321
13007TIP3   OH260511   5.397   5.307  15.573 -0.6667  0.5797  0.3877
13007TIP3    H160512   5.378   5.226  15.526  1.4597  0.7427 -0.9147
13007TIP3    H260513   5.392   5.283  15.666 -0.6655 -0.8966  0.0364
13008TIP3   OH260514   0.979   6.356   2.858  0.0700 -0.3483  0.3436
13008TIP3    H160515   0.908   6.354   2.795  0.2544  0.7303  0.0846
13008TIP3    H260516   0.936   6.369   2.943 -0.2793 -2.9938  0.6639
13009TIP3   OH260517   0.491   0.955  12.571 -0.0084 -0.0289 -0.4187
13009TIP3    H160518   0.443   0.901  12.508  2.8957 -2.1626 -0.9920
13009TIP3    H260519   0.490   0.903  12.652 -0.5092  0.9460  0.2175
13010TIP3   OH260520   6.236   1.134  16.933  0.0792  1.0366 -0.1415
13010TIP3    H160521   6.150   1.101  16.905 -0.0785  0.8089  0.5944
13010TIP3    H260522   6.279   1.160  16.851 -0.1817 -0.0753 -0.6643
13011TIP3   OH260523   0.858   4.907   0.856 -0.2579 -0.2847 -0.1370
13011TIP3    H160524   0.801   4.869   0.924 -0.0767  0.3650  0.3931
13011TIP3    H260525   0.911   4.833   0.825  0.2586 -0.4483  1.0475
13012TIP3   OH260526   0.635   3.390  15.848  0.2368 -0.2052 -0.0874
13012TIP3    H160527   0.674   3.477  15.839 -0.1135  0.0144  0.4619
13012TIP3    H260528   0.707   3.334  15.878  0.9692 -0.5544 -2.3085
13013TIP3   OH260529   0.411   1.982   5.206 -0.0132  0.3605 -0.1928
13013TIP3    H160530   0.415   1.959   5.299  1.3191 -1.6977 -0.7153
13013TIP3    H260531   0.335   1.934   5.173 -1.3267  2.1471  0.0256
13014TIP3   OH260532   3.746   6.684  16.478 -0.2971 -0.6147 -0.0443
13014TIP3    H160533   3.822   6.734  16.449 -1.3807  1.0297 -0.1504
13014TIP3    H260534   3.730   6.621  16.407  0.1838 -0.1183 -0.6020
13015TIP3   OH260535   3.806   6.779   4.675  0.0604 -0.2313 -0.6341
13015TIP3    H160536   3.734   6.829   4.712  0.8837  1.2217 -0.9151
13015TIP3    H260537   3.818   6.705   4.735 -0.2079  0.7392  0.6561
13016TIP3   OH260538   3.620   6.540   3.324 -0.1065  0.4070  0.4345
13016TIP3    H160539   3.703   6.498   3.300 -0.8116 -0.0032 -1.4010
13016TIP3    H260540   3.554   6.474   3.307 -0.7971  0.4641  2.6156
13017TIP3   OH260541   0.502   4.102   1.878  0.1222 -0.1293  0.7824
13017TIP3    H160542   0.582   4.077   1.924  0.6976 -0.2737 -0.2601
13017TIP3    H260543   0.532   4.151   1.801 -0.2441 -5.0016 -2.9721
13018TIP3   OH260544   6.362   6.567  11.017  0.4841  0.1110  0.5819
13018TIP3    H160545   6.443   6.591  10.972 -0.4847  0.8454 -0.8470
13018TIP3    H260546   6.348   6.475  10.994  0.0002  0.4761 -0.6901
13019TIP3   OH260547   0.618   1.850   3.145 -0.0800 -0.5009 -0.1944
13019TIP3    H160548   0.550   1.884   3.203  1.8503  2.3292  0.6611
13019TIP3    H260549   0.679   1.804   3.203  0.4107 -0.1127 -0.3911
13020TIP3   OH260550   6.004   1.524   5.464  0.6992 -0.2380 -0.0090
13020TIP3    H160551   6.066   1.492   5.399 -0.5582 -1.6654 -0.5621
13020TIP3    H260552   5.939   1.573   5.412  1.5951  1.7408  0.6203
13021TIP3   OH260553   1.646   0.416  15.089  0.0178 -0.2096 -0.0680
13021TIP3    H160554   1.567   0.365  15.072  0.0727 -0.1232 -0.6023
13021TIP3    H260555   1.715   0.351  15.101  0.2462 -0.2674 -1.5240
13022TIP3   OH260556   1.643   5.701  13.031 -0.0792  0.2104 -0.0556
13022TIP3    H160557   1.645   5.659  13.117 -1.7145 -0.7236 -0.4315
13022TIP3    H260558   1.605   5.787  13.047 -1.7167 -0.4872  0.0039
13023TIP3   OH260559   0.875   3.044  11.886  0.1751  0.1046 -0.5450
13023TIP3    H160560   0.935   3.015  11.817  0.1447 -1.1570 -0.0531
13023TIP3    H260561   0.817   3.107  11.842 -2.0716 -3.1117 -2.6081
13024TIP3   OH260562   2.677   5.064  13.611 -0.1850  0.3563  0.0840
13024TIP3    H160563   2.596   5.051  13.661 -0.3825  0.2962 -0.2428
13024TIP3    H260564   2.652   5.124  13.541 -0.1135 -0.1820 -0.4087
13025TIP3   OH260565   2.005   2.977   4.298  0.1380 -0.2469  0.3262
13025TIP3    H160566   1.963   2.967   4.383 -0.3495  0.6897  0.2220
13025TIP3    H260567   1.938   3.020   4.244  0.7271 -0.0699 -0.2801
13026TIP3   OH260568   1.878   3.201  14.868 -0.3482 -0.3652  0.6825
13026TIP3    H160569   1.861   3.189  14.961 -2.9615 -1.4325  0.1526
13026TIP3    H260570   1.818   3.141  14.824  1.1543 -0.2866 -1.7126
13027TIP3   OH260571   5.699   0.988   4.209 -0.1911 -0.6001  0.1165
13027TIP3    H160572   5.688   1.077   4.176  0.2631 -0.2319  0.9281
13027TIP3    H260573   5.675   0.932   4.135  0.4284  0.1897 -0.7042
13028TIP3   OH260574   2.656   3.960  15.127 -0.1456  0.0362  0.3101
13028TIP3    H160575   2.697   3.936  15.044 -1.2155  1.8750 -0.8182
13028TIP3    H260576   2.635   4.053  15.118  0.6472  0.5623  3.0756
13029TIP3   OH260577   2.281   1.191   2.073 -0.9524 -0.2555 -0.1723
13029TIP3    H160578   2.257   1.103   2.101 -1.8952  0.5587  1.7125
13029TIP3    H260579   2.228   1.249   2.127  2.1757  1.5719  1.1547
13030TIP3   OH260580   1.861   0.670   4.993  0.1943 -0.2549  0.2901
13030TIP3    H160581   1.849   0.737   4.926  0.9416 -0.0091  0.3932
13030TIP3    H260582   1.932   0.703   5.047 -0.1193 -0.6567  0.9517
13031TIP3   OH260583   1.023   2.612   6.130 -0.3742 -0.3326  0.1323
13031TIP3    H160584   1.080   2.661   6.070  0.1966  0.1494  1.0550
13031TIP3    H260585   1.027   2.661   6.212 -0.6088 -1.3628  0.7717
13032TIP3   OH260586   4.051   3.222  12.572  0.5039  0.3476 -0.5690
13032TIP3    H160587   4.087   3.172  12.646 -1.3846 -0.9752 -0.4787
13032TIP3    H260588   3.973   3.264  12.608  1.0644  1.9577 -1.1426
13033TIP3   OH260589   3.621   4.815   0.873 -0.5904  0.1900  0.3135
13033TIP3    H160590   3.559   4.744   0.886 -3.2782  2.1322 -0.8418
13033TIP3    H260591   3.607   4.874   0.948 -0.7372  1.0344 -0.3586
13034TIP3   OH260592   1.586   5.456   1.502 -0.2007 -0.0811  0.3496
13034TIP3    H160593   1.554   5.545   1.514  0.6637  0.3485 -0.5029
13034TIP3    H260594   1.570   5.414   1.587 -0.7470  0.8322  0.7127
13035TIP3   OH260595   0.287   2.595  13.449  0.3724 -0.0149 -0.0716
13035TIP3    H160596   0.309   2.539  13.375  1.5987 -0.6745  0.7570
13035TIP3    H260597   0.212   2.551  13.491 -0.4860  0.4934 -1.0343
13036TIP3   OH260598   4.131   0.089  13.602 -0.3880  0.2413 -0.8278
13036TIP3    H160599   4.216   0.069  13.641 -0.9452  1.5821  1.2421
13036TIP3    H260600   4.120   0.023  13.533  1.7628 -0.7141 -0.3412
13037TIP3   OH260601   5.580   4.603  12.049  0.0259  0.6967 -0.2060
13037TIP3    H160602   5.655   4.545  12.061 -0.7759 -0.2906  0.2099
13037TIP3    H260603   5.512   4.547  12.012 -0.5433  1.5468 -0.4656
13038TIP3   OH260604   6.323   1.660  14.753 -1.0976  0.1090  0.0683
13038TIP3    H160605   6.333   1.582  14.806 -0.5254 -0.6562 -1.1304
13038TIP3    H260606   6.406   1.670  14.707 -1.1839  1.3807  0.1332
13039TIP3   OH260607   5.639   5.425   5.512  0.5831 -0.2539  0.4202
13039TIP3    H160608   5.557   5.444   5.558  0.6652  1.1703  0.0139
13039TIP3    H260609   5.614   5.363   5.444  0.3655 -1.9757  1.9977
13040TIP3   OH260610   0.434   0.408   3.838 -0.0505  0.1610  0.5633
13040TIP3    H160611   0.407   0.320   3.867 -0.3896  0.3495  0.8211
13040TIP3    H260612   0.516   0.393   3.792  0.0713 -0.2546  0.9042
13041TIP3   OH260613   2.370   0.207  12.257 -0.3076  0.1223 -0.0590
13041TIP3    H160614   2.279   0.187  12.281 -0.3166  0.5812  0.2881
13041TIP3    H260615   2.385   0.295  12.291 -0.2479  0.6960 -1.5161
13042TIP3   OH260616   1.355   0.258   4.096  0.0657 -0.0332 -0.4423
13042TIP3    H160617   1.410   0.248   4.018 -1.7752 -0.2807 -1.7900
13042TIP3    H260618   1.416   0.281   4.166  1.9449 -0.9826 -1.6766
13043TIP3   OH260619   0.362   1.741  13.880  0.0336  0.7393  0.2898
13043TIP3    H160620   0.298   1.793  13.928 -1.4844  1.3851 -2.2222
13043TIP3    H260621   0.404   1.803  13.820  0.3395 -0.3522 -0.6853
13044TIP3   OH260622   1.229   3.200  15.035  0.2632  0.0967 -0.3942
13044TIP3    H160623   1.292   3.185  14.965 -0.0980  0.2115 -0.7449
13044TIP3    H260624   1.143   3.188  14.994  0.0106  1.4062 -0.2760
13045TIP3   OH260625   2.346   4.818  15.923  0.0835 -0.3074 -0.4226
13045TIP3    H160626   2.416   4.775  15.875  0.3606 -1.8073  1.2182
13045TIP3    H260627   2.386   4.843  16.006 -1.5821 -2.6704  1.2483
13046TIP3   OH260628   2.758   5.616  11.202  0.3574 -0.4866 -0.0590
13046TIP3    H160629   2.776   5.685  11.266  2.4238  0.7097 -1.7926
13046TIP3    H260630   2.830   5.553  11.214  0.2623 -0.7054 -0.5927
13047TIP3   OH260631   0.364   6.512   1.199  0.0770  0.3115  0.4024
13047TIP3    H160632   0.378   6.430   1.248 -3.0068 -0.5125  0.1365
13047TIP3    H260633   0.331   6.483   1.114  0.4839  1.8332 -0.2988
13048TIP3   OH260634   5.667   6.118  11.135  0.3340  0.3904 -0.2874
13048TIP3    H160635   5.577   6.088  11.125 -0.1088  1.5994 -0.1635
13048TIP3    H260636   5.658   6.207  11.169  1.5603  0.8958 -1.2355
13049TIP3   OH260637   5.580   6.268   3.319 -0.2318  0.7920  0.5935
13049TIP3    H160638   5.514   6.330   3.349 -1.1526 -0.1793  0.6617
13049TIP3    H260639   5.586   6.203   3.389 -0.5831 -0.1400 -0.2221
13050TIP3   OH260640   2.298   4.350  15.116  0.3950 -0.0468 -0.3010
13050TIP3    H160641   2.345   4.267  15.117  0.3989 -0.1829 -2.8834
13050TIP3    H260642   2.223   4.334  15.058 -1.0580  1.0565  1.1954
13051TIP3   OH260643   0.687   1.377  15.079  0.0589  0.3601 -0.0151
13051TIP3    H160644   0.716   1.461  15.044  1.8958 -0.6796 -1.1258
13051TIP3    H260645   0.745   1.361  15.153  0.5907 -0.5103 -0.6030
13052TIP3   OH260646   0.796   3.951  14.956 -0.0768 -0.6907 -0.2772
13052TIP3    H160647   0.817   3.900  14.878 -1.0313 -1.5285 -0.0186
13052TIP3    H260648   0.709   3.919  14.982 -1.0731  1.6239 -0.5347
13053TIP3   OH260649   0.233   5.224   0.221 -0.8239  0.2386  0.0688
13053TIP3    H160650   0.254   5.294   0.282 -0.6805  0.3305 -0.0853
13053TIP3    H260651   0.207   5.150   0.276 -1.6807  0.6422  0.2132
13054TIP3   OH260652   6.397   1.349  12.561 -0.0274  0.6198 -0.1718
13054TIP3    H160653   6.429   1.262  12.582  1.4735  0.4055 -2.9013
13054TIP3    H260654   6.463   1.409  12.596  1.2743  0.3805 -2.0870
13055TIP3   OH260655   1.216   1.881   1.069  0.2303 -0.1020 -0.0094
13055TIP3    H160656   1.235   1.918   1.156 -0.6071 -0.0887  0.1804
13055TIP3    H260657   1.150   1.940   1.033 -0.1799 -0.6930 -0.2295
13056TIP3   OH260658   0.253   2.101  17.195 -0.2878  0.2193 -0.2400
13056TIP3    H160659   0.317   2.052  17.247 -0.1000 -0.3616 -1.0092
13056TIP3    H260660   0.274   2.080  17.104 -1.3370  0.3126 -0.5189
13057TIP3   OH260661   6.069   3.942   4.126  0.1082 -0.4088  0.6181
13057TIP3    H160662   6.112   4.027   4.138  1.6079 -0.7050 -1.8911
13057TIP3    H260663   5.981   3.964   4.096  0.5426  0.3016 -0.1979
13058TIP3   OH260664   1.955   3.914   2.682 -0.1766 -0.1915  0.2748
13058TIP3    H160665   1.913   3.889   2.599 -0.8671 -0.2858  0.6472
13058TIP3    H260666   2.037   3.956   2.655 -0.4401 -0.1250 -0.4621
13059TIP3   OH260667   4.096   4.530   4.286  0.1681 -0.1280 -0.3407
13059TIP3    H160668   4.035   4.495   4.221 -0.6426  3.4883 -1.7587
13059TIP3    H260669   4.040   4.564   4.356  0.8202 -0.5217  0.3806
13060TIP3   OH260670   0.240   1.953   4.243  0.0271 -0.0502  0.1944
13060TIP3    H160671   0.266   1.861   4.236 -1.5524 -0.6510  1.5765
13060TIP3    H260672   0.171   1.964   4.178  0.0143  0.0936  0.2308
13061TIP3   OH260673   5.953   1.748  14.148 -0.2891  0.0134  0.4047
13061TIP3    H160674   6.016   1.676  14.144 -0.4068 -0.1464  1.2054
13061TIP3    H260675   5.952   1.784  14.059 -0.1651 -0.9108  0.0180
13062TIP3   OH260676   3.785   5.189   4.545  0.8464  0.3479  0.0804
13062TIP3    H160677   3.770   5.214   4.454 -2.2236 -3.8253 -0.8605
13062TIP3    H260678   3.875   5.157   4.547  0.5986 -0.5942 -1.8568
13063TIP3   OH260679   3.954   1.433   4.093  0.2728 -0.2096  0.2381
13063TIP3    H160680   3.940   1.499   4.025  2.1128 -0.2229 -0.1974
13063TIP3    H260681   3.893   1.362   4.071  0.3734  0.0749 -1.0218
13064TIP3   OH260682   0.851   0.979  15.374  0.5468  0.8017 -0.3026
13064TIP3    H160683   0.870   1.072  15.387 -1.4032  1.0924  0.9603
13064TIP3    H260684   0.777   0.961  15.433 -0.7982 -0.9336 -2.3524
13065TIP3   OH260685   4.376   2.478  15.443 -0.0223  0.1470 -0.1574
13065TIP3    H160686   4.303   2.540  15.434 -0.6419 -0.7811 -2.2916
13065TIP3    H260687   4.337   2.401  15.484  0.1003  0.1875  0.0345
13066TIP3   OH260688   0.197   6.462  14.786 -0.6075 -0.4413  0.1709
13066TIP3    H160689   0.265   6.488  14.724  0.6592  1.1238  2.0887
13066TIP3    H260690   0.118   6.506  14.754  0.3600  1.6175  0.4015
13067TIP3   OH260691   6.438   0.711   3.345 -0.4993 -0.0650 -0.5514
13067TIP3    H160692   6.347   0.732   3.364 -0.6119 -1.8195  1.1166
13067TIP3    H260693   6.472   0.675   3.427  1.4333 -0.2966 -1.4064
13068TIP3   OH260694   5.101   1.132   1.979 -0.3971  0.1970  0.7618
13068TIP3    H160695   5.022   1.080   1.965 -0.8558  0.5783  1.8313
13068TIP3    H260696   5.097   1.156   2.072  1.4466 -0.5448  1.0623
13069TIP3   OH260697   2.362   5.359   2.704  0.3007  0.0178  0.3206
13069TIP3    H160698   2.281   5.397   2.736 -0.1837 -0.2452 -0.5511
13069TIP3    H260699   2.374   5.397   2.617  1.5724  0.7182  0.7714
13070TIP3   OH260700   2.555   3.377   3.391 -0.6939 -0.0289  0.4871
13070TIP3    H160701   2.618   3.449   3.387  0.9787 -1.3973  1.0314
13070TIP3    H260702   2.469   3.420   3.392  0.2412  1.9375  0.6741
13071TIP3   OH260703   0.612   6.812  16.929  0.0953 -0.4654  0.0025
13071TIP3    H160704   0.648   6.725  16.914 -2.1100 -1.3639 -0.5100
13071TIP3    H260705   0.560   6.803  17.009  0.0646  0.4546  0.0964
13072TIP3   OH260706   2.558   2.606  15.040  0.4554  0.3727  1.0039
13072TIP3    H160707   2.581   2.683  15.091  1.7669 -0.2348  1.3662
13072TIP3    H260708   2.642   2.568  15.013 -0.1333  1.2011 -2.4876
13073TIP3   OH260709   4.408   1.459  14.452 -0.0712  0.5563  0.6430
13073TIP3    H160710   4.333   1.496  14.500 -0.3619 -0.3970  0.9516
13073TIP3    H260711   4.466   1.533  14.438  0.7123  0.6882  3.7263
13074TIP3   OH260712   5.364   6.093  13.735 -0.4335  0.5808  0.0405
13074TIP3    H160713   5.353   6.096  13.640 -1.5349 -0.0395  0.1253
13074TIP3    H260714   5.382   6.184  13.759 -1.3020  0.9644 -0.6505
13075TIP3   OH260715   1.473   2.752  13.471  0.4827 -0.6795 -0.4572
13075TIP3    H160716   1.452   2.666  13.435  2.8427 -0.7486 -1.8798
13075TIP3    H260717   1.539   2.736  13.537  2.6026  0.1129 -2.2597
13076TIP3   OH260718   1.287   1.097  16.706 -0.0889 -0.4536  0.5932
13076TIP3    H160719   1.379   1.101  16.730 -0.2062 -1.0020  1.1614
13076TIP3    H260720   1.262   1.188  16.691  0.1790 -0.1620  1.8375
13077TIP3   OH260721   0.948   4.071   5.661  0.2305 -0.3325  0.2245
13077TIP3    H160722   0.952   4.058   5.566  0.2107  0.3886  0.1193
13077TIP3    H260723   1.038   4.055   5.690  0.8935  2.0292 -0.2875
13078TIP3   OH260724   3.406   5.952  15.759 -0.3780  0.8752  0.6778
13078TIP3    H160725   3.410   5.974  15.666  0.2649  0.7439  0.6730
13078TIP3    H260726   3.337   5.885  15.765 -0.9845  1.4713  0.4191
13079TIP3   OH260727   6.645   6.204   5.191  0.8008 -0.4169  0.4091
13079TIP3    H160728   6.652   6.274   5.126  0.2878 -0.7025  0.0320
13079TIP3    H260729   6.551   6.188   5.199  0.8973 -0.8610  0.7045
13080TIP3   OH260730   3.189   2.900   1.320 -0.1663 -0.2032 -0.3153
13080TIP3    H160731   3.226   2.824   1.365 -1.6612 -0.1043  1.2175
13080TIP3    H260732   3.263   2.959   1.307  0.3827 -0.3057  1.9537
13081TIP3   OH260733   2.590   5.611  14.897 -0.0737 -0.7407 -0.1379
13081TIP3    H160734   2.598   5.592  14.803 -0.7861  1.0736 -0.6048
13081TIP3    H260735   2.499   5.592  14.917 -0.7963  1.8811 -0.6069
13082TIP3   OH260736   4.896   5.697   1.080 -0.1517  0.0419  0.2144
13082TIP3    H160737   4.864   5.674   1.167 -0.5565  0.8349  0.2854
13082TIP3    H260738   4.980   5.741   1.096  0.7442 -1.5510  0.0635
13083TIP3   OH260739   5.684   6.048   4.641  0.2304  0.4219  0.5088
13083TIP3    H160740   5.694   6.012   4.729  1.5358  1.0204  0.6296
13083TIP3    H260741   5.602   6.096   4.643 -0.6526 -1.0385  0.8562
13084TIP3   OH260742   3.596   6.677  14.116 -0.7423  0.6209 -0.0203
13084TIP3    H160743   3.628   6.762  14.087  0.2817  0.0870 -0.4872
13084TIP3    H260744   3.530   6.653  14.051  0.1548  0.3122 -0.8380
13085TIP3   OH260745   1.251   2.915  12.466  0.7155 -0.2406 -0.1403
13085TIP3    H160746   1.286   2.938  12.552 -0.2446  0.5590  0.0507
13085TIP3    H260747   1.228   2.822  12.475  0.9016 -0.2442  0.3725
13086TIP3   OH260748   0.152   5.740   2.586 -0.1660  0.0788 -0.0492
13086TIP3    H160749   0.229   5.767   2.535 -0.2164  1.0614  0.3762
13086TIP3    H260750   0.100   5.688   2.524  0.7904 -0.5356 -0.3649
13087TIP3   OH260751   4.465   4.734   0.037  0.8637 -0.2057  0.4200
13087TIP3    H160752   4.555   4.700   0.032  1.3298  0.8610  1.1525
13087TIP3    H260753   4.454   4.784  -0.044  0.9145 -0.3710  0.3097
13088TIP3   OH260754   3.650   6.683   2.187 -0.1350  0.0661  0.3081
13088TIP3    H160755   3.616   6.742   2.119 -0.8549  0.8803  1.3575
13088TIP3    H260756   3.745   6.697   2.185 -0.0252 -0.6421 -1.1728
13089TIP3   OH260757   0.836   0.405   5.438 -0.5558  0.3584 -0.9236
13089TIP3    H160758   0.885   0.487   5.432  0.3757 -0.1260 -0.1018
13089TIP3    H260759   0.750   0.432   5.471  0.8497  0.7076  2.9559
13090TIP3   OH260760   2.194   5.500   5.748  0.5458 -0.0235  0.4446
13090TIP3    H160761   2.280   5.507   5.790  0.2780  0.6693  0.9074
13090TIP3    H260762   2.169   5.591   5.731  1.1861 -0.3006 -2.4095
13091TIP3   OH260763   1.391   3.510  14.635 -0.1021  1.0979  0.2614
13091TIP3    H160764   1.310   3.560  14.636 -1.0870 -0.4001 -0.6159
13091TIP3    H260765   1.411   3.499  14.542  1.3212  1.7368  0.4641
13092TIP3   OH260766   0.690   6.636   0.508 -0.5794 -0.3897  0.2760
13092TIP3    H160767   0.622   6.639   0.575 -0.0737 -2.1469  0.9205
13092TIP3    H260768   0.642   6.621   0.426 -1.1937  1.6978  0.1775
13093TIP3   OH260769   1.373   0.824   1.761  0.1830 -0.0996  0.1042
13093TIP3    H160770   1.353   0.782   1.845  1.7638 -0.3227  0.4153
13093TIP3    H260771   1.381   0.917   1.783  2.3660 -0.3516  0.6245
13094TIP3   OH260772   0.929   2.917  15.247  0.1653 -0.5984  0.3128
13094TIP3    H160773   0.897   2.886  15.332 -1.3514 -0.1850 -0.0724
13094TIP3    H260774   0.901   2.850  15.185  2.1279 -1.4031  0.2089
13095TIP3   OH260775   2.194   2.011  16.824  0.1083  0.0014 -0.0526
13095TIP3    H160776   2.254   2.085  16.813 -1.3989  1.1225 -1.3971
13095TIP3    H260777   2.177   2.007  16.918  0.5735  1.0825  0.0913
13096TIP3   OH260778   2.183   5.380  11.448 -0.2870 -0.1509 -0.1859
13096TIP3    H160779   2.144   5.466  11.464 -0.5278  0.0007 -1.4712
13096TIP3    H260780   2.108   5.320  11.449 -0.1835 -0.2724  0.2120
13097TIP3   OH260781   4.519   6.157  15.505  0.3945  0.1361  0.2764
13097TIP3    H160782   4.609   6.179  15.530 -0.2063  1.3182  1.4724
13097TIP3    H260783   4.520   6.062  15.495  2.2226  0.2672 -1.6254
13098TIP3   OH260784   5.548   6.769  12.214  0.1292 -0.1311  0.2159
13098TIP3    H160785   5.467   6.733  12.177 -0.3221 -1.0088  1.9380
13098TIP3    H260786   5.523   6.796  12.303  0.7833  3.2140 -0.4694
13099TIP3   OH260787   1.527   6.537  12.171 -0.0882  0.2577  0.2615
13099TIP3    H160788   1.500   6.450  12.198 -0.2313 -0.9207 -3.2094
13099TIP3    H260789   1.590   6.522  12.100 -0.3282  2.9702 -0.6538
13100TIP3   OH260790   6.798   2.633  14.599 -0.1257  0.3009  0.0829
13100TIP3    H160791   6.857   2.679  14.540 -0.3037 -0.0318 -0.3583
13100TIP3    H260792   6.722   2.610  14.545 -0.2041 -0.1800  0.3846
13101TIP3   OH260793   1.333   1.781  13.871  0.6811 -0.5020 -0.2123
13101TIP3    H160794   1.275   1.714  13.907 -2.2275  0.9309 -1.8683
13101TIP3    H260795   1.319   1.776  13.776 -1.1661  3.5142 -0.3588
13102TIP3   OH260796   2.208   6.249  14.207  0.4004 -0.8673  0.2959
13102TIP3    H160797   2.253   6.287  14.282 -0.3768  0.8629 -0.0663
13102TIP3    H260798   2.133   6.203  14.244 -1.0888  1.5814  0.5524
13103TIP3   OH260799   0.627   0.557   4.670  0.2197  0.0930  0.4269
13103TIP3    H160800   0.563   0.486   4.674 -0.2009  0.3859 -0.6336
13103TIP3    H260801   0.711   0.513   4.680  0.2097 -1.0502 -3.1586
13104TIP3   OH260802   1.737   1.909   5.245  0.0357  0.0791 -0.3820
13104TIP3    H160803   1.647   1.903   5.277 -0.5109  0.2609 -1.8065
13104TIP3    H260804   1.772   1.987   5.288  0.0118 -0.8097  1.3085
13105TIP3   OH260805   6.696   1.141  13.850  0.3700 -0.4100  0.0760
13105TIP3    H160806   6.606   1.123  13.824 -0.0507 -0.0051  1.1940
13105TIP3    H260807   6.748   1.074  13.805 -0.6863 -1.7760  0.8238
13106TIP3   OH260808   5.022   0.275  12.212 -0.3310 -0.7545  0.3562
13106TIP3    H160809   5.043   0.302  12.302  1.6679 -1.4694  0.1481
13106TIP3    H260810   5.079   0.329  12.157 -1.4955 -0.3598 -0.5069
13107TIP3   OH260811   2.430   5.076  13.348  0.3455 -0.0208 -0.3304
13107TIP3    H160812   2.525   5.063  13.342  0.4618 -0.6967  2.0953
13107TIP3    H260813   2.398   5.001  13.398 -1.1352  1.3664  0.9178
13108TIP3   OH260814   3.246   2.512   4.185 -0.9901 -0.4468  0.7746
13108TIP3    H160815   3.218   2.535   4.273 -3.4694  1.8137 -0.4228
13108TIP3    H260816   3.336   2.544   4.178 -1.5583  1.5336  1.8187
13109TIP3   OH260817   6.611   4.281  11.998 -0.3142 -0.0370 -0.1572
13109TIP3    H160818   6.656   4.247  12.075  0.9580 -0.4486 -1.0377
13109TIP3    H260819   6.541   4.337  12.033  0.8888  0.6398  1.2824
13110TIP3   OH260820   0.825   0.436  15.389  0.4776 -0.0327 -0.2348
13110TIP3    H160821   0.734   0.459  15.370  0.1759 -0.8941  0.1049
13110TIP3    H260822   0.822   0.342  15.407  1.3765  0.0072  0.1497
13111TIP3   OH260823   3.651   0.698   0.924  1.0154 -0.3093  0.2873
13111TIP3    H160824   3.707   0.726   0.996  0.2486  0.5195  0.5820
13111TIP3    H260825   3.707   0.702   0.846  1.7284 -0.7946  0.7693
13112TIP3   OH260826   6.409   3.681  10.580  0.3706  0.6222 -0.2374
13112TIP3    H160827   6.325   3.683  10.535  0.3282  1.9651 -0.1617
13112TIP3    H260828   6.473   3.699  10.512  0.5456  0.1419 -0.1998
13113TIP3   OH260829   5.084   3.409   1.603  0.2296 -0.2067  0.1156
13113TIP3    H160830   5.086   3.503   1.622 -1.5909 -0.2838  0.9486
13113TIP3    H260831   5.123   3.368   1.680 -0.6218 -0.1843  0.5781
13114TIP3   OH260832   3.447   1.847   6.425  0.2317 -0.0340 -0.1359
13114TIP3    H160833   3.460   1.918   6.487 -0.0395  0.3777 -0.5509
13114TIP3    H260834   3.400   1.886   6.352  0.5231 -0.5247 -0.5933
13115TIP3   OH260835   3.569   2.208  12.728  0.7161 -0.2146  0.7901
13115TIP3    H160836   3.484   2.247  12.708  1.7501  1.3774 -0.7963
13115TIP3    H260837   3.554   2.113  12.722 -0.3566  0.0440 -2.3348
13116TIP3   OH260838   3.905   6.373  16.994 -0.5109 -0.0218  0.4127
13116TIP3    H160839   3.908   6.282  16.965  0.7013  0.5644 -1.4523
13116TIP3    H260840   3.823   6.379  17.043 -1.7246 -1.5849 -1.2669
13117TIP3   OH260841   2.875   3.306  13.855  0.2916  0.0107 -0.0828
13117TIP3    H160842   2.823   3.365  13.908 -0.2419  0.9509 -1.5902
13117TIP3    H260843   2.812   3.262  13.798  0.9799  0.1115 -0.9524
13118TIP3   OH260844   2.131   3.859  16.103  0.0215  0.3111 -0.1159
13118TIP3    H160845   2.061   3.835  16.164  1.6432 -0.7533  1.4032
13118TIP3    H260846   2.162   3.944  16.134  0.7809 -0.1861  0.5408
13119TIP3   OH260847   3.797   1.057   3.369 -0.3317 -1.0162  0.6345
13119TIP3    H160848   3.720   1.106   3.341  1.0633  0.2291 -1.1991
13119TIP3    H260849   3.775   1.027   3.457 -1.5625  2.2385  1.5560
13120TIP3   OH260850   2.040   5.766   2.085 -0.1290 -0.5768  0.4647
13120TIP3    H160851   1.997   5.706   2.024  0.1576 -0.6726  0.3558
13120TIP3    H260852   2.132   5.767   2.057  0.0217 -0.6791  0.9358
13121TIP3   OH260853   2.984   1.065   1.257 -0.1679 -0.0588  0.1579
13121TIP3    H160854   3.009   1.117   1.334  0.7695 -0.2644  0.0034
13121TIP3    H260855   3.066   1.027   1.227 -0.5802 -0.2228 -0.7698
13122TIP3   OH260856   3.424   2.006  13.022 -0.0807 -0.0381  0.0843
13122TIP3    H160857   3.405   1.947  13.094 -0.9050 -1.2920 -1.0968
13122TIP3    H260858   3.472   1.953  12.959 -1.5013  0.2654 -1.3543
13123TIP3   OH260859   6.580   4.742  14.453  0.1229 -0.1684  0.1843
13123TIP3    H160860   6.643   4.805  14.488  0.2388 -1.0794  1.7068
13123TIP3    H260861   6.495   4.775  14.482  0.0902 -0.1385  0.0540
13124TIP3   OH260862   0.931   4.375   0.286 -0.5764 -0.4432  0.7793
13124TIP3    H160863   0.873   4.315   0.239  0.0136  1.3667 -2.5686
13124TIP3    H260864   1.019   4.353   0.255 -0.1299  0.6805  1.1816
13125TIP3   OH260865   4.084   0.431  11.249 -0.5482  0.5000  0.6053
13125TIP3    H160866   4.080   0.465  11.159  1.9972  0.1044  0.2701
13125TIP3    H260867   4.016   0.365  11.252  0.6202 -0.9611 -1.7508
13126TIP3   OH260868   5.695   4.392  15.448  0.5863  0.0343 -0.0441
13126TIP3    H160869   5.622   4.442  15.413  0.4217 -0.0771  0.1390
13126TIP3    H260870   5.657   4.310  15.477  0.5855  0.3895  1.0318
13127TIP3   OH260871   4.816   6.144  12.702  0.0738 -0.7348 -0.2013
13127TIP3    H160872   4.772   6.060  12.716  1.1474 -1.6267 -1.8517
13127TIP3    H260873   4.907   6.120  12.682 -0.0682  0.6477 -2.8989
13128TIP3   OH260874   2.285   1.639   3.373 -0.0251 -0.4155  0.8127
13128TIP3    H160875   2.324   1.697   3.438  2.2148  1.5674 -2.0410
13128TIP3    H260876   2.343   1.563   3.370 -0.4966 -0.8165  1.5105
13129TIP3   OH260877   2.605   0.534  11.226  0.0108  0.0610 -0.0863
13129TIP3    H160878   2.625   0.502  11.138  1.2482 -0.5421  0.3728
13129TIP3    H260879   2.670   0.491  11.282 -2.0332 -1.2435  1.4472
13130TIP3   OH260880   2.940   3.993  16.305 -0.1961  0.6109  0.0394
13130TIP3    H160881   2.998   3.918  16.314 -0.2710  0.5463 -0.0177
13130TIP3    H260882   2.980   4.061  16.360  0.8657  1.1264 -1.3110
13131TIP3   OH260883   5.220   6.372   3.968  0.0910  0.4697  0.0042
13131TIP3    H160884   5.295   6.390   3.911  0.9860  1.1042  1.3519
13131TIP3    H260885   5.214   6.448   4.025 -0.7427 -0.1960  0.8350
13132TIP3   OH260886   4.753   1.184   5.176 -0.0782 -0.0267  0.4530
13132TIP3    H160887   4.843   1.211   5.193 -0.2130  0.7403 -0.0023
13132TIP3    H260888   4.712   1.182   5.262 -0.3089  2.1472  0.4368
13133TIP3   OH260889   3.945   2.320   0.014 -0.4848 -0.6108 -0.4241
13133TIP3    H160890   3.953   2.229   0.041 -0.5312  0.0315  1.9520
13133TIP3    H260891   4.017   2.365   0.057 -1.1824  0.6732 -0.5352
13134TIP3   OH260892   3.181   3.345  15.682 -0.1407  0.8156 -0.1778
13134TIP3    H160893   3.154   3.431  15.714  0.1522  0.5367  0.8555
13134TIP3    H260894   3.169   3.287  15.757  1.7709  0.3793 -0.1743
13135TIP3   OH260895   3.789   6.480  14.128  0.2652  0.0241  0.5337
13135TIP3    H160896   3.717   6.543  14.121  0.6204  0.3862  0.0734
13135TIP3    H260897   3.866   6.535  14.140  0.1753 -0.3853  4.0116
13136TIP3   OH260898   0.504   4.615   4.678  0.0472 -0.4514 -0.2274
13136TIP3    H160899   0.499   4.709   4.659 -0.5734  0.7113  4.3917
13136TIP3    H260900   0.593   4.601   4.709 -0.2550 -1.0759  0.3892
13137TIP3   OH260901   1.789   1.002   5.592  1.0153  0.2246  0.1973
13137TIP3    H160902   1.714   1.026   5.647  1.2706  2.4080 -0.3280
13137TIP3    H260903   1.749   0.963   5.514  0.3798  1.3436 -0.0682
13138TIP3   OH260904   6.657   1.592  13.949 -0.3227  0.7137 -0.9715
13138TIP3    H160905   6.740   1.545  13.956  1.0936  2.9647 -1.5244
13138TIP3    H260906   6.629   1.604  14.040 -0.1699 -0.2265 -0.7872
13139TIP3   OH260907   0.683   1.996  11.314  0.0002 -0.1804  0.3601
13139TIP3    H160908   0.615   2.007  11.248  0.1126 -4.2688 -0.6825
13139TIP3    H260909   0.658   1.918  11.363  3.0595 -0.9176  0.9916
13140TIP3   OH260910   6.163   2.020  16.576 -0.3205 -0.0129 -0.3864
13140TIP3    H160911   6.094   2.060  16.629  1.0023  0.6193  0.9428
13140TIP3    H260912   6.239   2.017  16.634  0.7518 -0.8039 -1.7586
13141TIP3   OH260913   2.988   6.635   3.825  0.1379 -0.3409 -0.4349
13141TIP3    H160914   2.999   6.665   3.735 -0.1409  1.2752  0.0352
13141TIP3    H260915   3.065   6.669   3.871  1.0327 -2.3954 -0.3239
13142TIP3   OH260916   5.724   1.233   4.880 -0.0416 -0.3722 -0.0866
13142TIP3    H160917   5.776   1.170   4.930  1.7960  0.7871 -0.4315
13142TIP3    H260918   5.789   1.283   4.830 -1.6652 -0.1163 -2.0326
13143TIP3   OH260919   3.229   6.256  11.267 -0.1907 -0.4785  0.0780
13143TIP3    H160920   3.165   6.324  11.285 -0.2745 -0.1501 -1.3109
13143TIP3    H260921   3.213   6.189  11.333 -2.2021 -0.5540 -0.4284
13144TIP3   OH260922   0.692   1.066   1.094 -0.4777 -0.0528  0.0383
13144TIP3    H160923   0.676   1.055   1.000 -2.4962  1.0344  0.2045
13144TIP3    H260924   0.605   1.070   1.133  0.3195  0.1495  1.8899
13145TIP3   OH260925   6.499   0.048  12.400  0.2081  0.1871 -0.0623
13145TIP3    H160926   6.538  -0.031  12.437  1.6248  1.1336  0.5925
13145TIP3    H260927   6.405   0.028  12.393  0.3563 -1.1257  1.1781
13146TIP3   OH260928   5.216   2.000   1.077 -0.2477 -0.3342  0.2963
13146TIP3    H160929   5.146   1.950   1.117 -0.8043 -1.2587 -1.7117
13146TIP3    H260930   5.291   1.941   1.077 -0.6268 -0.8650 -1.1608
13147TIP3   OH260931   1.125   0.472  14.692  0.1240  0.1810  1.0407
13147TIP3    H160932   1.075   0.478  14.774 -0.8000  1.3492  0.4083
13147TIP3    H260933   1.215   0.493  14.718 -0.0117 -0.2047  1.8763
13148TIP3   OH260934   5.280   1.447  13.090 -0.2548 -0.7944 -0.0865
13148TIP3    H160935   5.286   1.524  13.146  4.1937 -0.7031 -0.3769
13148TIP3    H260936   5.271   1.482  13.001 -1.1527 -0.7573  0.0084
13149TIP3   OH260937   3.820   6.007  13.927 -0.5229 -0.7046  0.1288
13149TIP3    H160938   3.860   5.981  13.843 -1.6042  0.7867 -0.9081
13149TIP3    H260939   3.824   5.928  13.981  0.3497 -1.6680 -1.2622
13150TIP3   OH260940   5.530   4.237   3.319 -0.1841 -0.1915  0.6938
13150TIP3    H160941   5.561   4.199   3.401  0.1913 -0.4462  0.4398
13150TIP3    H260942   5.468   4.173   3.284 -2.4853  1.1399  2.1056
13151TIP3   OH260943   4.344   4.994   2.531  0.1921 -0.0422  0.0668
13151TIP3    H160944   4.363   4.903   2.551  0.1240 -0.1474 -0.3470
13151TIP3    H260945   4.301   4.992   2.446 -1.2722  0.2331  0.7691
13152TIP3   OH260946   5.274   3.534   2.861 -0.4575 -0.5322  0.4216
13152TIP3    H160947   5.231   3.620   2.866  0.9949  0.2799 -0.3159
13152TIP3    H260948   5.222   3.485   2.797 -0.3154  0.4089 -0.4386
13153TIP3   OH260949   3.429   2.890  12.234  0.3187  0.0457  0.1572
13153TIP3    H160950   3.509   2.931  12.268  0.2890 -0.9655  1.5016
13153TIP3    H260951   3.358   2.946  12.266  0.4517  0.8325 -0.8718
13154TIP3   OH260952   1.911   2.209  16.858 -0.6781  0.2164  0.0555
13154TIP3    H160953   1.908   2.202  16.762  0.3921 -2.0226  0.1214
13154TIP3    H260954   2.002   2.188  16.880 -0.7530  1.3485  1.5511
13155TIP3   OH260955   6.420   6.542  16.020 -0.3939 -0.5142  0.2474
13155TIP3    H160956   6.497   6.599  16.026  0.5478 -1.5842 -1.0148
13155TIP3    H260957   6.362   6.573  16.089 -0.8374  3.2847 -1.5577
13156TIP3   OH260958   0.377   6.816  12.356 -0.2527 -0.3074  0.7486
13156TIP3    H160959   0.334   6.734  12.380  0.5537 -0.8208  0.4848
13156TIP3    H260960   0.450   6.824  12.418 -0.5278  0.3948  0.9936
13157TIP3   OH260961   6.515   4.689   3.938  0.3510  0.4054 -0.3204
13157TIP3    H160962   6.432   4.644   3.923  1.6982 -1.9986 -1.0378
13157TIP3    H260963   6.545   4.713   3.851  1.1758 -0.2074 -0.2090
13158TIP3   OH260964   3.866   3.015   3.555  0.3748 -0.2902 -0.3458
13158TIP3    H160965   3.796   2.959   3.589  0.4746 -0.1376  0.1157
13158TIP3    H260966   3.824   3.071   3.490 -0.3739  1.2246  1.3730
13159TIP3   OH260967   4.425   0.249  16.563 -0.1425 -0.0056 -0.4964
13159TIP3    H160968   4.374   0.217  16.489 -1.3204 -0.2434  0.3822
13159TIP3    H260969   4.447   0.171  16.613 -0.3663  0.2539  0.0201
13160TIP3   OH260970   3.437   5.275   0.130  0.1965 -0.3312  0.6681
13160TIP3    H160971   3.454   5.201   0.189 -1.2252 -1.6608 -0.4924
13160TIP3    H260972   3.451   5.352   0.184  1.4024 -1.4357  2.0349
13161TIP3   OH260973   5.893   5.985   3.976  0.5699  0.0617  0.0146
13161TIP3    H160974   5.970   5.932   3.958 -0.5153 -1.1871 -1.2008
13161TIP3    H260975   5.867   5.961   4.065  0.2731 -1.2489 -0.4050
13162TIP3   OH260976   2.926   4.413  12.785  0.1344 -0.1573 -0.9918
13162TIP3    H160977   3.019   4.435  12.791 -0.0892  0.6277 -0.0487
13162TIP3    H260978   2.886   4.461  12.858 -0.9102 -1.0147 -0.9856
13163TIP3   OH260979   4.050   2.743   1.500 -0.5465 -0.3067 -0.0786
13163TIP3    H160980   4.053   2.657   1.458  1.2704 -1.3234  1.9263
13163TIP3    H260981   4.083   2.727   1.589  0.9356  2.6374  0.0212
13164TIP3   OH260982   4.224   3.625   2.023 -0.0824 -0.7514 -0.0075
13164TIP3    H160983   4.236   3.690   2.092 -1.3473 -0.4134 -0.0709
13164TIP3    H260984   4.298   3.565   2.033 -0.9892 -1.5871  2.6455
13165TIP3   OH260985   3.134   3.977   6.282  0.1406 -0.0286  0.1209
13165TIP3    H160986   3.117   3.957   6.374  0.5962  1.4089  0.5407
13165TIP3    H260987   3.210   3.923   6.259  0.1375 -0.2501  0.6266
13166TIP3   OH260988   2.247   3.134  11.613 -0.0724 -0.1355 -0.2298
13166TIP3    H160989   2.276   3.043  11.616 -0.2959 -0.2430 -1.1833
13166TIP3    H260990   2.182   3.141  11.684 -0.1017 -0.7267 -0.1999
13167TIP3   OH260991   1.120   5.181   2.510 -0.1504  0.0188 -0.1774
13167TIP3    H160992   1.214   5.164   2.502  0.2689  0.8403  2.2692
13167TIP3    H260993   1.083   5.097   2.539  0.1573  0.2588  0.9135
13168TIP3   OH260994   3.584   4.531   0.220  0.1509  0.1603  0.2827
13168TIP3    H160995   3.492   4.509   0.237 -0.4975  0.6646 -2.1899
13168TIP3    H260996   3.626   4.447   0.203 -0.3726  0.0863 -0.7162
13169TIP3   OH260997   3.060   1.892  13.273  0.1850 -0.0076 -0.0244
13169TIP3    H160998   3.121   1.824  13.247 -1.3039 -0.5677 -2.3547
13169TIP3    H260999   3.035   1.869  13.363  2.0578 -0.6883  0.3572
13170TIP3   OH261000   4.832   3.590  17.101 -0.3958  0.6074 -0.4437
13170TIP3    H161001   4.843   3.497  17.124 -0.2246  0.2810 -1.7113
13170TIP3    H261002   4.905   3.607  17.040  1.5941  2.5151  2.2642
13171TIP3   OH261003   2.626   4.099  13.404 -0.2558  0.0398 -0.2832
13171TIP3    H161004   2.664   4.184  13.428  0.7154 -0.2597 -0.7062
13171TIP3    H261005   2.693   4.058  13.349 -0.1972 -1.4727  0.8481
13172TIP3   OH261006   2.107   0.315   2.434  0.1212  0.9074 -0.1667
13172TIP3    H161007   2.115   0.221   2.446  4.6642  1.2582  1.4568
13172TIP3    H261008   2.014   0.334   2.452 -1.1931 -3.2248 -1.5028
13173TIP3   OH261009   0.833   1.471   3.006  0.7950  0.3136 -0.0646
13173TIP3    H161010   0.880   1.536   3.058  3.3538  0.0309 -1.8593
13173TIP3    H261011   0.881   1.390   3.020 -0.3499 -0.4551 -0.4626
13174TIP3   OH261012   4.876   6.213  16.205 -0.2249  0.5418 -0.0866
13174TIP3    H161013   4.913   6.127  16.185 -1.4778 -0.5533  2.0037
13174TIP3    H261014   4.938   6.252  16.267  0.5750  1.3763 -1.3756
13175TIP3   OH261015   3.680   3.755  15.828 -0.5782  0.3678  0.2844
13175TIP3    H161016   3.744   3.714  15.886 -0.2079 -0.0088 -0.3775
13175TIP3    H261017   3.641   3.825  15.880  1.1567  1.3322  0.3695
13176TIP3   OH261018   5.989   2.180  14.665 -0.5633 -0.4222 -0.5089
13176TIP3    H161019   5.907   2.141  14.697 -0.1139  0.3802  1.8295
13176TIP3    H261020   5.962   2.235  14.592 -2.3135  0.6488  0.8500
13177TIP3   OH261021   0.870   1.645  11.680 -0.4227  0.2022 -0.3152
13177TIP3    H161022   0.830   1.606  11.758 -0.1285 -1.4276 -0.9221
13177TIP3    H261023   0.846   1.737  11.684  0.5376  0.4191  2.2996
13178TIP3   OH261024   1.584   5.927   1.767  0.1641  0.2060 -0.0767
13178TIP3    H161025   1.652   5.905   1.830  0.9361  0.6973 -0.7202
13178TIP3    H261026   1.600   6.018   1.743 -0.2129  0.0820 -0.8528
13179TIP3   OH261027   5.185   2.433   1.504 -0.3736 -0.2509  0.2556
13179TIP3    H161028   5.175   2.527   1.489 -2.6558 -0.6905 -1.5767
13179TIP3    H261029   5.113   2.410   1.561  1.7492 -0.5566  3.0397
13180TIP3   OH261030   1.216   6.045  12.980  0.3933  0.4753 -0.0359
13180TIP3    H161031   1.243   6.105  12.911  2.9793 -0.4073  0.0817
13180TIP3    H261032   1.231   6.094  13.061  0.2873  0.4781 -0.0180
13181TIP3   OH261033   3.124   6.059   2.499 -0.1821 -0.4757  0.4442
13181TIP3    H161034   3.075   5.976   2.500 -0.6169 -0.2900 -1.5403
13181TIP3    H261035   3.195   6.046   2.561 -3.1400 -0.4682  4.2250
13182TIP3   OH261036   0.591   6.189   3.799  0.5159  0.1425  0.5471
13182TIP3    H161037   0.671   6.142   3.824  0.6061  0.4710  0.8763
13182TIP3    H261038   0.520   6.138   3.838  0.7061  1.1857  2.3226
13183TIP3   OH261039   1.440   0.347  14.592  0.1114 -0.5212 -0.1193
13183TIP3    H161040   1.440   0.258  14.627 -0.1480 -0.1097  0.9737
13183TIP3    H261041   1.424   0.402  14.669  0.8565  0.5031 -0.6876
13184TIP3   OH261042   3.595   4.244   1.963 -0.0768  0.2909  0.0823
13184TIP3    H161043   3.533   4.248   2.036 -1.1190  0.1763 -0.7735
13184TIP3    H261044   3.606   4.150   1.946 -2.1482  0.2982 -1.7672
13185TIP3   OH261045   1.583   2.052  13.641 -0.1798  0.1726 -0.3474
13185TIP3    H161046   1.566   2.123  13.579 -1.9030 -1.2636 -1.6310
13185TIP3    H261047   1.513   2.059  13.706  1.6797  1.7437  1.6573
13186TIP3   OH261048   0.106   0.185  11.486  0.2074 -0.0508  0.3939
13186TIP3    H161049   0.129   0.260  11.541 -0.0177 -0.7642  1.5029
13186TIP3    H261050   0.133   0.109  11.538 -1.0734 -0.7832  0.0244
13187TIP3   OH261051   0.177   6.284  14.073 -0.1576 -0.0608 -0.1212
13187TIP3    H161052   0.166   6.364  14.022 -0.3346  0.1255  0.2109
13187TIP3    H261053   0.268   6.286  14.102 -0.8306  1.3209  2.0676
13188TIP3   OH261054   4.898   4.394  14.088 -0.7915  0.0619  0.0544
13188TIP3    H161055   4.812   4.387  14.130 -0.3441 -2.9219  0.6654
13188TIP3    H261056   4.960   4.394  14.160 -0.1271 -2.6989 -0.4149
13189TIP3   OH261057   2.298   1.090  16.898  0.4832  0.0042 -0.2702
13189TIP3    H161058   2.277   1.077  16.990  0.0525 -2.3096 -0.6138
13189TIP3    H261059   2.391   1.071  16.891  0.3145 -0.8224 -0.4314
13190TIP3   OH261060   1.179   2.584   5.424  0.4944 -0.5609 -0.1702
13190TIP3    H161061   1.141   2.632   5.498  0.8976  0.2857 -0.5041
13190TIP3    H261062   1.271   2.571   5.448  0.4446 -0.9688 -0.1882
13191TIP3   OH261063   5.718   2.542   3.866  0.0369 -0.5550  0.7592
13191TIP3    H161064   5.777   2.525   3.792 -1.1968 -0.2006 -0.3508
13191TIP3    H261065   5.660   2.611   3.835 -0.0782  0.0883  2.3326
13192TIP3   OH261066   6.151   5.918  14.010  0.2364 -1.3362 -0.0592
13192TIP3    H161067   6.080   5.951  14.065  1.3396  1.4575 -0.1327
13192TIP3    H261068   6.120   5.832  13.980 -2.3090 -1.0085  1.3124
13193TIP3   OH261069   5.465   5.490   3.369 -0.0616  0.2962  0.4137
13193TIP3    H161070   5.524   5.420   3.397 -1.8147 -1.5538 -0.2820
13193TIP3    H261071   5.439   5.466   3.280 -0.6821  1.8767  0.1279
13194TIP3   OH261072   1.872   5.027  13.802  0.3575 -0.5489 -0.3335
13194TIP3    H161073   1.864   4.965  13.729 -1.0592 -0.6522 -0.1111
13194TIP3    H261074   1.809   5.096  13.782 -0.4855 -0.8751  1.0554
13195TIP3   OH261075   4.651   3.542   0.415  0.2230 -0.3962 -0.3598
13195TIP3    H161076   4.694   3.456   0.413  0.9092 -0.1037  0.8491
13195TIP3    H261077   4.625   3.553   0.506 -1.2416  0.0299 -0.8063
13196TIP3   OH261078   3.208   2.372   3.937  0.5039 -0.3030  0.3010
13196TIP3    H161079   3.210   2.377   4.033 -0.1062  0.1668  0.2956
13196TIP3    H261080   3.135   2.428   3.912  1.4314  0.5708 -0.5109
13197TIP3   OH261081   1.560   1.147  16.818  0.6302  0.2188 -0.0940
13197TIP3    H161082   1.559   1.053  16.838 -0.3190  0.5239  1.3852
13197TIP3    H261083   1.652   1.166  16.798  0.9776 -0.8540  0.4187
13198TIP3   OH261084   1.360   2.342  12.502 -0.1224  0.9252  1.0837
13198TIP3    H161085   1.444   2.298  12.486 -0.2576  0.6136  1.2272
13198TIP3    H261086   1.332   2.371  12.415 -1.7429 -2.3249  0.3553
13199TIP3   OH261087   5.123   0.780   0.220  0.5143 -0.3029  1.0784
13199TIP3    H161088   5.137   0.873   0.204 -0.8726 -0.1791  0.4556
13199TIP3    H261089   5.207   0.740   0.201  0.3410  0.4741 -1.7199
13200TIP3   OH261090   0.423   1.037  14.048 -0.3258 -0.1791  0.0316
13200TIP3    H161091   0.488   0.988  13.998  0.7194 -0.2601  1.4103
13200TIP3    H261092   0.355   0.973  14.067  0.7172 -0.9667  1.2599
13201TIP3   OH261093   4.258   6.514  11.044  0.3613  0.6038 -0.1705
13201TIP3    H161094   4.284   6.487  10.956 -0.1414  1.3925 -0.5716
13201TIP3    H261095   4.206   6.441  11.077 -1.2249  1.1363 -1.3516
13202TIP3   OH261096   2.521   3.907  16.525  0.1407  0.0598  0.4737
13202TIP3    H161097   2.582   3.886  16.454  0.9878  0.2273  1.1445
13202TIP3    H261098   2.458   3.835  16.525 -0.3004  0.4176 -0.9101
13203TIP3   OH261099   4.384   4.556   0.414 -1.0301  0.0659 -0.1399
13203TIP3    H161100   4.358   4.645   0.437 -1.0913  0.0931 -0.3135
13203TIP3    H261101   4.307   4.519   0.371 -1.0076 -0.0748 -0.0619
13204TIP3   OH261102   0.376   3.091  16.630 -0.0391  0.5315  0.5364
13204TIP3    H161103   0.312   3.056  16.569 -0.8182  1.0156  1.0663
13204TIP3    H261104   0.389   3.182  16.602 -0.8503  0.9402  1.4334
13205TIP3   OH261105   1.720   6.495   0.395  0.2356  0.1745 -0.0405
13205TIP3    H161106   1.797   6.534   0.436 -0.5302  2.1533 -0.3905
13205TIP3    H261107   1.646   6.533   0.442 -0.5710 -2.0996  0.6582
13206TIP3   OH261108   4.590   3.217  13.144 -0.2284 -0.5807 -0.2000
13206TIP3    H161109   4.513   3.272  13.129  0.7351  0.7520 -0.4943
13206TIP3    H261110   4.593   3.205  13.239 -0.6571 -0.4275 -0.1662
13207TIP3   OH261111   6.801   1.351  12.564 -0.2374  0.3462 -0.4503
13207TIP3    H161112   6.864   1.279  12.570 -0.5238 -0.0406 -1.8266
13207TIP3    H261113   6.851   1.423  12.524 -0.1157  0.7549  0.3891
13208TIP3   OH261114   0.168   5.372  15.495 -0.2019  0.5214 -0.2948
13208TIP3    H161115   0.076   5.345  15.483 -0.3296  0.3173  1.0000
13208TIP3    H261116   0.183   5.362  15.589  0.7766  1.7654 -0.3029
13209TIP3   OH261117   2.351   1.434  11.292 -0.5599 -0.9917  0.0496
13209TIP3    H161118   2.298   1.388  11.357  0.9320 -1.2105  1.1730
13209TIP3    H261119   2.393   1.504  11.341 -0.5923 -0.2002 -1.0323
13210TIP3   OH261120   2.826   5.123   2.213  0.0971 -0.1175  0.5163
13210TIP3    H161121   2.767   5.134   2.288 -1.0948 -0.4395 -0.3398
13210TIP3    H261122   2.898   5.184   2.229 -0.0363 -0.3262  2.0115
13211TIP3   OH261123   4.954   1.230  12.847  0.1389 -0.5006  0.2762
13211TIP3    H161124   4.908   1.280  12.780  2.1984  0.9380 -0.1380
13211TIP3    H261125   5.003   1.295  12.897 -0.1135 -1.7163  2.2267
13212TIP3   OH261126   3.955   3.911   1.076  0.3450 -0.0264 -0.4874
13212TIP3    H161127   3.966   3.948   0.988  1.6497  1.2232  0.1709
13212TIP3    H261128   3.944   3.987   1.133  1.7758 -0.6881  0.7321
13213TIP3   OH261129   4.792   5.598  10.879  0.3294  0.2519 -0.2794
13213TIP3    H161130   4.743   5.591  10.961  0.5394  0.9395 -0.0887
13213TIP3    H261131   4.734   5.559  10.813 -0.1636  0.3929  0.0627
13214TIP3   OH261132   3.679   4.950  11.249 -0.2479 -0.4529 -0.6006
13214TIP3    H161133   3.743   4.964  11.318  0.0275  0.2342 -0.9806
13214TIP3    H261134   3.595   4.942  11.294  0.2191 -2.6995  0.0205
13215TIP3   OH261135   5.249   4.836   3.897  0.3243  0.4589 -0.8522
13215TIP3    H161136   5.199   4.755   3.884  1.2292 -0.2471 -0.0811
13215TIP3    H261137   5.184   4.900   3.925 -0.3635 -0.0776 -1.1916
13216TIP3   OH261138   1.227   5.353  14.339 -0.0073  0.3338  0.6154
13216TIP3    H161139   1.301   5.297  14.360 -1.6393 -2.7764 -1.2682
13216TIP3    H261140   1.157   5.323  14.397 -1.0019  0.1647 -0.6240
13217TIP3   OH261141   5.433   1.496   3.286  0.6563 -0.1454 -0.3191
13217TIP3    H161142   5.414   1.553   3.360 -2.4985 -0.4513 -0.7841
13217TIP3    H261143   5.445   1.410   3.324  1.0897  0.0474 -0.0091
13218TIP3   OH261144   2.097   0.085  12.455  0.5745  0.1888  0.1353
13218TIP3    H161145   2.002   0.088  12.446  0.6504 -0.4808 -1.1183
13218TIP3    H261146   2.118  -0.007  12.471  1.0293  0.2835  0.1200
13219TIP3   OH261147   1.794   0.185  15.105  0.5658 -0.2942 -0.0217
13219TIP3    H161148   1.847   0.126  15.052  1.2385 -0.7694  1.1476
13219TIP3    H261149   1.853   0.217  15.174 -0.2363  0.4147  0.3732
13220TIP3   OH261150   3.249   3.678   3.063 -0.1420 -0.3856  0.4978
13220TIP3    H161151   3.247   3.703   2.970  4.5165 -1.6674 -0.2213
13220TIP3    H261152   3.252   3.761   3.110  1.4834  0.4024 -0.8744
13221TIP3   OH261153   1.466   5.319   1.717 -0.8079  0.1439 -0.0792
13221TIP3    H161154   1.484   5.226   1.728  0.6578  0.2000 -1.6436
13221TIP3    H261155   1.380   5.322   1.674 -0.6037 -0.5117 -0.5526
13222TIP3   OH261156   5.744   5.859   5.969 -0.1710  0.4013 -0.2040
13222TIP3    H161157   5.802   5.888   5.899 -1.4351  0.0810 -1.4232
13222TIP3    H261158   5.763   5.766   5.980 -0.9057  0.1341 -1.0840
13223TIP3   OH261159   2.494   4.269  10.452  0.4293 -0.3059 -0.2317
13223TIP3    H161160   2.495   4.200  10.519 -0.9737 -0.3386 -0.2152
13223TIP3    H261161   2.469   4.223  10.372  1.9226 -0.2323 -0.7683
13224TIP3   OH261162   1.051   5.992  12.704 -0.3696 -0.4580 -0.8916
13224TIP3    H161163   1.115   6.062  12.717 -1.7654  0.9240 -1.1029
13224TIP3    H261164   1.098   5.912  12.725  0.8128  0.6766  1.1641
13225TIP3   OH261165   5.186   0.719   2.924  0.5245 -0.3911 -0.7833
13225TIP3    H161166   5.213   0.635   2.960 -0.5602 -1.1233 -1.6197
13225TIP3    H261167   5.214   0.717   2.832 -1.1361 -0.6392 -1.3165
13226TIP3   OH261168   2.463   5.217   3.804 -0.3214  0.1361  0.3659
13226TIP3    H161169   2.387   5.273   3.791 -0.0484  0.2244 -0.9002
13226TIP3    H261170   2.520   5.235   3.730  0.2578 -1.0233  0.5079
13227TIP3   OH261171   4.469   5.717  13.160  0.3823 -0.0481 -0.1569
13227TIP3    H161172   4.462   5.813  13.160  0.7154 -0.0232 -0.0998
13227TIP3    H261173   4.525   5.697  13.236 -1.0574 -0.3943  0.8486
13228TIP3   OH261174   5.556   0.898   4.809  0.1134 -0.2259 -0.7719
13228TIP3    H161175   5.628   0.922   4.867  0.7096 -1.1940 -1.0829
13228TIP3    H261176   5.540   0.805   4.827 -0.2781 -0.3199 -1.5271
13229TIP3   OH261177   3.545   1.291   2.516  0.5866 -0.3820  0.2417
13229TIP3    H161178   3.548   1.248   2.430  0.6612 -0.8674  0.4826
13229TIP3    H261179   3.600   1.369   2.506  1.1691 -0.8109  0.0516
13230TIP3   OH261180   2.973   2.049   3.601 -0.4918  0.1241 -0.4422
13230TIP3    H161181   2.897   1.992   3.612  0.3485 -0.9492  0.0007
13230TIP3    H261182   2.979   2.098   3.683  1.7164 -2.8741  1.3984
13231TIP3   OH261183   1.219   1.507   3.980 -0.0554 -0.5762  0.3470
13231TIP3    H161184   1.256   1.529   4.066 -1.2833 -0.6538  0.9068
13231TIP3    H261185   1.282   1.445   3.943  0.7902 -0.0922  0.9310
13232TIP3   OH261186   6.016   6.472  13.431 -0.2692 -0.1099  0.2589
13232TIP3    H161187   6.111   6.465  13.419 -0.3911 -1.6060  0.0904
13232TIP3    H261188   6.001   6.439  13.520 -0.7342 -0.7082 -0.0440
13233TIP3   OH261189   5.727   0.744   2.074  0.2253  0.3223  0.2615
13233TIP3    H161190   5.690   0.797   2.145  1.3703  0.2465  0.9510
13233TIP3    H261191   5.759   0.808   2.011  1.0288  0.4584  0.7904
13234TIP3   OH261192   0.753   6.392  17.188 -0.2697  0.6107  0.2910
13234TIP3    H161193   0.722   6.302  17.179  1.0100 -0.1869  2.8524
13234TIP3    H261194   0.831   6.397  17.133 -0.5875  0.3125 -0.1963
13235TIP3   OH261195   3.542   6.491  12.170  0.3147  0.3497 -0.3849
13235TIP3    H161196   3.483   6.566  12.168 -0.3161 -0.0557 -3.7688
13235TIP3    H261197   3.502   6.428  12.111  1.9005 -1.8156  0.7260
13236TIP3   OH261198   5.400   5.782   4.000  0.5977  0.1108 -0.0771
13236TIP3    H161199   5.323   5.728   3.982  0.6401 -0.4050  1.1776
13236TIP3    H261200   5.420   5.824   3.917 -1.0757  0.3001 -0.4122
13237TIP3   OH261201   2.401   6.577  13.724  0.4025 -0.1360  0.4162
13237TIP3    H161202   2.443   6.498  13.690  1.5963  1.2093 -1.3970
13237TIP3    H261203   2.344   6.545  13.794 -1.4785 -3.0267 -2.1485
13238TIP3   OH261204   3.292   3.069   2.351  0.0254 -0.2616  0.3916
13238TIP3    H161205   3.283   3.013   2.428 -0.3927 -0.2801  0.3335
13238TIP3    H261206   3.226   3.036   2.289 -0.4842  0.5185  0.5008
13239TIP3   OH261207   2.211   4.785  17.187 -0.2272 -0.1151 -0.4312
13239TIP3    H161208   2.246   4.762  17.273 -1.6072  2.0424  0.8179
13239TIP3    H261209   2.250   4.871  17.168 -1.4278  0.3247 -1.0090
13240TIP3   OH261210   2.841   4.621  12.074 -0.3566 -0.0088 -0.4724
13240TIP3    H161211   2.797   4.551  12.123 -2.4499  1.1347 -0.5989
13240TIP3    H261212   2.803   4.702  12.109  0.1239  0.9594 -2.0812
13241TIP3   OH261213   4.922   3.817   3.259 -0.0908  0.3226  0.7619
13241TIP3    H161214   4.917   3.864   3.342  3.7574  0.0879  1.3279
13241TIP3    H261215   4.914   3.725   3.283  0.5076  0.2846  0.8364
13242TIP3   OH261216   4.896   6.588  12.061 -0.4360 -0.4383  0.6025
13242TIP3    H161217   4.870   6.661  12.117  0.1133 -0.1982  0.5415
13242TIP3    H261218   4.821   6.527  12.066 -2.2979  1.4539 -1.7471
13243TIP3   OH261219   5.689   5.355   1.964 -0.6079  0.1641  0.2567
13243TIP3    H161220   5.669   5.289   1.898 -1.2962  2.3952 -1.9387
13243TIP3    H261221   5.778   5.335   1.993 -1.2555 -2.4163  0.6602
13244TIP3   OH261222   4.175   4.961   1.421  0.6083 -0.4843  0.3905
13244TIP3    H161223   4.212   5.005   1.498 -1.0428  1.9095 -0.0842
13244TIP3    H261224   4.202   5.015   1.347 -1.6615 -0.0889 -0.2105
13245TIP3   OH261225   4.311   5.061  14.261 -0.3289 -0.1863  0.5231
13245TIP3    H161226   4.344   4.997  14.324 -3.3227 -1.2038  1.1952
13245TIP3    H261227   4.363   5.140  14.278 -0.3646 -0.7067  3.6409
13246TIP3   OH261228   2.298   4.830   4.008 -0.2043 -0.2582 -0.3860
13246TIP3    H161229   2.275   4.842   4.100 -0.0526  0.9682 -0.4960
13246TIP3    H261230   2.230   4.877   3.960  0.8109  0.8366 -0.8156
13247TIP3   OH261231   6.560   3.990   0.737 -0.4261  0.2038 -0.1055
13247TIP3    H161232   6.624   4.027   0.676  1.8414 -1.5373  1.0411
13247TIP3    H261233   6.612   3.968   0.815 -2.2080 -2.3355  0.4827
13248TIP3   OH261234   0.964   5.773   0.876 -0.0602  0.0609 -0.6245
13248TIP3    H161235   1.011   5.789   0.794  1.3757  0.5217  0.2527
13248TIP3    H261236   0.943   5.679   0.872  0.0771  0.0500 -1.4708
13249TIP3   OH261237   1.244   4.926   1.442  0.1394  0.3384 -0.0059
13249TIP3    H161238   1.248   4.913   1.536  0.6507 -0.3172 -0.1125
13249TIP3    H261239   1.193   5.006   1.431  0.4266  0.6493  0.8435
13250TIP3   OH261240   1.338   0.619  11.199  0.4264  0.1922  0.0008
13250TIP3    H161241   1.243   0.632  11.200  0.4799  0.8938 -1.5502
13250TIP3    H261242   1.357   0.591  11.110  1.6032 -0.6612  0.4988
13251TIP3   OH261243   4.890   4.184   1.991 -0.4278 -0.1094 -0.4892
13251TIP3    H161244   4.820   4.142   2.041 -0.7478  1.0168  0.0466
13251TIP3    H261245   4.891   4.137   1.907 -1.9751 -0.0261 -0.5942
13252TIP3   OH261246   0.439   5.412   5.290  0.4447 -0.3741  0.2154
13252TIP3    H161247   0.363   5.360   5.313 -0.0462  0.3255  0.1962
13252TIP3    H261248   0.472   5.372   5.209  0.0005 -0.5826  0.1365
13253TIP3   OH261249   6.295   3.955   0.088 -0.1938 -0.4770 -0.3496
13253TIP3    H161250   6.214   3.995   0.117  1.4499  1.4296  2.0429
13253TIP3    H261251   6.308   3.988  -0.001 -2.0201 -0.8679 -0.7896
13254TIP3   OH261252   4.363   6.734  16.242 -0.6333  0.2661  0.0877
13254TIP3    H161253   4.364   6.701  16.332  0.6024  1.1354  0.4169
13254TIP3    H261254   4.344   6.827  16.251 -1.8765  0.1025 -0.6697
13255TIP3   OH261255   0.191   5.820   4.452  0.4760  0.3582  0.2044
13255TIP3    H161256   0.136   5.858   4.383 -0.7315 -0.8213  0.4790
13255TIP3    H261257   0.193   5.886   4.521 -2.4912 -0.4011  1.1537
13256TIP3   OH261258   5.066   4.212  16.044  0.1693 -0.0967  0.3172
13256TIP3    H161259   5.082   4.133  16.096 -1.3059  0.0769  1.0841
13256TIP3    H261260   5.053   4.179  15.955  0.5648 -0.6158  0.4462
13257TIP3   OH261261   2.663   6.074  14.991  0.4217  0.1205 -0.0794
13257TIP3    H161262   2.651   5.980  15.010  2.5723 -0.0862  0.5198
13257TIP3    H261263   2.607   6.118  15.056  0.4662 -0.7406  0.5714
13258TIP3   OH261264   1.179   4.650   4.062  0.6619 -0.6375 -0.1396
13258TIP3    H161265   1.199   4.559   4.086  0.0385 -0.4431  1.2421
13258TIP3    H261266   1.178   4.651   3.967 -1.3239 -2.5613 -0.2141
13259TIP3   OH261267   4.772   6.678  16.237 -0.1404  0.6301 -0.4219
13259TIP3    H161268   4.703   6.734  16.202 -0.0892  0.3515 -0.9640
13259TIP3    H261269   4.798   6.722  16.319 -0.0586  1.4327 -0.8642
13260TIP3   OH261270   4.367   5.348   4.864  0.0336  0.2157 -0.0917
13260TIP3    H161271   4.432   5.340   4.934 -1.2196 -1.8427  0.9522
13260TIP3    H261272   4.371   5.264   4.818 -0.7125  0.7082 -1.1049
13261TIP3   OH261273   3.421   1.258   4.202 -0.3072  0.6099  0.1622
13261TIP3    H161274   3.459   1.196   4.139 -1.0766 -2.0285  2.1192
13261TIP3    H261275   3.461   1.236   4.285 -0.8744  2.5962  1.0326
13262TIP3   OH261276   5.298   4.982   6.351 -0.0874  0.5981  0.0393
13262TIP3    H161277   5.208   4.953   6.368 -0.8541  2.7507 -0.0408
13262TIP3    H261278   5.349   4.901   6.351 -1.9274 -0.6445  0.6119
13263TIP3   OH261279   6.843   4.769  14.902  0.5678 -0.2197  0.1819
13263TIP3    H161280   6.925   4.727  14.930  0.4977  0.0580  0.8124
13263TIP3    H261281   6.871   4.853  14.865  0.6471 -0.5232 -0.4608
13264TIP3   OH261282   0.710   1.294   3.352  0.6075  0.1214  0.2801
13264TIP3    H161283   0.726   1.209   3.392 -0.7756 -0.2088  0.1844
13264TIP3    H261284   0.782   1.349   3.382  1.7503 -1.1822  0.0066
13265TIP3   OH261285   2.758   2.788   4.344 -0.5848  0.2024 -0.6542
13265TIP3    H161286   2.839   2.829   4.374 -0.9541  0.1552  0.4329
13265TIP3    H261287   2.765   2.697   4.373  0.1050 -0.4761 -2.7996
13266TIP3   OH261288   2.645   0.466   4.358 -0.0005 -0.2612 -0.1017
13266TIP3    H161289   2.580   0.537   4.357  0.4110  0.1248  0.0082
13266TIP3    H261290   2.593   0.386   4.359 -0.4766  0.0425  0.0562
13267TIP3   OH261291   4.866   1.340   4.552  0.0957 -0.4737  0.2283
13267TIP3    H161292   4.818   1.322   4.471  0.7812 -0.6408 -0.1492
13267TIP3    H261293   4.911   1.423   4.536 -0.9236  0.2443  0.9831
13268TIP3   OH261294   2.343   0.337  13.385  0.5233  0.1003  0.2038
13268TIP3    H161295   2.424   0.366  13.428  0.8090  0.1715 -0.3787
13268TIP3    H261296   2.315   0.412  13.334  0.8939 -0.4143 -0.7732
13269TIP3   OH261297   2.131   1.488   0.178  0.7222  0.3732  0.1387
13269TIP3    H161298   2.196   1.446   0.234  0.3725  1.7310  1.5988
13269TIP3    H261299   2.128   1.579   0.207  1.4410  1.4966 -2.9237
13270TIP3   OH261300   4.447   0.023   6.416  0.3017 -0.2888 -0.0140
13270TIP3    H161301   4.432   0.099   6.360  0.6374 -0.5867 -0.5236
13270TIP3    H261302   4.542   0.018   6.425  0.4118 -1.6497 -1.4356
13271TIP3   OH261303   3.015   2.929   9.907  0.1174 -0.3916  0.2721
13271TIP3    H161304   2.930   2.945   9.867 -0.0283 -3.8047 -1.0803
13271TIP3    H261305   2.997   2.925  10.001 -0.5210  2.2172  0.3412
13272TIP3   OH261306   0.853   5.702   2.784  0.2818  0.0519  0.2090
13272TIP3    H161307   0.888   5.790   2.774 -2.7726  1.2917 -0.6993
13272TIP3    H261308   0.799   5.706   2.863 -0.3987 -0.8110 -0.1889
13273TIP3   OH261309   2.728   4.182  14.852 -0.4666  0.2339  0.4408
13273TIP3    H161310   2.800   4.206  14.910  2.6105  1.6521 -3.4645
13273TIP3    H261311   2.685   4.265  14.831 -1.4099 -0.2253  0.5066
13274TIP3   OH261312   2.065   5.206  13.000 -0.5466 -0.0509  0.1483
13274TIP3    H161313   2.139   5.217  13.061  0.7139  0.2163 -1.3559
13274TIP3    H261314   2.050   5.111  12.997  1.3353 -0.3639 -1.2718
13275TIP3   OH261315   0.676   0.863  12.188 -0.0672 -0.4629  0.0688
13275TIP3    H161316   0.680   0.768  12.203 -1.2161 -0.8622 -1.8708
13275TIP3    H261317   0.592   0.878  12.145  0.1684  1.4311  0.1625
13276TIP3   OH261318   6.056   1.664   5.077  0.8151 -0.2939  0.0587
13276TIP3    H161319   6.137   1.640   5.032  0.5736 -0.5843 -0.2197
13276TIP3    H261320   6.082   1.735   5.137  1.3614 -0.6794  0.2854
13277TIP3   OH261321   2.912   3.682  16.920  0.2851  0.0531 -0.0765
13277TIP3    H161322   2.983   3.653  16.863  0.1894 -1.4062  0.4992
13277TIP3    H261323   2.844   3.616  16.910 -0.7563  1.1059 -0.1522
13278TIP3   OH261324   4.175   3.950   5.788 -0.7376  0.0684  0.2543
13278TIP3    H161325   4.139   3.862   5.800  0.0281 -0.1406  1.1720
13278TIP3    H261326   4.131   4.004   5.853  1.3255 -0.4310  2.1753
13279TIP3   OH261327   0.830   0.087   0.612  0.4784 -0.3865  0.2061
13279TIP3    H161328   0.822   0.176   0.579 -1.7338 -0.5208  0.2420
13279TIP3    H261329   0.773   0.084   0.689  0.8672 -1.7085  0.4717
13280TIP3   OH261330   3.177   2.635  12.951 -0.4727  0.1064 -0.1572
13280TIP3    H161331   3.144   2.627  13.040 -0.5124  0.7109 -0.1137
13280TIP3    H261332   3.098   2.634  12.896 -0.4505 -0.2287 -0.1871
13281TIP3   OH261333   1.516   2.658   2.557  0.2740  0.6215  0.0021
13281TIP3    H161334   1.474   2.607   2.488  2.6872  0.6065 -1.5892
13281TIP3    H261335   1.495   2.612   2.638  0.5828 -1.6895 -1.1527
13282TIP3   OH261336   2.429   4.998  13.751  0.0063 -0.0186 -0.4889
13282TIP3    H161337   2.355   5.028  13.697  1.5451  0.0588 -2.6547
13282TIP3    H261338   2.429   4.903  13.741 -1.6201 -0.3897  2.0730
13283TIP3   OH261339   1.433   4.269   2.106 -0.5853 -0.2661 -0.0191
13283TIP3    H161340   1.417   4.327   2.032 -0.0943  0.7135  0.6173
13283TIP3    H261341   1.521   4.292   2.136 -0.6637 -0.8483  0.6922
13284TIP3   OH261342   3.076   2.015   1.087 -0.7500 -0.1717 -0.0982
13284TIP3    H161343   3.112   1.931   1.116 -0.8389  0.1093  0.8387
13284TIP3    H261344   3.151   2.075   1.087 -0.9444  0.0826  0.5686
13285TIP3   OH261345   4.923   1.175   2.993  0.3412 -0.3362 -0.1025
13285TIP3    H161346   4.925   1.261   3.036  1.7625  0.0072 -0.8202
13285TIP3    H261347   4.988   1.123   3.039  0.7580 -0.4606 -0.8162
13286TIP3   OH261348   4.842   2.002  11.346 -0.2333 -0.0120  0.5891
13286TIP3    H161349   4.849   1.975  11.254  1.1389  0.2614  0.5961
13286TIP3    H261350   4.783   1.938  11.385  0.1760 -0.8912 -0.1908
13287TIP3   OH261351   2.031   0.038   3.957 -0.1728 -0.0651 -0.1172
13287TIP3    H161352   2.021   0.102   3.886 -0.4880 -0.8569 -0.8079
13287TIP3    H261353   2.035  -0.047   3.912  1.1027 -0.4747  0.7107
13288TIP3   OH261354   4.920   1.277  14.685  0.2477  0.2288 -0.1548
13288TIP3    H161355   4.825   1.269  14.680  0.3504 -3.4290  0.5732
13288TIP3    H261356   4.939   1.267  14.778  1.3309  1.8429 -0.1819
13289TIP3   OH261357   6.072   2.522  16.609 -0.2731 -0.4939  0.0499
13289TIP3    H161358   6.027   2.444  16.577 -0.6170  0.1412 -1.0895
13289TIP3    H261359   6.073   2.581  16.534  1.9154 -0.2302  0.2299
13290TIP3   OH261360   2.561   1.811  13.903  0.1088 -0.7954 -0.0645
13290TIP3    H161361   2.624   1.868  13.948  0.3167 -0.6758 -0.5086
13290TIP3    H261362   2.494   1.792  13.970 -0.0738  0.1356  0.0317
13291TIP3   OH261363   0.473   6.800  15.679  0.1299  0.0918  0.7229
13291TIP3    H161364   0.468   6.731  15.613 -2.0143 -0.0729  1.0093
13291TIP3    H261365   0.524   6.869  15.637 -0.8826 -0.1519 -0.9921
13292TIP3   OH261366   3.905   2.516   3.816  0.3765  0.0569  0.4354
13292TIP3    H161367   3.982   2.568   3.838 -0.8485  1.6606  1.1268
13292TIP3    H261368   3.940   2.431   3.790  2.5228  1.4178 -1.5483
13293TIP3   OH261369   1.177   4.880  13.506  0.2266  0.0175  0.3263
13293TIP3    H161370   1.206   4.795  13.540  2.3123  1.1156  1.5087
13293TIP3    H261371   1.209   4.881  13.416 -0.0650 -0.5703  0.2135
13294TIP3   OH261372   3.337   3.295  14.136  0.1923 -0.4443 -0.5500
13294TIP3    H161373   3.352   3.230  14.205 -0.9816 -1.2328 -1.0063
13294TIP3    H261374   3.260   3.344  14.167  1.0164  0.7127 -0.2449
13295TIP3   OH261375   0.137   3.640   5.279  0.6672  0.3527 -0.4055
13295TIP3    H161376   0.216   3.694   5.273  0.3251  1.1123  1.2719
13295TIP3    H261377   0.166   3.557   5.314  0.8693  0.2581 -0.7964
13296TIP3   OH261378   2.724   0.329  13.715  0.5562 -0.6509 -0.3094
13296TIP3    H161379   2.649   0.293  13.763  0.2806  1.1173  0.6883
13296TIP3    H261380   2.738   0.415  13.755  0.9738  0.4731 -2.7360
13297TIP3   OH261381   1.414   3.241   0.163 -0.2957  0.0561 -0.3717
13297TIP3    H161382   1.347   3.186   0.204  0.5043 -0.0057  0.9012
13297TIP3    H261383   1.495   3.190   0.170  0.3432  1.1084  0.2767
13298TIP3   OH261384   1.101   1.219   4.184  0.1939 -0.2867 -0.3908
13298TIP3    H161385   1.114   1.244   4.092  0.3906 -1.3021 -0.6546
13298TIP3    H261386   1.018   1.171   4.184 -0.5811  1.0210  0.2445
13299TIP3   OH261387   0.505   3.695   5.601 -0.4998  0.4262  0.1559
13299TIP3    H161388   0.556   3.615   5.616 -1.1122  0.2608  1.5044
13299TIP3    H261389   0.416   3.665   5.588 -0.6258  0.8602 -0.0189
13300TIP3   OH261390   3.869   6.293  14.344 -0.0472 -0.0492  0.6115
13300TIP3    H161391   3.882   6.208  14.302 -0.0579 -1.0061  2.4318
13300TIP3    H261392   3.846   6.352  14.273 -0.9560 -1.7709 -0.5878
13301TIP3   OH261393   1.127   6.604   3.265 -0.0498  0.1124  0.1569
13301TIP3    H161394   1.209   6.651   3.280 -0.5887  1.4935 -1.0595
13301TIP3    H261395   1.096   6.635   3.180 -2.9700  1.3304  1.5433
13302TIP3   OH261396   3.096   1.589  10.935 -0.0560 -0.3788 -0.2854
13302TIP3    H161397   3.032   1.519  10.945  1.3956 -1.9374 -1.4114
13302TIP3    H261398   3.050   1.656  10.885 -1.6047 -0.2886  1.1608
13303TIP3   OH261399   6.447   0.038   0.492 -0.1488 -0.4682  0.0179
13303TIP3    H161400   6.364   0.076   0.465  0.2142  2.1508  2.1310
13303TIP3    H261401   6.511   0.109   0.478  1.0435 -1.1192  1.8340
13304TIP3   OH261402   4.555   4.612  14.537  0.2610  0.3126 -0.0971
13304TIP3    H161403   4.523   4.522  14.526 -0.8149  0.8252 -1.5347
13304TIP3    H261404   4.544   4.652  14.451 -0.2276  2.1262  0.7525
13305TIP3   OH261405   2.332   5.270  10.687  0.2416 -0.0529  0.2168
13305TIP3    H161406   2.246   5.306  10.665  0.5725  0.4671 -0.2342
13305TIP3    H261407   2.313   5.186  10.728 -0.4545 -0.2116 -0.4272
13306TIP3   OH261408   4.626   3.691  10.638 -0.3720 -0.1617  0.1290
13306TIP3    H161409   4.536   3.704  10.608  0.8915 -0.2681 -4.4533
13306TIP3    H261410   4.672   3.770  10.610  1.3303 -0.9228  0.6710
13307TIP3   OH261411   2.075   3.891  13.200  0.2756  0.1072 -0.3631
13307TIP3    H161412   2.097   3.834  13.273 -1.5691 -0.5188 -0.2237
13307TIP3    H261413   2.059   3.976  13.240  1.0034  0.2188 -0.2941
13308TIP3   OH261414   2.369   1.763   3.626  0.1872  0.3892  0.2105
13308TIP3    H161415   2.288   1.751   3.675  0.6289 -2.2178  0.4315
13308TIP3    H261416   2.423   1.688   3.650  0.9982 -0.2765 -3.2063
13309TIP3   OH261417   6.749   5.606  15.160  0.1164 -0.3184  0.2888
13309TIP3    H161418   6.802   5.529  15.138  0.2191 -0.4640  1.0062
13309TIP3    H261419   6.812   5.676  15.171 -0.0362  0.0458 -1.0609
13310TIP3   OH261420   4.085   5.557   1.724  0.0105  0.1186 -0.7969
13310TIP3    H161421   4.033   5.635   1.706 -0.2760 -0.2326 -1.5243
13310TIP3    H261422   4.175   5.585   1.709  0.2417  1.1605  1.9449
13311TIP3   OH261423   0.236   5.676   1.721  0.4634  0.2976  0.4061
13311TIP3    H161424   0.182   5.720   1.788  0.2190  1.1203 -0.3116
13311TIP3    H261425   0.267   5.747   1.665 -0.0266 -0.4416 -0.8510
13312TIP3   OH261426   0.152   5.304  12.025 -0.7374  0.0350 -0.5676
13312TIP3    H161427   0.140   5.339  12.113  0.3982  0.5454 -0.6047
13312TIP3    H261428   0.173   5.380  11.971  1.1305 -0.5816 -0.7735
13313TIP3   OH261429   2.869   6.195  11.216  0.0951 -0.0567 -0.0400
13313TIP3    H161430   2.919   6.231  11.142 -0.1998  0.7985  0.1563
13313TIP3    H261431   2.893   6.251  11.290  1.0876 -1.4781  0.7400
13314TIP3   OH261432   0.489   4.945   0.727 -0.4581 -0.1194 -0.3950
13314TIP3    H161433   0.410   4.893   0.729  0.1397 -1.1179 -1.6428
13314TIP3    H261434   0.495   4.984   0.814 -1.4774 -1.2856  0.2099
13315TIP3   OH261435   1.574   1.686  10.604 -0.4167  0.2602 -0.2605
13315TIP3    H161436   1.649   1.634  10.632 -0.6613 -1.4731 -2.5301
13315TIP3    H261437   1.611   1.758  10.554 -0.1547 -2.0485 -3.7115
13316TIP3   OH261438   0.688   6.399  14.158 -0.0903  0.2909  1.0001
13316TIP3    H161439   0.771   6.445  14.150  0.4257 -0.9281 -2.3628
13316TIP3    H261440   0.712   6.307  14.170 -0.9647 -0.0235  0.4476
13317TIP3   OH261441   2.640   4.751  14.802 -0.1937 -0.3433  0.3597
13317TIP3    H161442   2.545   4.742  14.796 -0.5245  1.2812  2.0406
13317TIP3    H261443   2.669   4.767  14.713 -1.6728  0.4051 -0.0169
13318TIP3   OH261444   5.455   5.603   1.117 -0.1946  0.3486  0.9091
13318TIP3    H161445   5.497   5.665   1.176 -0.0072  2.7179 -1.5010
13318TIP3    H261446   5.365   5.634   1.109 -0.3624 -0.2516  0.3462
13319TIP3   OH261447   3.559   5.681   4.447 -0.2451  0.1107  0.0971
13319TIP3    H161448   3.645   5.640   4.441 -1.0355 -1.6327  0.0589
13319TIP3    H261449   3.560   5.726   4.531  0.1063 -1.4203  0.9489
13320TIP3   OH261450   1.687   1.790  15.018 -0.7077 -0.0618 -0.3328
13320TIP3    H161451   1.738   1.825  15.091 -0.0920  1.0177 -1.2527
13320TIP3    H261452   1.681   1.696  15.036 -1.7650  0.3302  1.8211
13321TIP3   OH261453   1.537   0.497   5.169  0.4018 -0.6553 -0.0387
13321TIP3    H161454   1.472   0.565   5.187  1.5019  0.8185 -1.3589
13321TIP3    H261455   1.562   0.465   5.256  0.3056  1.0748  0.6800
13322TIP3   OH261456   6.775   4.899  12.521  0.0932  0.4131  0.4977
13322TIP3    H161457   6.788   4.879  12.614 -1.0487 -0.3906  0.5122
13322TIP3    H261458   6.772   4.994  12.517  2.3802  0.5423  0.9369
13323TIP3   OH261459   4.779   0.894  12.583  0.1781 -0.4907 -0.5901
13323TIP3    H161460   4.782   0.830  12.655 -0.4191  0.9692  0.8118
13323TIP3    H261461   4.862   0.941  12.590  0.4138 -0.7959 -1.3101
13324TIP3   OH261462   5.655   0.222  12.359 -0.1664 -0.2156  0.3132
13324TIP3    H161463   5.741   0.241  12.397 -1.4913  1.5789  2.6810
13324TIP3    H261464   5.622   0.147  12.410 -0.2269 -0.5833 -0.2556
13325TIP3   OH261465   5.485   4.768  12.986  0.0752 -0.3994 -0.4203
13325TIP3    H161466   5.428   4.822  13.040  0.2337 -1.7407  1.1988
13325TIP3    H261467   5.425   4.720  12.928 -0.3416 -0.7605  0.2929
13326TIP3   OH261468   5.249   3.844  13.659  0.2248  0.6833  0.1751
13326TIP3    H161469   5.294   3.890  13.589  1.2647 -0.1500  0.2674
13326TIP3    H261470   5.180   3.795  13.615  0.3708  0.7875 -0.1738
13327TIP3   OH261471   4.781   5.203  15.172  0.2871 -0.0366 -0.2774
13327TIP3    H161472   4.687   5.215  15.188  0.5019  0.5919  0.5716
13327TIP3    H261473   4.793   5.230  15.081  0.1836  3.2630  0.5668
13328TIP3   OH261474   2.291   5.119   2.790  0.4131 -0.0541  0.1079
13328TIP3    H161475   2.200   5.108   2.817  0.2530 -1.3908 -0.8490
13328TIP3    H261476   2.302   5.214   2.778 -0.9329  0.0986 -0.0170
13329TIP3   OH261477   0.239   1.451  10.676  0.0668 -0.6552 -0.0388
13329TIP3    H161478   0.179   1.381  10.701 -0.4047 -0.4916 -0.6884
13329TIP3    H261479   0.187   1.531  10.683  0.2709 -0.4898 -0.4004
13330TIP3   OH261480   1.386   4.202   1.380  0.2423 -0.0964  0.4817
13330TIP3    H161481   1.394   4.138   1.310 -0.2794 -0.1562  0.4742
13330TIP3    H261482   1.347   4.154   1.453 -0.3033  0.2442  0.4220
13331TIP3   OH261483   2.372   5.328  15.213  0.4779 -0.1227  0.2791
13331TIP3    H161484   2.350   5.284  15.295 -2.5070  1.1814  0.3224
13331TIP3    H261485   2.350   5.265  15.144  0.9742 -0.4680  0.4365
13332TIP3   OH261486   0.914   2.620  16.395 -0.2193  0.3477 -0.5764
13332TIP3    H161487   0.984   2.637  16.459 -0.7766  0.0563  0.1226
13332TIP3    H261488   0.838   2.667  16.430 -1.3805 -2.2408  0.6033
13333TIP3   OH261489   1.059   1.778   2.528  0.2401 -1.1370 -0.4620
13333TIP3    H161490   1.072   1.734   2.444 -0.2173 -1.1315 -0.5360
13333TIP3    H261491   1.128   1.844   2.531 -0.3683 -0.4495 -1.2862
13334TIP3   OH261492   1.253   4.873   2.855 -0.2193 -0.3273  0.5357
13334TIP3    H161493   1.333   4.926   2.858  1.4487 -2.7102  1.6315
13334TIP3    H261494   1.219   4.884   2.767  1.6727  0.2858 -0.1529
13335TIP3   OH261495   1.793   3.857  12.444  0.5061 -0.1643 -0.1415
13335TIP3    H161496   1.837   3.799  12.382  0.7062  1.0883 -1.1969
13335TIP3    H261497   1.787   3.805  12.524  0.6474 -1.6611 -1.0522
13336TIP3   OH261498   4.739   0.566  14.794  0.3729 -0.0805  0.2694
13336TIP3    H161499   4.801   0.638  14.781  0.6234 -0.5999 -1.6037
13336TIP3    H261500   4.741   0.516  14.712 -1.8526 -0.6258  0.4640
13337TIP3   OH261501   1.225   4.181  13.528  0.0570  0.0579 -0.4694
13337TIP3    H161502   1.303   4.146  13.571  0.9123  1.7140 -0.5954
13337TIP3    H261503   1.172   4.217  13.599 -0.8113 -1.3709 -0.3432
13338TIP3   OH261504   2.064   3.723  13.435  0.7665  0.3453  0.1530
13338TIP3    H161505   2.051   3.673  13.516 -0.8888  0.1805 -0.1864
13338TIP3    H261506   1.986   3.777  13.427  0.2464 -0.6123 -2.0038
13339TIP3   OH261507   3.677   0.473  15.600  0.3401  0.5911  0.2280
13339TIP3    H161508   3.736   0.522  15.658  1.5934 -2.6887  2.0019
13339TIP3    H261509   3.726   0.393  15.579 -2.4473 -1.0542 -0.4567
13340TIP3   OH261510   1.457   1.663   1.755 -0.7296 -0.2330 -0.0074
13340TIP3    H161511   1.456   1.661   1.659 -1.6523 -1.4900 -0.0003
13340TIP3    H261512   1.544   1.631   1.779 -1.2095 -1.9669 -0.4389
13341TIP3   OH261513   1.895   3.859  15.407 -0.2839 -0.2593  0.4523
13341TIP3    H161514   1.856   3.947  15.404  0.8571  0.2471  0.2255
13341TIP3    H261515   1.982   3.870  15.370  0.1830 -1.3297  1.1979
13342TIP3   OH261516   4.992   0.355  14.398 -0.1207  0.1280 -0.5633
13342TIP3    H161517   5.009   0.301  14.321  1.3966  1.1407 -0.9783
13342TIP3    H261518   5.074   0.401  14.414 -1.1295  1.7366  0.2338
13343TIP3   OH261519   4.094   6.039  10.730  0.2502 -0.7311 -0.5936
13343TIP3    H161520   4.154   6.114  10.724 -0.1444 -0.2664  0.8822
13343TIP3    H261521   4.014   6.075  10.768 -0.6898 -1.5178 -1.7466
13344TIP3   OH261522   6.834   6.587  12.428  0.3712  0.3797  0.3020
13344TIP3    H161523   6.816   6.669  12.381 -0.2116  0.6278  0.9386
13344TIP3    H261524   6.751   6.566  12.472  0.3684 -0.8202 -0.2525
13345TIP3   OH261525   4.478   5.073   2.969  0.6373 -0.0729 -0.0452
13345TIP3    H161526   4.414   5.079   2.898  0.3145  0.8802  0.3118
13345TIP3    H261527   4.453   5.142   3.030  1.8500  0.1408  0.2366
13346TIP3   OH261528   5.126   2.982  16.524 -0.3482 -0.5710  0.0356
13346TIP3    H161529   5.207   3.019  16.561 -0.0783 -0.5668 -0.5486
13346TIP3    H261530   5.059   3.000  16.590 -0.2194  0.9311 -0.2135
13347TIP3   OH261531   1.665   2.787   4.062 -0.0722 -0.5376 -0.2998
13347TIP3    H161532   1.627   2.700   4.075 -0.6431 -0.1635  0.6117
13347TIP3    H261533   1.755   2.779   4.096 -0.7821 -0.2357  1.7983
13348TIP3   OH261534   5.341   4.695   2.410  0.4842  0.1658 -0.3507
13348TIP3    H161535   5.327   4.701   2.316  1.0168 -0.7371 -0.5059
13348TIP3    H261536   5.418   4.750   2.426 -0.3291  1.2995 -0.2387
13349TIP3   OH261537   4.116   4.140  10.852 -0.3233  0.5397  0.2603
13349TIP3    H161538   4.120   4.073  10.783 -0.0512  0.8011  0.0139
13349TIP3    H261539   4.163   4.215  10.814  2.3718 -0.2601  1.7981
13350TIP3   OH261540   3.982   1.364  16.718 -0.3410  0.1258 -0.2428
13350TIP3    H161541   4.052   1.300  16.729  0.9291  1.0825 -2.0743
13350TIP3    H261542   3.955   1.354  16.627 -1.2281  1.0930 -0.1074
13351TIP3   OH261543   1.081   2.252  16.940 -0.1387  0.0865  0.7854
13351TIP3    H161544   1.167   2.221  16.969  0.7593  0.0558 -1.6873
13351TIP3    H261545   1.084   2.245  16.845 -2.9848 -0.1092  0.6287
13352TIP3   OH261546   2.955   3.246  12.914  0.3456 -0.0678 -0.2023
13352TIP3    H161547   2.905   3.312  12.963 -0.8996 -0.0256 -1.4669
13352TIP3    H261548   2.990   3.187  12.981 -2.5832 -0.9062  0.7114
13353TIP3   OH261549   1.657   5.765  14.729 -0.2734  0.8425 -0.3543
13353TIP3    H161550   1.617   5.741  14.813 -1.3356 -0.3453 -1.1672
13353TIP3    H261551   1.713   5.691  14.706 -1.1768  0.4508 -1.4037
13354TIP3   OH261552   0.359   3.912   4.927 -0.3590  0.1713 -0.1393
13354TIP3    H161553   0.372   3.929   4.834 -1.4813  0.3728 -0.2740
13354TIP3    H261554   0.271   3.874   4.933 -0.1545 -0.2049  0.7988
13355TIP3   OH261555   0.125   0.415   2.136  0.0639 -0.0941  0.2853
13355TIP3    H161556   0.127   0.425   2.231 -2.5793  0.5994  0.3537
13355TIP3    H261557   0.195   0.471   2.105  1.2489 -0.6508  1.8206
13356TIP3   OH261558   5.609   4.867  16.765  0.2135 -0.1493  0.0559
13356TIP3    H161559   5.660   4.937  16.726  1.5182 -1.6868 -1.1528
13356TIP3    H261560   5.556   4.832  16.693  0.5409 -1.2016  0.2978
13357TIP3   OH261561   4.970   5.475  14.853  0.8216  0.3914 -0.3341
13357TIP3    H161562   5.031   5.426  14.798 -0.3256 -1.5635  0.0291
13357TIP3    H261563   5.026   5.529  14.909  2.0694  1.1222 -2.1829
13358TIP3   OH261564   1.614   1.374  14.047  0.1725  0.2225 -0.9228
13358TIP3    H161565   1.672   1.299  14.035  0.1389  0.3417 -1.9727
13358TIP3    H261566   1.637   1.410  14.132  0.0079 -1.1343 -0.2715
13359TIP3   OH261567   2.608   5.969   0.674  0.6623  0.7310 -0.3097
13359TIP3    H161568   2.692   6.011   0.693  1.5768 -1.3734  0.6624
13359TIP3    H261569   2.571   5.950   0.760 -0.2513  0.5558 -0.7281
13360TIP3   OH261570   5.293   2.588  12.838  0.0502  0.1094 -0.5723
13360TIP3    H161571   5.211   2.606  12.884 -0.2085 -1.4735 -0.3708
13360TIP3    H261572   5.303   2.662  12.777 -0.5050  1.3341  0.7490
13361TIP3   OH261573   3.413   3.308   4.900  0.4114  0.3119  0.6300
13361TIP3    H161574   3.438   3.358   4.822 -0.6099 -0.3052 -0.1102
13361TIP3    H261575   3.447   3.360   4.973 -1.0487  2.3777 -0.0697
13362TIP3   OH261576   4.536   4.440   0.591 -0.2733 -0.1525 -0.1221
13362TIP3    H161577   4.487   4.463   0.512  0.8408 -1.7473 -1.3413
13362TIP3    H261578   4.473   4.448   0.662 -1.1349  1.9721 -1.0519
13363TIP3   OH261579   6.078   6.536   5.800 -0.5635 -0.5195  0.6765
13363TIP3    H161580   6.165   6.502   5.823  0.7659  1.1338 -1.4787
13363TIP3    H261581   6.079   6.626   5.830 -2.0662 -0.8288  1.7356
13364TIP3   OH261582   2.791   4.751  12.659 -0.6076 -0.4244 -0.3163
13364TIP3    H161583   2.759   4.781  12.573  1.3913  2.5745 -0.1878
13364TIP3    H261584   2.884   4.733  12.644 -0.5979 -1.4746  0.9024
13365TIP3   OH261585   1.914   5.446   2.660 -0.5476  0.4184 -0.4324
13365TIP3    H161586   1.887   5.381   2.725 -0.5603  0.3038 -0.5540
13365TIP3    H261587   1.921   5.528   2.710 -0.6412  0.3473 -0.3035
13366TIP3   OH261588   3.757   6.514   1.302  0.3883 -0.0625 -0.1526
13366TIP3    H161589   3.850   6.505   1.283  0.3716  1.5014 -1.1345
13366TIP3    H261590   3.746   6.607   1.323 -0.9059 -0.2905  0.2546
13367TIP3   OH261591   3.362   6.143  17.048 -0.0277 -0.2620 -0.0166
13367TIP3    H161592   3.341   6.100  16.965  0.7779  0.0736 -0.3939
13367TIP3    H261593   3.359   6.236  17.029  0.0531 -0.1799  0.3588
13368TIP3   OH261594   3.348   3.931  15.384 -0.1568 -0.1236  0.1120
13368TIP3    H161595   3.366   3.850  15.432 -0.4970  0.1149  0.6521
13368TIP3    H261596   3.314   3.991  15.450 -3.0599 -0.5714 -0.8366
13369TIP3   OH261597   2.636   6.428  16.265 -0.7434  0.2824 -0.0480
13369TIP3    H161598   2.673   6.511  16.296  2.0595 -0.4802 -1.0602
13369TIP3    H261599   2.696   6.361  16.299 -0.7847 -0.9973 -2.3401
13370TIP3   OH261600   4.396   3.681  15.129 -0.1468 -0.5465 -0.0278
13370TIP3    H161601   4.305   3.656  15.145  0.1812 -2.4142 -0.8261
13370TIP3    H261602   4.434   3.693  15.216 -1.0188 -0.2572  0.3180
13371TIP3   OH261603   3.953   5.979   3.531 -0.0474  0.1361  0.0417
13371TIP3    H161604   4.015   5.942   3.469 -0.6090 -0.2497 -0.3021
13371TIP3    H261605   3.876   5.922   3.525 -0.1994  0.2337  0.9188
13372TIP3   OH261606   2.104   3.938  16.388  0.2673  0.4692  0.1950
13372TIP3    H161607   2.010   3.955  16.396  0.0421 -0.0996 -1.0576
13372TIP3    H261608   2.119   3.859  16.440 -0.4021 -0.7905 -1.4461
13373TIP3   OH261609   4.320   1.674  16.084 -0.2758 -0.0105  0.2859
13373TIP3    H161610   4.300   1.582  16.065 -1.2345  0.1714  0.3750
13373TIP3    H261611   4.321   1.717  15.999 -0.0289 -0.0665  0.2609
13374TIP3   OH261612   4.755   6.647  12.697  0.2062 -0.4959  0.2309
13374TIP3    H161613   4.775   6.553  12.694  0.4427 -0.4214 -0.6101
13374TIP3    H261614   4.680   6.653  12.757 -0.7066 -1.3964 -0.7746
13375TIP3   OH261615   5.579   5.474   4.633  0.1407 -0.1657 -0.4732
13375TIP3    H161616   5.524   5.493   4.710 -0.7209 -1.0632 -0.8523
13375TIP3    H261617   5.658   5.433   4.670  0.1221  0.2071 -0.0055
13376TIP3   OH261618   5.825   2.554   4.138  0.3396  0.2873  0.1613
13376TIP3    H161619   5.777   2.556   4.055  0.5446 -0.3661  0.0224
13376TIP3    H261620   5.772   2.498   4.195  1.8403 -2.0389 -0.5889
13377TIP3   OH261621   1.438   5.325   1.312  0.1332 -0.1327  0.2021
13377TIP3    H161622   1.501   5.322   1.384  0.2125  0.6131  0.1684
13377TIP3    H261623   1.492   5.334   1.234 -0.0274  1.7982  0.2627
13378TIP3   OH261624   6.497   2.443  15.723 -0.1014 -0.1343 -0.3610
13378TIP3    H161625   6.406   2.435  15.694 -1.2609 -2.2027  3.2473
13378TIP3    H261626   6.490   2.469  15.815  2.9610 -0.6224  0.1027
13379TIP3   OH261627   3.484   0.108   4.481  0.6870  0.0070  0.4231
13379TIP3    H161628   3.466   0.018   4.509  1.5563 -0.4651 -0.4676
13379TIP3    H261629   3.579   0.111   4.471  0.7905  1.3446  1.4411
13380TIP3   OH261630   6.540   3.869   6.147  0.3755 -0.2358  0.6529
13380TIP3    H161631   6.490   3.803   6.195 -1.4425 -0.4710 -1.3783
13380TIP3    H261632   6.582   3.820   6.076 -0.0453  0.5753 -0.1920
13381TIP3   OH261633   2.484   6.112   2.276 -0.4611 -0.7411  0.1479
13381TIP3    H161634   2.537   6.162   2.337 -2.1504 -1.4509  2.3112
13381TIP3    H261635   2.514   6.021   2.287 -1.0076 -0.9191  0.1865
13382TIP3   OH261636   6.223   2.803  11.903 -0.1140  0.0581  0.2554
13382TIP3    H161637   6.171   2.746  11.959  0.2033 -0.4233  0.0706
13382TIP3    H261638   6.312   2.769  11.910  0.2478  1.0791  0.8317
13383TIP3   OH261639   5.366   4.260   5.322  0.0783 -0.3127  0.4036
13383TIP3    H161640   5.272   4.266   5.339 -0.3443  0.5934 -1.9100
13383TIP3    H261641   5.404   4.330   5.376 -1.1038  1.9436 -1.4552
13384TIP3   OH261642   3.961   0.611   1.751  0.2485  0.3541 -0.0837
13384TIP3    H161643   3.998   0.676   1.810 -0.0245  0.7794 -0.3712
13384TIP3    H261644   3.905   0.557   1.807 -0.2582  0.9504 -0.0035
13385TIP3   OH261645   4.509   0.728  16.174  0.2804 -0.2204  0.2731
13385TIP3    H161646   4.595   0.693  16.201  0.4988  1.7436  2.4676
13385TIP3    H261647   4.449   0.655  16.189  1.0954 -0.6016  2.1124
13386TIP3   OH261648   2.146   1.075   0.653  0.3298 -0.4562  0.8937
13386TIP3    H161649   2.127   1.068   0.746  0.0072  1.3885  0.9978
13386TIP3    H261650   2.136   1.168   0.633  2.9008 -0.3743 -0.4372
13387TIP3   OH261651   0.391   5.678  16.016 -0.2063 -0.3944  0.1255
13387TIP3    H161652   0.342   5.727  15.949 -0.2937  0.4095  0.7644
13387TIP3    H261653   0.464   5.639  15.967 -0.4208 -0.0483 -0.4902
13388TIP3   OH261654   4.933   4.292  13.360 -0.1072  0.4094 -0.3629
13388TIP3    H161655   4.872   4.304  13.288  0.4317 -0.4957 -0.9995
13388TIP3    H261656   4.962   4.380  13.382 -0.7554  0.7480 -0.8308
13389TIP3   OH261657   1.132   0.709  17.180  0.1106 -0.0574  0.2321
13389TIP3    H161658   1.180   0.685  17.101 -0.2652  0.7939 -0.2765
13389TIP3    H261659   1.051   0.658  17.176 -0.4434  0.8356 -0.5647
13390TIP3   OH261660   0.994   6.522   0.453  0.0436  0.3906  0.1220
13390TIP3    H161661   1.078   6.485   0.483  0.3088  1.0971  0.2623
13390TIP3    H261662   0.956   6.453   0.399  1.3635  0.5792 -1.1033
13391TIP3   OH261663   1.710   3.014  17.116 -0.1950 -0.2691 -0.3809
13391TIP3    H161664   1.631   2.962  17.108 -1.4244  1.4203  0.1797
13391TIP3    H261665   1.764   2.967  17.180 -1.8973 -0.1222  1.2208
13392TIP3   OH261666   1.434   1.752  12.693 -0.1457  0.6166  0.4923
13392TIP3    H161667   1.479   1.825  12.650  2.1020 -1.1564 -0.4310
13392TIP3    H261668   1.504   1.704  12.737 -1.3982 -1.3698  0.4633
13393TIP3   OH261669   3.302   5.755   3.285  0.0769  0.6539  0.2382
13393TIP3    H161670   3.366   5.684   3.291  1.8523  2.2596  1.4760
13393TIP3    H261671   3.252   5.748   3.366  0.1394  0.7050  0.2815
13394TIP3   OH261672   6.124   1.153   3.465 -1.4885 -0.4825 -0.2449
13394TIP3    H161673   6.208   1.149   3.512 -0.8241  2.6634 -0.9567
13394TIP3    H261674   6.060   1.177   3.532 -0.9983  1.4101 -0.4044
13395TIP3   OH261675   5.956   5.453  16.376  0.1824  0.4138 -0.6998
13395TIP3    H161676   5.950   5.508  16.455 -0.7392  0.7090 -0.9620
13395TIP3    H261677   5.871   5.464  16.333  0.5866  0.0618 -1.6114
13396TIP3   OH261678   3.681   4.249  14.302 -0.3063 -0.0546 -0.3851
13396TIP3    H161679   3.635   4.278  14.381  0.0047  1.1794 -0.6456
13396TIP3    H261680   3.696   4.155  14.317 -1.1680 -0.0653  0.5564
13397TIP3   OH261681   0.220   1.064   0.605 -0.1482  0.2532 -0.5093
13397TIP3    H161682   0.202   0.985   0.657  0.8740  0.5166  0.2614
13397TIP3    H261683   0.160   1.057   0.530 -0.2359 -1.1291 -0.3321
13398TIP3   OH261684   2.403   6.446   0.815 -0.3630  0.4353 -0.3388
13398TIP3    H161685   2.466   6.482   0.753  2.1073  0.6953  2.1128
13398TIP3    H261686   2.399   6.511   0.885  0.0084 -1.4891  1.5844
13399TIP3   OH261687   6.669   5.743   2.747 -0.4308 -0.2046  0.1340
13399TIP3    H161688   6.722   5.681   2.798  0.5617  1.1456  0.8195
13399TIP3    H261689   6.617   5.789   2.813 -0.1982  0.5789 -0.2261
13400TIP3   OH261690   2.171   3.045   6.664 -0.1191 -0.0881  0.5126
13400TIP3    H161691   2.255   3.053   6.620 -0.4256 -0.2134 -0.1109
13400TIP3    H261692   2.161   2.952   6.682  0.3529  0.0483  1.5646
13401TIP3   OH261693   6.558   3.481   4.184  0.3600  0.1292 -0.1474
13401TIP3    H161694   6.605   3.521   4.111  1.0241  0.0510  0.2297
13401TIP3    H261695   6.480   3.442   4.144 -0.4487  1.9907 -0.5067
13402TIP3   OH261696   1.988   2.298  11.992 -0.4640 -0.8101 -0.2578
13402TIP3    H161697   1.971   2.390  11.972  0.0116 -0.6839 -0.0706
13402TIP3    H261698   2.032   2.299  12.076  0.5918 -1.1313 -0.7900
13403TIP3   OH261699   5.582   5.131   4.717  0.2209 -0.2496  0.0328
13403TIP3    H161700   5.653   5.194   4.705 -0.8500  1.0824  0.3545
13403TIP3    H261701   5.584   5.077   4.639  1.3101  0.0509 -0.1649
13404TIP3   OH261702   1.563   4.473   1.314 -0.0825 -0.0648 -0.0316
13404TIP3    H161703   1.538   4.411   1.245 -0.2842  0.6035 -0.5710
13404TIP3    H261704   1.554   4.559   1.273  0.6604  0.3061  0.5541
13405TIP3   OH261705   2.928   4.685   1.206 -0.0617  0.4771  0.1040
13405TIP3    H161706   2.947   4.745   1.134 -0.8748  0.5047 -0.0967
13405TIP3    H261707   2.937   4.738   1.285  2.1196  0.1329  0.1310
13406TIP3   OH261708   1.883   5.871  16.125  0.4389  0.2841 -0.2330
13406TIP3    H161709   1.854   5.915  16.205  4.4612 -1.1904  2.3496
13406TIP3    H261710   1.824   5.796  16.117  0.2396  0.1708  1.7093
13407TIP3   OH261711   6.265   5.472   2.513 -0.5602  0.7880 -0.2364
13407TIP3    H161712   6.289   5.380   2.521 -0.2650  0.8181 -0.7338
13407TIP3    H261713   6.177   5.470   2.475 -1.5855  0.6677  1.9746
13408TIP3   OH261714   3.410   6.720   0.780 -0.3258  0.1239 -0.0839
13408TIP3    H161715   3.324   6.698   0.818 -0.3594  0.9853  0.3569
13408TIP3    H261716   3.396   6.803   0.734 -0.0184 -0.3659 -1.0893
13409TIP3   OH261717   6.720   0.389  15.245  0.0332 -0.3753  0.1997
13409TIP3    H161718   6.682   0.476  15.251  2.2460  0.5777  1.1231
13409TIP3    H261719   6.757   0.385  15.156 -1.2781 -0.9578 -0.3574
13410TIP3   OH261720   5.111   1.039  16.182  0.1772 -0.0122 -0.1270
13410TIP3    H161721   5.114   1.086  16.266 -1.0898  0.5108 -0.3574
13410TIP3    H261722   5.198   0.999  16.175  0.0946 -0.6278  1.7469
13411TIP3   OH261723   4.465   6.198   2.827  0.4302 -0.5698  0.3547
13411TIP3    H161724   4.386   6.250   2.810  0.2021 -0.8306  0.5899
13411TIP3    H261725   4.499   6.175   2.741  0.3711 -0.2698  0.2524
13412TIP3   OH261726   2.614   3.260  11.526 -0.2947 -0.1693  0.0929
13412TIP3    H161727   2.644   3.316  11.454 -0.5387 -2.0666 -1.5583
13412TIP3    H261728   2.666   3.180  11.517 -2.6881 -1.7887 -0.1309
13413TIP3   OH261729   5.948   5.489  13.654 -0.1558  0.3549 -0.4524
13413TIP3    H161730   5.995   5.572  13.663  1.5974 -0.5890 -0.3148
13413TIP3    H261731   5.993   5.445  13.581 -1.0677 -0.4654 -0.5326
13414TIP3   OH261732   3.039   4.317  17.162 -0.0735 -0.1746  0.4590
13414TIP3    H161733   3.002   4.230  17.179 -1.8352  0.7126  1.5034
13414TIP3    H261734   3.050   4.320  17.067 -2.0270 -0.8126  0.1645
13415TIP3   OH261735   5.718   2.039   0.064 -0.0352 -0.2385 -0.2927
13415TIP3    H161736   5.687   2.020  -0.025 -1.9062 -0.3211  0.3487
13415TIP3    H261737   5.777   1.966   0.084  0.3266 -0.2812 -1.3986
13416TIP3   OH261738   1.822   0.415   4.211  0.0616 -0.0723 -0.1767
13416TIP3    H161739   1.746   0.392   4.265  0.0208  1.6916  0.5972
13416TIP3    H261740   1.885   0.345   4.226 -1.5377 -1.7997 -1.1669
13417TIP3   OH261741   3.971   3.082   2.479  0.8107 -0.9003  0.0068
13417TIP3    H161742   3.955   3.124   2.394 -0.0259 -0.4566  0.3804
13417TIP3    H261743   4.051   3.125   2.511  2.5354 -2.7140 -1.5922
13418TIP3   OH261744   3.029   5.355  15.703 -0.1465  0.2389 -0.0078
13418TIP3    H161745   3.100   5.334  15.644  0.2631  1.7061 -0.0864
13418TIP3    H261746   3.014   5.275  15.753  0.8501 -0.3995 -0.7050
13419TIP3   OH261747   6.613   5.371  15.342  0.1025 -0.1994 -0.5176
13419TIP3    H161748   6.524   5.367  15.307 -0.2879 -1.5454  0.5509
13419TIP3    H261749   6.652   5.447  15.299 -1.5600  0.4171 -1.0191
13420TIP3   OH261750   4.668   4.769  13.295  0.4595  0.0022  0.1609
13420TIP3    H161751   4.662   4.814  13.379 -4.1160  1.4592 -0.6701
13420TIP3    H261752   4.746   4.806  13.253  0.9288  1.7400  2.4094
13421TIP3   OH261753   4.360   3.153  12.518  0.5930 -0.2653  0.2730
13421TIP3    H161754   4.311   3.111  12.588  0.6834  0.0577  0.5364
13421TIP3    H261755   4.421   3.211  12.564  1.4477 -0.8969 -0.0335
13422TIP3   OH261756   2.810   2.511   4.374 -0.0102  0.6339  0.6760
13422TIP3    H161757   2.895   2.551   4.391 -0.2185  0.1134  3.4868
13422TIP3    H261758   2.799   2.448   4.445 -2.9216  1.0002  0.6587
13423TIP3   OH261759   3.040   2.557  11.453  0.2715  0.2562  0.4092
13423TIP3    H161760   2.979   2.556  11.379 -1.4149  0.0225  1.7442
13423TIP3    H261761   3.015   2.480  11.505  4.0679 -2.0612 -0.7646
13424TIP3   OH261762   2.240   3.410   2.669 -0.2351 -0.3655 -0.6647
13424TIP3    H161763   2.294   3.361   2.607  0.2461  0.0525 -0.5818
13424TIP3    H261764   2.218   3.347   2.737 -2.7489 -1.5330 -2.3786
13425TIP3   OH261765   0.361   4.821   5.297 -0.5494 -0.1305 -0.2526
13425TIP3    H161766   0.373   4.878   5.221  1.7578  0.8579  0.7513
13425TIP3    H261767   0.316   4.875   5.362 -0.4475 -0.2056 -0.1169
13426TIP3   OH261768   4.885   3.203  13.238 -0.3916  0.0047  0.1300
13426TIP3    H161769   4.933   3.255  13.302  1.1420 -0.3240 -0.7234
13426TIP3    H261770   4.820   3.264  13.202  0.4414  0.9354  0.1576
13427TIP3   OH261771   2.287   2.153  14.005 -0.7090 -0.0487 -0.4937
13427TIP3    H161772   2.361   2.208  14.033 -1.0472  0.0312  0.2425
13427TIP3    H261773   2.259   2.108  14.084 -0.5196 -1.2022 -1.0611
13428TIP3   OH261774   0.771   2.294  11.874  0.1160  0.3514 -0.0160
13428TIP3    H161775   0.789   2.387  11.889 -1.5214  0.5480  0.9761
13428TIP3    H261776   0.826   2.249  11.937  0.0330  0.7234  0.3302
13429TIP3   OH261777   4.099   0.849  16.706  0.2223 -0.0605 -0.0148
13429TIP3    H161778   4.133   0.760  16.707  1.9696  0.5641  0.4241
13429TIP3    H261779   4.109   0.877  16.615  1.2839  0.2350  0.1773
13430TIP3   OH261780   4.321   0.475  11.389 -0.0263 -0.0550 -0.2036
13430TIP3    H161781   4.251   0.468  11.324 -0.6607  1.1547  0.3366
13430TIP3    H261782   4.391   0.522  11.344 -0.9510  1.9380  0.3221
13431TIP3   OH261783   2.455   6.612   4.404 -0.4427 -0.1509 -0.0063
13431TIP3    H161784   2.427   6.670   4.333  1.0232 -1.0256 -1.3767
13431TIP3    H261785   2.407   6.531   4.388 -1.1727  0.1044  0.8614
13432TIP3   OH261786   6.142   0.981  10.708 -0.5057  0.8069 -0.4147
13432TIP3    H161787   6.149   0.914  10.777 -0.7120  1.0512 -0.1570
13432TIP3    H261788   6.123   1.062  10.754  2.3857  1.6079 -0.4786
13433TIP3   OH261789   5.446   2.323   5.341 -0.3258  0.1254 -0.1312
13433TIP3    H161790   5.352   2.313   5.328 -0.4901  2.7286 -1.5367
13433TIP3    H261791   5.462   2.289   5.429 -2.7104  0.3961  0.4609
13434TIP3   OH261792   2.224   2.964  15.659  0.5081  0.6551  0.5428
13434TIP3    H161793   2.316   2.987  15.672  0.1248  1.4097  2.1088
13434TIP3    H261794   2.178   3.048  15.658 -0.1483  0.3012 -0.4936
13435TIP3   OH261795   1.205   3.867   6.683 -0.0883  0.0470 -0.1455
13435TIP3    H161796   1.292   3.835   6.657 -0.2685 -0.6413  0.0754
13435TIP3    H261797   1.144   3.812   6.632 -0.3940  0.6573 -0.4480
13436TIP3   OH261798   1.583   0.637  11.285 -0.4407 -0.0032  0.0337
13436TIP3    H161799   1.488   0.649  11.272 -0.4036 -1.3852 -2.0645
13436TIP3    H261800   1.619   0.641  11.196  1.3801 -0.3868  0.7214
13437TIP3   OH261801   6.261   1.991   2.548 -0.0516 -0.1677  0.0458
13437TIP3    H161802   6.315   1.964   2.474  0.4881  1.6275 -0.2528
13437TIP3    H261803   6.171   1.989   2.514  0.0424 -0.8356 -0.1762
13438TIP3   OH261804   1.970   4.179   4.735 -0.2312 -0.2397  0.3493
13438TIP3    H161805   1.903   4.147   4.675 -0.3881  0.4049  0.1725
13438TIP3    H261806   1.927   4.179   4.821  0.0212 -1.2470  0.4886
13439TIP3   OH261807   1.181   2.241   3.850 -0.6180 -0.4577  0.3771
13439TIP3    H161808   1.090   2.220   3.829 -0.3593  0.0555 -1.3764
13439TIP3    H261809   1.195   2.201   3.936 -2.1311 -1.5626  0.1541
13440TIP3   OH261810   6.379   0.818   4.295 -0.2105 -0.0958 -0.3445
13440TIP3    H161811   6.287   0.790   4.295 -0.3979  0.5037 -0.5015
13440TIP3    H261812   6.418   0.773   4.370 -0.7029 -0.1371 -0.1108
13441TIP3   OH261813   0.777   2.658  15.947 -0.0629  1.2166  0.4733
13441TIP3    H161814   0.782   2.738  15.894  0.0584  0.5388 -0.5620
13441TIP3    H261815   0.863   2.617  15.935 -0.3518  0.6083  0.4838
13442TIP3   OH261816   2.552   4.519  14.574 -0.1940 -0.3047  0.4144
13442TIP3    H161817   2.594   4.604  14.563  0.1034 -0.6658 -1.5401
13442TIP3    H261818   2.458   4.539  14.576 -0.1893  0.0153 -1.1182
13443TIP3   OH261819   5.977   6.266   2.404 -0.0309  0.6079  0.0210
13443TIP3    H161820   5.915   6.234   2.339 -0.3962 -0.8602  1.0595
13443TIP3    H261821   5.997   6.356   2.376 -0.3738  0.1096 -1.9508
13444TIP3   OH261822   1.999   4.614   2.546  0.2686  0.3019 -0.3283
13444TIP3    H161823   2.000   4.709   2.563 -0.0110  0.0543  1.2716
13444TIP3    H261824   2.076   4.599   2.492  1.0776  1.2754  0.4923
13445TIP3   OH261825   4.372   6.123  11.493 -0.1178  0.0909 -0.4862
13445TIP3    H161826   4.393   6.207  11.453  1.4066  0.3352  0.7181
13445TIP3    H261827   4.369   6.142  11.587 -1.1728 -0.9270 -0.2979
13446TIP3   OH261828   6.348   0.938  16.336 -0.2176 -0.0014  0.2037
13446TIP3    H161829   6.381   0.902  16.418 -0.3483 -1.5516 -0.3896
13446TIP3    H261830   6.339   1.032  16.353 -2.9030 -0.5562  2.9319
13447TIP3   OH261831   5.479   0.654   6.485  0.2283  0.9774 -0.0761
13447TIP3    H161832   5.447   0.575   6.529  1.3602  0.5598  0.0273
13447TIP3    H261833   5.574   0.653   6.500  0.2183  2.5382  0.2121
13448TIP3   OH261834   3.473   4.681   1.455  0.0784  0.6096  0.3283
13448TIP3    H161835   3.558   4.714   1.425  0.3916 -0.9298 -0.5736
13448TIP3    H261836   3.417   4.687   1.377 -0.0917 -0.1420  0.3880
13449TIP3   OH261837   5.521   6.461   4.191 -0.2740 -0.0495  0.0046
13449TIP3    H161838   5.507   6.485   4.100  1.8574  0.3658 -0.2457
13449TIP3    H261839   5.576   6.383   4.187 -0.0883  0.0230  0.9492
13450TIP3   OH261840   1.335   1.639   0.403 -0.5152 -0.5171  0.3777
13450TIP3    H161841   1.307   1.731   0.404  1.6478  0.2272 -1.1140
13450TIP3    H261842   1.293   1.603   0.325 -1.0179 -0.6953  0.7253
13451TIP3   OH261843   2.115   4.893   4.930  0.1931  0.1767 -0.1668
13451TIP3    H161844   2.170   4.877   5.006  0.8248  0.6284 -0.5106
13451TIP3    H261845   2.112   4.809   4.884 -2.1882 -0.7889  1.5692
13452TIP3   OH261846   3.060   2.023  12.054  0.4217  0.3043  0.2293
13452TIP3    H161847   3.099   2.076  11.984 -0.8009 -1.0259 -1.5523
13452TIP3    H261848   2.979   2.069  12.076 -0.7966 -0.8679 -1.5343
13453TIP3   OH261849   0.321   0.230   0.860 -0.0578  0.7374 -0.0413
13453TIP3    H161850   0.342   0.288   0.788  1.5706  0.6305  0.3163
13453TIP3    H261851   0.229   0.248   0.880 -0.9904 -0.2231 -3.0127
13454TIP3   OH261852   2.668   5.666   1.335  0.5751  0.6221  0.0232
13454TIP3    H161853   2.586   5.625   1.362  0.1226  1.6645  0.2886
13454TIP3    H261854   2.710   5.692   1.416  1.9578 -1.3000 -0.0149
13455TIP3   OH261855   3.078   4.511  13.552 -0.4835 -0.1440 -0.0382
13455TIP3    H161856   3.056   4.596  13.514 -0.3331 -0.3298 -0.5451
13455TIP3    H261857   3.016   4.450  13.512  1.2997 -0.7992 -1.9953
13456TIP3   OH261858   1.914   3.517   5.712  0.4248  0.3444  0.6498
13456TIP3    H161859   1.882   3.453   5.648 -0.6974 -0.0177  1.5290
13456TIP3    H261860   2.005   3.493   5.726  0.9206  0.8717 -1.3158
13457TIP3   OH261861   1.651   3.454   6.493 -0.4933  0.4025 -0.5404
13457TIP3    H161862   1.601   3.475   6.572 -0.0575 -0.5842  0.0204
13457TIP3    H261863   1.743   3.459   6.521 -0.3373 -0.0567 -0.9486
13458TIP3   OH261864   5.514   3.180  11.600  0.1808  0.6904  0.4695
13458TIP3    H161865   5.579   3.181  11.530 -0.0678  0.7275  0.2364
13458TIP3    H261866   5.445   3.122  11.566  1.2643 -1.5017  1.7749
13459TIP3   OH261867   2.813   5.890   4.791  0.4634 -0.4142  0.0701
13459TIP3    H161868   2.905   5.914   4.803 -0.0798  2.4551 -0.8510
13459TIP3    H261869   2.788   5.929   4.708 -1.4953 -1.5319  0.0699
13460TIP3   OH261870   2.458   3.526   5.889  0.2003 -0.3396  0.2051
13460TIP3    H161871   2.400   3.452   5.870 -0.9446  0.7554 -0.7692
13460TIP3    H261872   2.405   3.603   5.869  1.8169  0.7187 -0.1898
13461TIP3   OH261873   1.893   4.906   4.181  0.5356 -0.1440 -0.2175
13461TIP3    H161874   1.825   4.881   4.119 -0.3983  2.1658 -0.2448
13461TIP3    H261875   1.878   4.851   4.257 -0.1537 -0.9915 -0.9409
13462TIP3   OH261876   0.965   6.070  15.180  0.3271 -0.1177  0.0329
13462TIP3    H161877   0.915   6.007  15.128  0.5019  0.2847 -0.6383
13462TIP3    H261878   0.951   6.154  15.136 -0.1742  0.3879  1.0945
13463TIP3   OH261879   6.771   5.264  14.092  0.8060  0.5419  0.0406
13463TIP3    H161880   6.773   5.192  14.028 -0.8212 -0.5087  1.0814
13463TIP3    H261881   6.755   5.220  14.176 -1.0993  2.1567  0.5940
13464TIP3   OH261882   5.778   3.146   4.757  0.0203 -0.1653  0.2981
13464TIP3    H161883   5.795   3.197   4.836 -0.8703  0.6891 -0.0496
13464TIP3    H261884   5.863   3.109   4.734  1.5687  3.8553 -1.3547
13465TIP3   OH261885   4.394   2.397   1.351  0.1471 -0.3102 -0.1989
13465TIP3    H161886   4.442   2.479   1.336  0.7592 -0.5831  0.2024
13465TIP3    H261887   4.375   2.398   1.445 -0.2671 -0.4045 -0.2820
13466TIP3   OH261888   6.424   3.623  13.949  0.0734 -0.1172 -0.4205
13466TIP3    H161889   6.417   3.718  13.961  0.2228 -0.1941  0.3273
13466TIP3    H261890   6.513   3.609  13.917 -0.1875  0.0536 -1.2551
13467TIP3   OH261891   2.521   1.482  17.031 -0.0738 -0.0648  0.5126
13467TIP3    H161892   2.501   1.497  17.124 -0.4224  2.6012  0.0807
13467TIP3    H261893   2.437   1.491  16.986  0.4394  1.2067 -0.2674
13468TIP3   OH261894   3.352   1.481   5.158  0.2421 -0.0978 -0.2391
13468TIP3    H161895   3.420   1.526   5.109  1.6189  1.1301  2.5670
13468TIP3    H261896   3.283   1.547   5.169 -0.1001 -0.3940 -0.5987
13469TIP3   OH261897   4.219   0.630   2.461 -0.7777 -0.5174 -0.4296
13469TIP3    H161898   4.196   0.695   2.527 -0.7327 -1.9406  1.0512
13469TIP3    H261899   4.315   0.624   2.466 -0.6159  0.4931 -1.7699
13470TIP3   OH261900   0.442   0.124  11.124 -0.6035  0.3849 -1.0463
13470TIP3    H161901   0.413   0.212  11.149 -1.1598  0.2326 -1.1566
13470TIP3    H261902   0.366   0.084  11.083 -0.5276 -0.3563 -0.4812
13471TIP3   OH261903   5.342   0.072   5.244 -0.0625 -0.2359 -0.3793
13471TIP3    H161904   5.331   0.078   5.150  0.9047  2.0394 -0.4234
13471TIP3    H261905   5.415   0.012   5.257 -1.0066 -1.5601 -0.9601
13472TIP3   OH261906   4.393   4.517  15.011 -0.5748 -0.5815  0.2169
13472TIP3    H161907   4.360   4.567  14.936 -1.4466 -1.1848  0.1837
13472TIP3    H261908   4.477   4.557  15.031 -1.4226  1.1849  0.4456
13473TIP3   OH261909   6.366   2.042  12.529 -0.3252  0.1432 -0.2499
13473TIP3    H161910   6.460   2.037  12.511 -0.3848 -0.2233 -0.4747
13473TIP3    H261911   6.324   2.021  12.445 -0.6121 -2.2203  0.4285
13474TIP3   OH261912   2.128   3.511   3.630  0.2116 -0.2027  0.0318
13474TIP3    H161913   2.163   3.518   3.718  0.1684  0.6478 -0.0091
13474TIP3    H261914   2.190   3.558   3.575 -0.6279  0.7340 -0.1398
13475TIP3   OH261915   0.288   1.317   2.749 -0.1543 -0.2952  0.2474
13475TIP3    H161916   0.243   1.401   2.741 -0.1808 -0.2475  0.8601
13475TIP3    H261917   0.260   1.268   2.672  1.0025  0.7824 -0.9279
13476TIP3   OH261918   3.759   3.235  15.309 -0.1096  0.2794  0.5600
13476TIP3    H161919   3.687   3.227  15.371 -0.9191  0.0534 -0.3767
13476TIP3    H261920   3.833   3.267  15.361 -0.8524  0.4046  1.5599
13477TIP3   OH261921   5.592   3.008  17.152 -0.3563  0.6148  0.2252
13477TIP3    H161922   5.624   3.058  17.228  0.6318 -0.5390  0.6068
13477TIP3    H261923   5.541   3.071  17.102  0.3480  1.8480  0.9941
13478TIP3   OH261924   3.039   2.241  15.783  0.1628  0.4353 -0.4118
13478TIP3    H161925   3.070   2.312  15.727  0.0366 -0.8387 -2.1890
13478TIP3    H261926   3.106   2.233  15.851  1.3954  0.7181 -1.5558
13479TIP3   OH261927   3.109   0.647   6.087  0.3540  0.2593 -0.4704
13479TIP3    H161928   3.015   0.631   6.101  0.6894 -1.9987 -0.4449
13479TIP3    H261929   3.115   0.670   5.995  0.0092 -2.7406 -1.3715
13480TIP3   OH261930   4.441   4.051  12.304 -0.8380  1.0202  0.1493
13480TIP3    H161931   4.512   4.031  12.242  0.7143  1.0373  1.8343
13480TIP3    H261932   4.386   3.973  12.304  1.3100 -0.6032  1.5542
13481TIP3   OH261933   1.309   6.712  15.108 -0.5939 -0.2808 -0.1338
13481TIP3    H161934   1.368   6.660  15.163  0.3578  1.4840  0.5895
13481TIP3    H261935   1.221   6.685  15.135 -0.1407  0.0657  1.8341
13482TIP3   OH261936   6.399   5.017  15.157  0.2994 -0.4802 -0.3034
13482TIP3    H161937   6.406   4.928  15.191  0.8705  0.6520  2.8701
13482TIP3    H261938   6.307   5.040  15.171  0.5235 -0.0252  0.4601
13483TIP3   OH261939   0.221   0.207   1.960  0.5226 -0.0774 -0.1591
13483TIP3    H161940   0.315   0.222   1.961  0.4038  0.6739 -0.3203
13483TIP3    H261941   0.186   0.268   2.025  0.3689 -1.9314  1.6317
13484TIP3   OH261942   4.585   0.781   6.634  0.1230 -0.0446  0.0171
13484TIP3    H161943   4.640   0.839   6.687  1.3377 -1.9467  0.9603
13484TIP3    H261944   4.647   0.730   6.582 -0.9132 -0.3937 -0.9277
13485TIP3   OH261945   4.342   4.175   4.741  0.3088  0.2931 -0.1814
13485TIP3    H161946   4.364   4.149   4.831  0.9417 -0.1641 -0.4591
13485TIP3    H261947   4.299   4.099   4.703 -0.3494  0.6386 -0.1349
13486TIP3   OH261948   1.918   5.039  11.692  0.6281 -0.1522  0.1862
13486TIP3    H161949   1.830   5.034  11.656 -0.8494 -0.0168  3.4033
13486TIP3    H261950   1.955   4.951  11.677 -0.6941 -0.7371  0.2229
13487TIP3   OH261951   0.936   5.604  16.937  0.2258  0.3778  0.2075
13487TIP3    H161952   0.961   5.581  17.027 -2.2820  0.5730  1.0321
13487TIP3    H261953   0.984   5.542  16.882  0.1473 -1.1999  1.8335
13488TIP3   OH261954   2.136   0.821   6.621 -0.4544  0.3679  0.4255
13488TIP3    H161955   2.066   0.835   6.685  0.5146  0.8345  1.4138
13488TIP3    H261956   2.168   0.909   6.602 -1.4616  0.3552 -1.5968
13489TIP3   OH261957   5.438   3.003  13.056 -0.0200  0.1109 -0.1200
13489TIP3    H161958   5.411   3.001  12.964  0.1818  1.8855 -0.2411
13489TIP3    H261959   5.417   3.091  13.086  1.2736  0.0343  1.1332
13490TIP3   OH261960   2.819   5.867   3.613 -0.0418 -0.3003  0.2143
13490TIP3    H161961   2.772   5.949   3.631 -0.2015 -0.2178 -0.5668
13490TIP3    H261962   2.788   5.807   3.681  1.6673  0.8676  2.1859
13491TIP3   OH261963   5.616   6.485   4.916  0.6412 -0.0591 -0.2897
13491TIP3    H161964   5.626   6.409   4.974  0.4204  0.4034  0.3663
13491TIP3    H261965   5.624   6.449   4.828 -0.2841 -0.9758 -0.0166
13492TIP3   OH261966   1.581   5.267   5.755 -0.9635 -0.1445  0.0767
13492TIP3    H161967   1.508   5.306   5.804  0.3996  1.0332  1.2574
13492TIP3    H261968   1.643   5.239   5.822 -0.5124 -1.5724 -0.8941
13493TIP3   OH261969   6.756   2.583   4.100 -0.1850  0.3346  0.7061
13493TIP3    H161970   6.752   2.625   4.186 -0.2251  0.1214  0.8067
13493TIP3    H261971   6.781   2.654   4.040 -2.5732  1.0600  0.4873
13494TIP3   OH261972   1.367   5.721   0.084 -0.0403  0.2704  0.8345
13494TIP3    H161973   1.410   5.645   0.043  0.9514 -0.4122  3.0150
13494TIP3    H261974   1.276   5.692   0.096  0.2983 -0.5546  1.5394
13495TIP3   OH261975   6.405   1.226   5.942  0.4225 -0.0995 -0.3470
13495TIP3    H161976   6.398   1.283   5.865  0.0205  1.3705  0.7289
13495TIP3    H261977   6.324   1.242   5.991  1.3740  0.2303  1.1735
13496TIP3   OH261978   1.538   3.279  14.389  0.2682 -0.1310 -0.1511
13496TIP3    H161979   1.475   3.211  14.414  0.4067  0.3449  1.6647
13496TIP3    H261980   1.612   3.265  14.448  0.6212  1.1052 -0.2804
13497TIP3   OH261981   0.558   1.787   6.507 -0.1115  0.4375  0.1620
13497TIP3    H161982   0.514   1.778   6.592 -0.6940  1.3564 -0.0348
13497TIP3    H261983   0.488   1.784   6.443  0.3293 -0.2292 -0.3088
13498TIP3   OH261984   1.419   5.571  12.072  0.0427  0.3504  0.7415
13498TIP3    H161985   1.464   5.656  12.072 -0.7180  0.7994  2.2399
13498TIP3    H261986   1.433   5.537  12.160  0.3143 -1.0933  0.1680
13499TIP3   OH261987   0.189   1.367   0.824  0.6384 -0.5502  0.4073
13499TIP3    H161988   0.118   1.420   0.860  2.3739  0.9401  1.8389
13499TIP3    H261989   0.147   1.312   0.757 -1.4658  1.7987 -0.3435
13500TIP3   OH261990   3.897   2.057  14.364 -0.1273 -0.9170 -0.0035
13500TIP3    H161991   3.937   2.107  14.434  1.4565 -1.6869 -0.3242
13500TIP3    H261992   3.803   2.061  14.382 -0.0660  1.9048  0.1334
13501TIP3   OH261993   2.719   5.802  15.912  0.1026  0.1162  0.1068
13501TIP3    H161994   2.738   5.862  15.840 -1.3584  1.0995  0.4811
13501TIP3    H261995   2.779   5.729  15.900  0.5012  0.6814 -1.5807
13502TIP3   OH261996   4.073   5.849   4.564 -0.3760 -0.1347 -0.1800
13502TIP3    H161997   4.042   5.939   4.573  4.3265  1.9664 -2.0797
13502TIP3    H261998   4.039   5.820   4.479 -0.1740  0.6705 -0.5413
13503TIP3   OH261999   3.089   3.240   4.207 -0.5782  0.5530 -0.4718
13503TIP3    H162000   3.063   3.284   4.288 -2.1214 -1.7007  0.3347
13503TIP3    H262001   3.026   3.271   4.142  0.4078  2.0447 -0.7651
13504TIP3   OH262002   4.640   6.044   5.321  0.2406 -0.7128 -0.9683
13504TIP3    H162003   4.726   6.003   5.313  0.3415 -1.4102  2.3704
13504TIP3    H262004   4.595   5.994   5.389 -0.0650  3.8374  2.7145
13505TIP3   OH262005   1.227   5.083   0.020  0.7117  0.3144 -0.1950
13505TIP3    H162006   1.236   5.172   0.054  1.3370  0.2522 -0.1887
13505TIP3    H262007   1.158   5.044   0.074  0.3476  0.8270 -0.2769
13506TIP3   OH262008   5.272   0.205  10.621  0.2074  0.4629  0.4700
13506TIP3    H162009   5.218   0.254  10.559  0.8705 -0.4978 -0.9277
13506TIP3    H262010   5.256   0.113  10.600  0.1280  0.0895  2.0356
13507TIP3   OH262011   3.901   4.140   3.746 -0.1364  0.1258 -0.0423
13507TIP3    H162012   3.845   4.066   3.769 -2.5999  2.3025  1.5047
13507TIP3    H262013   3.859   4.180   3.670  1.6039 -0.4348 -1.3577
13508TIP3   OH262014   4.133   3.133  10.819  0.3883  0.3788 -0.5487
13508TIP3    H162015   4.062   3.198  10.819 -0.3629 -0.3883 -1.7274
13508TIP3    H262016   4.090   3.051  10.845  1.4759  0.4479  1.6982
13509TIP3   OH262017   4.540   6.189  17.172 -0.2351 -0.2379 -0.1148
13509TIP3    H162018   4.619   6.140  17.151  0.8638  0.9862  0.9647
13509TIP3    H262019   4.521   6.168  17.263 -1.6349 -1.0953 -0.5602
13510TIP3   OH262020   3.513   5.626   3.440  0.1243  0.7851  0.3545
13510TIP3    H162021   3.533   5.540   3.404  0.0066  1.4285 -1.3652
13510TIP3    H262022   3.487   5.610   3.531  0.2527 -0.9532  0.1039
13511TIP3   OH262023   5.561   0.161  14.336 -0.5254 -0.7554  0.0954
13511TIP3    H162024   5.593   0.212  14.262 -0.5339  0.8552  1.1465
13511TIP3    H262025   5.492   0.106  14.299 -0.4377 -0.0917 -1.1081
13512TIP3   OH262026   3.418   1.837  14.259  0.4233 -0.2855  0.1737
13512TIP3    H162027   3.459   1.876  14.181  0.4278  0.8249  0.7023
13512TIP3    H262028   3.449   1.747  14.260 -1.9352 -1.2545 -2.7498
13513TIP3   OH262029   3.823   4.733  14.844  0.2501 -0.7978  0.0148
13513TIP3    H162030   3.741   4.724  14.796  0.7427  0.8216 -1.2272
13513TIP3    H262031   3.890   4.741  14.776  1.2158 -0.3731  0.9800
13514TIP3   OH262032   2.371   5.491  17.175 -0.4932 -0.3286 -1.1866
13514TIP3    H162033   2.403   5.486  17.265  0.2343  0.7795 -1.3701
13514TIP3    H262034   2.279   5.465  17.181 -0.6031  0.2558 -0.0350
13515TIP3   OH262035   6.576   5.459   0.444 -0.1194 -0.0719  0.6446
13515TIP3    H162036   6.669   5.461   0.422 -0.6245 -0.0697 -1.8550
13515TIP3    H262037   6.548   5.550   0.437 -0.5090 -0.2167  0.2357
13516TIP3   OH262038   1.052   6.065  11.702 -0.0757 -0.1223 -0.6087
13516TIP3    H162039   1.039   6.047  11.796 -0.1980  0.1326 -0.5745
13516TIP3    H262040   1.042   6.160  11.695  0.2957 -0.1011 -0.8256
13517TIP3   OH262041   3.037   0.688  14.631 -0.6153  0.2024 -0.3912
13517TIP3    H162042   3.048   0.755  14.699 -1.4644  1.2141 -1.2157
13517TIP3    H262043   3.097   0.713  14.562 -0.2215 -0.4610 -0.2976
13518TIP3   OH262044   2.992   6.085   5.108 -0.2206  0.1434 -0.6730
13518TIP3    H162045   3.081   6.115   5.128  0.0143 -0.5127 -0.7237
13518TIP3    H262046   2.991   5.994   5.135 -1.6643  0.7989  1.8373
13519TIP3   OH262047   3.113   4.875   2.415 -0.3931 -0.1520 -0.0281
13519TIP3    H162048   3.115   4.931   2.337 -1.2785 -1.8418 -1.3273
13519TIP3    H262049   3.103   4.936   2.488  0.3946  1.4838 -1.2242
13520TIP3   OH262050   0.190   1.380  14.611  0.0598  0.4850  0.4218
13520TIP3    H162051   0.239   1.458  14.636  1.8556  0.4939 -2.6276
13520TIP3    H262052   0.230   1.352  14.528 -1.9237 -2.4376  0.3044
13521TIP3   OH262053   4.401   2.706  13.167  0.4583  0.0504  0.3247
13521TIP3    H162054   4.459   2.682  13.096  1.3142  2.2743  0.1854
13521TIP3    H262055   4.336   2.764  13.127 -1.5490 -1.8601  0.6104
13522TIP3   OH262056   4.586   6.494  14.420  0.4553  0.0667  0.1774
13522TIP3    H162057   4.600   6.534  14.505 -0.0838  1.3179 -0.2952
13522TIP3    H262058   4.494   6.467  14.420  0.6877 -0.7515  0.3132
13523TIP3   OH262059   2.076   3.753   4.469 -0.1880  0.2635 -0.5687
13523TIP3    H162060   2.135   3.705   4.526  1.2986  1.0511 -1.3685
13523TIP3    H262061   2.046   3.827   4.522 -1.3397 -0.6923  0.1809
13524TIP3   OH262062   1.625   0.517  12.884  1.0632  0.1594  0.2238
13524TIP3    H162063   1.680   0.479  12.816  1.5041 -1.1886  1.2867
13524TIP3    H262064   1.591   0.441  12.932 -2.7838  0.7928 -1.1069
13525TIP3   OH262065   1.473   3.996  14.335  0.2061  0.1404 -0.2921
13525TIP3    H162066   1.537   4.055  14.375 -0.8222  0.6165  0.6895
13525TIP3    H262067   1.418   4.053  14.281 -0.4526  0.0134  0.2265
13526TIP3   OH262068   0.143   3.492  15.040 -0.2975  0.3706  0.2118
13526TIP3    H162069   0.054   3.527  15.050 -1.9189 -3.2170 -0.2374
13526TIP3    H262070   0.140   3.442  14.959  2.1827  0.1300  0.2032
13527TIP3   OH262071   5.656   5.544   3.917  0.8412  0.5778 -0.0279
13527TIP3    H162072   5.588   5.539   3.850 -1.1770 -1.3381  1.9809
13527TIP3    H262073   5.645   5.630   3.957 -1.9980 -0.4194  1.6446
13528TIP3   OH262074   6.752   6.720   2.805 -0.8919 -0.4000 -0.4839
13528TIP3    H162075   6.787   6.724   2.894 -1.4986 -0.4113 -0.2418
13528TIP3    H262076   6.672   6.667   2.813 -1.2900  0.1280 -0.9236
13529TIP3   OH262077   0.414   0.748  14.820  0.4000 -0.5074 -0.2813
13529TIP3    H162078   0.329   0.791  14.814  0.0096 -1.2035  0.1683
13529TIP3    H262079   0.450   0.778  14.904  0.5498 -0.3016 -0.4193
13530TIP3   OH262080   6.306   1.675   3.593  0.1011  0.4769  0.1684
13530TIP3    H162081   6.332   1.736   3.662  0.3553  1.2112 -0.5687
13530TIP3    H262082   6.388   1.649   3.551 -0.1213  0.8005 -0.4861
13531TIP3   OH262083   4.811   4.772  14.261  0.0951 -0.1323 -0.2457
13531TIP3    H162084   4.861   4.777  14.342  1.1405  1.9508 -0.9397
13531TIP3    H262085   4.730   4.820  14.280  1.2189  2.1929 -0.9393
13532TIP3   OH262086   6.682   1.462   0.565 -0.8144  0.2003 -0.0360
13532TIP3    H162087   6.615   1.523   0.534  0.1043  0.7216 -1.0655
13532TIP3    H262088   6.706   1.411   0.487 -0.9956 -0.9376  0.6319
13533TIP3   OH262089   6.707   0.001   4.503 -0.4931  0.1550 -0.7999
13533TIP3    H162090   6.612  -0.010   4.493 -0.8622  0.9900  1.2860
13533TIP3    H262091   6.719   0.096   4.509  0.3261  0.0050  0.0872
13534TIP3   OH262092   1.599   4.978   4.399 -0.4433 -0.3824 -0.0348
13534TIP3    H162093   1.508   4.997   4.376 -0.1999 -2.3985 -3.2525
13534TIP3    H262094   1.593   4.900   4.454 -0.6826 -0.0597  0.4029
13535TIP3   OH262095   5.970   0.076   1.075 -0.4392  0.4085 -0.1884
13535TIP3    H162096   6.019   0.009   1.027 -2.1298 -0.8894 -0.1865
13535TIP3    H262097   6.037   0.124   1.123  0.7552 -2.1158  0.8334
13536TIP3   OH262098   3.165   6.286  11.611  0.0034 -0.6557 -0.4552
13536TIP3    H162099   3.231   6.343  11.572  0.0306 -0.2293  0.2034
13536TIP3    H262100   3.213   6.231  11.672 -0.3318  0.1934  0.6228
13537TIP3   OH262101   3.511   1.532  11.681 -0.5874 -0.0393 -0.5739
13537TIP3    H162102   3.540   1.481  11.756  0.6534  0.1173 -0.9314
13537TIP3    H262103   3.429   1.491  11.654 -1.2175  0.0699  1.0226
13538TIP3   OH262104   2.374   6.719  13.028  0.0171  0.8090  0.2237
13538TIP3    H162105   2.447   6.706  12.968 -0.8447 -0.2528 -0.6448
13538TIP3    H262106   2.310   6.769  12.979  0.0253  1.5040  0.8923
13539TIP3   OH262107   1.334   3.883   4.996 -0.6428 -0.0314 -0.4871
13539TIP3    H162108   1.253   3.906   5.043  0.2799  3.1865 -0.2864
13539TIP3    H262109   1.402   3.887   5.063 -0.0398 -0.9392 -1.0312
13540TIP3   OH262110   5.219   1.442   0.864 -0.3075 -0.2036 -0.1067
13540TIP3    H162111   5.243   1.369   0.921  1.0798 -1.2331 -1.9138
13540TIP3    H262112   5.151   1.489   0.913  1.2492 -0.6247  2.6506
13541TIP3   OH262113   0.237   1.656  12.164 -0.2711  0.1008  0.1328
13541TIP3    H162114   0.165   1.595  12.150 -0.0035  0.3934 -3.4544
13541TIP3    H262115   0.315   1.606  12.142  0.3634  0.6037  1.1884
13542TIP3   OH262116   3.151   6.246   0.597  0.2913  0.8306 -0.0037
13542TIP3    H162117   3.136   6.338   0.620 -1.0923  0.2502  1.6344
13542TIP3    H262118   3.179   6.249   0.505 -2.0510  2.7345 -0.7805
13543TIP3   OH262119   3.881   4.025   4.641 -0.3099  0.2354 -0.0695
13543TIP3    H162120   3.835   3.970   4.578  1.1582 -1.4614  0.2557
13543TIP3    H262121   3.811   4.064   4.694 -1.4234 -1.9077  0.1576
13544TIP3   OH262122   0.095   3.672   1.864  0.1252  0.2745 -0.5626
13544TIP3    H162123   0.112   3.741   1.928  0.0859 -0.4941  0.2984
13544TIP3    H262124   0.007   3.642   1.883  1.0659 -1.8383  0.8822
13545TIP3   OH262125   4.528   3.143  13.404 -0.2308 -0.6299  0.6097
13545TIP3    H162126   4.481   3.226  13.403  2.4180  1.0356 -2.1369
13545TIP3    H262127   4.595   3.155  13.471  0.8911 -0.0038 -0.5810
13546TIP3   OH262128   5.259   2.092  14.659 -0.0181  0.2264 -0.2249
13546TIP3    H162129   5.272   2.144  14.580  3.0731  0.7148  0.4931
13546TIP3    H262130   5.237   2.004  14.627  1.1590  0.4136 -1.6310
13547TIP3   OH262131   5.281   5.085  15.407  0.3822  0.3155  0.4507
13547TIP3    H162132   5.252   5.030  15.480  0.4809 -0.1514  0.1427
13547TIP3    H262133   5.202   5.095  15.353  0.8683 -1.4297 -0.6904
13548TIP3   OH262134   0.039   5.336   2.039 -0.2939  0.1620 -0.2469
13548TIP3    H162135   0.017   5.421   2.076 -0.8223  1.1249 -2.5908
13548TIP3    H262136  -0.041   5.308   1.993  0.7963 -0.1044 -2.0986
13549TIP3   OH262137   2.305   5.980   1.841  0.2521  0.0253 -0.6000
13549TIP3    H162138   2.394   6.009   1.860  0.2716 -0.6775  0.4562
13549TIP3    H262139   2.249   6.047   1.882  0.2827  0.4980 -1.3140
13550TIP3   OH262140   4.353   0.612   4.153 -0.2946 -0.7336 -0.6307
13550TIP3    H162141   4.361   0.704   4.125  0.3577 -0.0011  1.6915
13550TIP3    H262142   4.429   0.569   4.114  1.6781  0.6790  1.3273
13551TIP3   OH262143   5.937   4.951   3.593  0.0583 -0.1799 -0.2013
13551TIP3    H162144   5.963   4.958   3.502  0.6882 -0.2159 -0.0283
13551TIP3    H262145   5.980   4.871   3.624 -0.2512 -0.2350  0.0960
13552TIP3   OH262146   6.604   6.750   6.819 -0.6370  0.1084  0.3050
13552TIP3    H162147   6.564   6.721   6.737  0.5020 -0.1591 -0.1726
13552TIP3    H262148   6.696   6.724   6.812 -0.4823  0.2257  1.6009
13553TIP3   OH262149   2.590   6.753  15.783 -0.0326  0.2343 -0.2607
13553TIP3    H162150   2.670   6.724  15.827 -1.4975 -1.1329  1.6672
13553TIP3    H262151   2.556   6.675  15.740 -1.0405  0.4589  0.1031
13554TIP3   OH262152   2.740   5.146  11.075 -0.1180 -0.5424  0.1489
13554TIP3    H162153   2.647   5.144  11.052 -0.2973 -1.7174  0.9089
13554TIP3    H262154   2.742   5.132  11.170  0.8498 -0.7419  0.1077
13555TIP3   OH262155   4.286   3.171  13.115  0.6946 -0.3316  0.0492
13555TIP3    H162156   4.264   3.099  13.174 -1.1356  0.9778  1.0343
13555TIP3    H262157   4.242   3.149  13.033 -0.0223 -0.2574  0.4070
13556TIP3   OH262158   4.261   3.201  13.690  0.0200 -0.3972 -0.4677
13556TIP3    H162159   4.217   3.279  13.725 -0.5332 -0.3639 -1.2138
13556TIP3    H262160   4.353   3.214  13.712 -0.1181  0.2957 -0.2586
13557TIP3   OH262161   0.778   5.965   4.094  0.6115 -0.0456 -0.6016
13557TIP3    H162162   0.874   5.963   4.083  0.6029 -1.3129 -0.5735
13557TIP3    H262163   0.760   5.901   4.163 -0.3072 -0.3039 -1.0640
13558TIP3   OH262164   0.672   6.130   0.038  0.3525 -0.0899 -0.1005
13558TIP3    H162165   0.680   6.053   0.094  1.5786  1.2991  1.7678
13558TIP3    H262166   0.715   6.106  -0.043  1.0712 -1.2547  0.6028
13559TIP3   OH262167   0.276   2.788   5.160  0.4359 -0.1648  0.6210
13559TIP3    H162168   0.319   2.730   5.222  0.7222  0.7279  1.2732
13559TIP3    H262169   0.306   2.876   5.184  0.8631  0.1664 -1.0365
13560TIP3   OH262170   3.838   3.605  11.946  0.1075  0.0832 -0.8830
13560TIP3    H162171   3.743   3.604  11.950  0.1281  0.7872  0.5380
13560TIP3    H262172   3.866   3.550  12.019  0.7838  0.0100 -1.1873
13561TIP3   OH262173   5.056   5.374   4.689 -0.3434 -0.1662  0.0651
13561TIP3    H162174   5.127   5.404   4.745  1.0595 -1.4445 -0.9731
13561TIP3    H262175   4.997   5.327   4.748  1.9623 -2.9887  0.3190
13562TIP3   OH262176   3.111   6.670  10.990  0.5371  0.2660 -0.0571
13562TIP3    H162177   3.126   6.681  10.896  0.1043  0.7952 -0.0694
13562TIP3    H262178   3.020   6.642  10.996  0.2563  1.1933  0.2537
13563TIP3   OH262179   2.065   0.035   1.639 -0.1636  0.3310  0.0401
13563TIP3    H162180   2.059  -0.028   1.567  0.8098  0.3277 -0.0589
13563TIP3    H262181   2.159   0.039   1.659 -0.4679 -0.0298  1.6406
13564TIP3   OH262182   4.272   4.966  15.158 -0.0603  0.0369 -0.2359
13564TIP3    H162183   4.363   4.939  15.147 -0.2266 -1.1009  0.9354
13564TIP3    H262184   4.275   5.061  15.153  1.0370 -0.0186 -1.2124
13565TIP3   OH262185   0.372   0.473   5.845  0.1576  0.0855 -0.0413
13565TIP3    H162186   0.289   0.426   5.836 -1.3897  1.8992  2.9700
13565TIP3    H262187   0.438   0.414   5.806 -2.5050 -1.1578 -3.1527
13566TIP3   OH262188   5.554   2.641  14.058  0.6213 -0.1603 -0.1131
13566TIP3    H162189   5.587   2.567  14.108  0.3259 -0.9503 -1.0626
13566TIP3    H262190   5.614   2.713  14.080  1.1163 -0.7620  0.5563
13567TIP3   OH262191   3.767   6.181   3.103  0.2109 -0.1163 -0.5641
13567TIP3    H162192   3.774   6.235   3.181  0.3163  0.5697 -1.0396
13567TIP3    H262193   3.678   6.194   3.071 -0.5519 -2.0641  0.6145
13568TIP3   OH262194   2.119   1.805   3.757  0.4921  0.0998  0.2829
13568TIP3    H162195   2.065   1.879   3.728  0.3733  0.5504  1.5645
13568TIP3    H262196   2.129   1.819   3.851  1.7398 -0.7100  0.2857
13569TIP3   OH262197   0.618   5.552  12.586  0.5358  0.0385 -0.6257
13569TIP3    H162198   0.648   5.500  12.660  1.6493  0.3584 -0.8463
13569TIP3    H262199   0.531   5.516  12.565  0.0077  0.2316  1.0950
13570TIP3   OH262200   6.086   0.907  12.456 -0.4744  0.0867  0.0351
13570TIP3    H162201   6.095   0.813  12.445 -1.8392 -0.0304 -0.2298
13570TIP3    H262202   5.997   0.919  12.487 -0.7317  1.3794 -1.1213
13571TIP3   OH262203   1.231   2.137  10.832 -0.2102  0.4010 -0.5010
13571TIP3    H162204   1.317   2.120  10.870  0.1548  2.1128 -0.4788
13571TIP3    H262205   1.243   2.122  10.738  0.3185  1.2951 -0.5883
13572TIP3   OH262206   2.681   4.366  13.709  0.0181 -0.0266  0.7879
13572TIP3    H162207   2.719   4.344  13.624 -3.0325  0.9344 -0.9944
13572TIP3    H262208   2.703   4.458  13.721 -0.4916  0.1404  0.4662
13573TIP3   OH262209   5.593   0.936  12.720  0.4269 -0.0560 -0.2516
13573TIP3    H162210   5.525   0.960  12.783 -1.3276 -0.3382 -1.9489
13573TIP3    H262211   5.657   1.007  12.726  0.3622 -0.1135  1.8653
13574TIP3   OH262212   0.240   5.734   3.100 -0.0388  0.4889  0.4394
13574TIP3    H162213   0.233   5.671   3.028 -0.4166  0.5732  0.3978
13574TIP3    H262214   0.155   5.728   3.145 -0.9594  2.5193 -0.8605
13575TIP3   OH262215   0.720   5.999   2.185  0.3664  0.0938  0.1161
13575TIP3    H162216   0.815   5.993   2.174  0.1580  0.4607 -2.6600
13575TIP3    H262217   0.694   5.911   2.211  1.4252 -0.1493  0.4111
13576TIP3   OH262218   0.774   3.028  16.220 -0.2545 -0.2728  0.6515
13576TIP3    H162219   0.714   3.038  16.146  0.1924 -0.5613  0.2438
13576TIP3    H262220   0.717   3.008  16.294 -0.8326  1.4339  0.7050
13577TIP3   OH262221   3.824   4.316  12.576  0.2208  0.4341 -0.4639
13577TIP3    H162222   3.870   4.354  12.651 -0.0441  0.0303 -0.0917
13577TIP3    H262223   3.875   4.238  12.553 -1.1757 -0.9926  1.0309
13578TIP3   OH262224   3.423   4.044   3.974  0.5407  0.1488  0.3900
13578TIP3    H162225   3.454   3.975   3.916  0.6933 -0.0276  0.6739
13578TIP3    H262226   3.387   4.111   3.916 -0.9057 -0.7894  0.1818
13579TIP3   OH262227   2.385   5.251   6.092 -0.2334  0.0838 -0.1027
13579TIP3    H162228   2.416   5.193   6.161 -3.1037 -0.4088  0.9362
13579TIP3    H262229   2.306   5.292   6.129 -0.6884  1.4231 -2.3387
13580TIP3   OH262230   3.210   5.744  16.752  0.3495 -0.5542  0.0298
13580TIP3    H162231   3.203   5.773  16.661  0.6383 -1.9438 -0.4636
13580TIP3    H262232   3.119   5.735  16.782  0.2458 -0.5626 -0.2857
13581TIP3   OH262233   3.526   4.194   3.341 -0.0608 -0.1728  0.2732
13581TIP3    H162234   3.563   4.276   3.309  1.2447 -0.4118  1.1261
13581TIP3    H262235   3.438   4.192   3.303  0.2526  1.1153 -0.5994
13582TIP3   OH262236   0.054   3.780  14.069 -0.0820  0.0207 -0.1226
13582TIP3    H162237   0.038   3.823  13.985 -0.3844  0.9474  0.4048
13582TIP3    H262238  -0.012   3.816  14.128 -0.5487 -1.3908  0.2687
13583TIP3   OH262239   1.959   5.198  14.829  0.0287 -0.4391  0.2702
13583TIP3    H162240   2.005   5.235  14.754  0.6026  0.1219  0.8861
13583TIP3    H262241   1.874   5.243  14.830  0.0611 -0.3727  0.0235
13584TIP3   OH262242   6.122   5.350  14.685  0.3956  0.3944  0.7395
13584TIP3    H162243   6.054   5.398  14.733 -2.8356 -0.6640 -2.3120
13584TIP3    H262244   6.144   5.408  14.612  0.6167 -0.5058  0.0900
13585TIP3   OH262245   1.198   5.129  15.908 -0.2995 -0.0204 -0.2164
13585TIP3    H162246   1.207   5.219  15.875  0.3973  0.3810  1.0115
13585TIP3    H262247   1.271   5.082  15.867 -0.4263  0.0681 -0.5477
13586TIP3   OH262248   2.556   0.392  15.570  0.5259  0.4071  0.4837
13586TIP3    H162249   2.581   0.307  15.605  0.5907  0.5328  0.7500
13586TIP3    H262250   2.509   0.372  15.489  0.4338  0.1131  0.6072
13587TIP3   OH262251   6.574   4.854   1.685 -0.2377  0.1970  0.2712
13587TIP3    H162252   6.636   4.912   1.728 -1.1091  1.4079 -0.0567
13587TIP3    H262253   6.498   4.851   1.743 -0.8019  0.6072 -0.4196
13588TIP3   OH262254   6.699   0.885  12.559 -0.1057 -0.4685 -0.8288
13588TIP3    H162255   6.665   0.876  12.470 -0.8445  1.7162 -0.8176
13588TIP3    H262256   6.682   0.976  12.583 -0.0571 -1.0159  1.6157
13589TIP3   OH262257   3.986   5.245  11.734  0.0013 -0.4630  0.4188
13589TIP3    H162258   3.909   5.236  11.678  0.5525 -0.3113 -0.3832
13589TIP3    H262259   3.960   5.308  11.801 -0.3130  0.1989 -0.3133
13590TIP3   OH262260   2.260   6.719  13.508  0.1387 -0.0644  0.1149
13590TIP3    H162261   2.324   6.680  13.568  0.5262  1.0543  0.4565
13590TIP3    H262262   2.192   6.754  13.566  0.2448  0.5481 -0.1287
13591TIP3   OH262263   1.056   5.258   4.126 -0.0544 -0.5865  0.5343
13591TIP3    H162264   1.132   5.211   4.089  0.4403 -0.0847  0.9013
13591TIP3    H262265   1.094   5.316   4.192 -0.5488  0.8925 -0.4201
13592TIP3   OH262266   1.618   5.302   0.802  0.1761  0.4286  0.2349
13592TIP3    H162267   1.706   5.328   0.774 -0.6174  1.7875 -1.1191
13592TIP3    H262268   1.563   5.315   0.724 -0.9373 -2.1525  0.4719
13593TIP3   OH262269   4.827   1.549  14.215 -0.4645 -0.1206  0.5311
13593TIP3    H162270   4.900   1.611  14.212 -0.7695  0.2613  0.9059
13593TIP3    H262271   4.809   1.528  14.123  0.6828 -0.9036  0.4595
13594TIP3   OH262272   3.864   6.030   2.257 -0.3451  0.3631 -0.3734
13594TIP3    H162273   3.939   5.980   2.287 -1.4844 -0.6466  0.9318
13594TIP3    H262274   3.873   6.116   2.299  0.0519  0.2295 -0.1852
13595TIP3   OH262275   2.392   3.205   4.398 -0.2191 -0.0091 -0.7786
13595TIP3    H162276   2.336   3.215   4.321  0.1702  0.6300 -0.9877
13595TIP3    H262277   2.347   3.140   4.452  0.9189 -2.7758 -2.8611
13596TIP3   OH262278   5.192   0.589  13.684 -0.1564 -0.1989 -0.4726
13596TIP3    H162279   5.116   0.634  13.719 -1.0678 -2.4321  0.5712
13596TIP3    H262280   5.216   0.639  13.606  0.0174  3.0877  1.5133
13597TIP3   OH262281   2.036   6.791   1.036 -0.2407  0.2034  0.0729
13597TIP3    H162282   2.067   6.845   1.109 -0.3529 -0.4036  0.5778
13597TIP3    H262283   2.055   6.702   1.062 -1.2890 -0.1041 -0.1491
13598TIP3   OH262284   2.237   2.889  14.986  0.2642  0.0959 -0.7394
13598TIP3    H162285   2.320   2.933  14.975  0.4092 -0.4824 -2.1359
13598TIP3    H262286   2.226   2.837  14.906 -1.2549 -0.1223 -0.4253
13599TIP3   OH262287   0.617   0.855   1.951  0.1680 -0.2832 -0.1329
13599TIP3    H162288   0.570   0.926   1.994  0.4908  0.1958 -0.5642
13599TIP3    H262289   0.708   0.867   1.977  0.3273 -0.1417 -0.7438
13600TIP3   OH262290   0.958   3.194  12.117 -0.8900 -0.3744  0.1613
13600TIP3    H162291   1.027   3.239  12.069 -0.1379 -2.0333 -0.3709
13600TIP3    H262292   0.888   3.181  12.053 -1.1021 -0.0040  0.3129
13601TIP3   OH262293   3.655   5.630  14.105 -0.3492 -0.2616  0.1032
13601TIP3    H162294   3.660   5.690  14.030 -0.6788  0.3136  0.5344
13601TIP3    H262295   3.563   5.628  14.129 -0.1475  0.1336  0.9522
13602TIP3   OH262296   3.187   1.412  16.022  0.0721 -0.3071  0.6833
13602TIP3    H162297   3.121   1.472  16.057  1.2215  0.6896  1.1875
13602TIP3    H262298   3.247   1.468  15.974 -0.6977 -1.4680 -1.8191
13603TIP3   OH262299   4.998   1.467  13.004 -0.2079  0.7706 -0.2227
13603TIP3    H162300   4.926   1.530  13.011  0.2059  1.2013  0.2625
13603TIP3    H262301   5.056   1.489  13.076  0.3694  0.3715 -0.5565
13604TIP3   OH262302   1.201   2.160  12.651 -0.4016 -0.1230  0.0347
13604TIP3    H162303   1.246   2.202  12.577  0.2720 -1.3874 -0.3057
13604TIP3    H262304   1.109   2.183  12.638 -0.2191  0.1646 -0.8747
13605TIP3   OH262305   0.622   5.018   2.196  0.0916 -0.2061 -0.3060
13605TIP3    H162306   0.697   5.077   2.200 -0.0595 -0.0784  1.5472
13605TIP3    H262307   0.658   4.935   2.165  0.9995 -0.1284  0.5020
13606TIP3   OH262308   2.982   5.143   1.998  0.6176  0.2938  0.0999
13606TIP3    H162309   2.898   5.169   2.036  0.6151  1.6961 -0.8096
13606TIP3    H262310   3.006   5.064   2.046 -1.6834 -0.7274 -0.2852
13607TIP3   OH262311   1.110   3.069  13.973  0.1043  0.1135  0.1918
13607TIP3    H162312   1.161   3.018  13.910  2.2595  3.2966 -0.8592
13607TIP3    H262313   1.165   3.072  14.052 -0.1457  0.5825  0.3503
13608TIP3   OH262314   2.956   0.520  14.345  0.3416 -0.0119 -0.2928
13608TIP3    H162315   3.046   0.518  14.313  0.4453  0.0402 -0.0080
13608TIP3    H262316   2.964   0.548  14.436  0.2078 -1.8309  0.3195
13609TIP3   OH262317   5.756   3.029   2.250  0.2040  0.1146  0.7459
13609TIP3    H162318   5.804   3.111   2.249  0.4489 -0.0269  0.8585
13609TIP3    H262319   5.823   2.961   2.255 -0.0153 -0.0697  1.4115
13610TIP3   OH262320   0.837   2.473   2.743  0.7084  0.0205 -0.3990
13610TIP3    H162321   0.878   2.416   2.678 -0.9086 -0.3018 -1.1922
13610TIP3    H262322   0.837   2.421   2.824  0.5133 -0.5718 -0.7705
13611TIP3   OH262323   1.649   3.137   3.738  0.3264  0.1553 -0.4814
13611TIP3    H162324   1.637   3.042   3.729 -0.9306  0.2765 -0.2925
13611TIP3    H262325   1.736   3.147   3.776  0.1264 -0.9643  0.3115
13612TIP3   OH262326   0.393   5.885   5.555  0.1571  0.6317 -0.3338
13612TIP3    H162327   0.325   5.827   5.520 -2.2865  4.2118 -2.2583
13612TIP3    H262328   0.472   5.860   5.509 -0.4179 -1.9460 -0.0687
13613TIP3   OH262329   1.614   0.965   0.881  0.4130 -1.0171  0.4809
13613TIP3    H162330   1.529   0.983   0.841  0.5158 -0.7370  0.3880
13613TIP3    H262331   1.611   1.008   0.966 -0.0485 -2.1486  1.0632
13614TIP3   OH262332   1.341   6.442  14.557 -0.5235 -0.5953  0.0664
13614TIP3    H162333   1.297   6.447  14.642 -0.4814  1.0008  0.0330
13614TIP3    H262334   1.434   6.432  14.579 -0.6046 -1.0509  0.1951
13615TIP3   OH262335   4.748   2.866  12.881  0.2845 -0.3945  0.4580
13615TIP3    H162336   4.695   2.891  12.805  0.3073  0.0604  0.5923
13615TIP3    H262337   4.688   2.875  12.955  0.5345  0.0822  0.6055
13616TIP3   OH262338   1.317   6.629  12.372 -0.5177 -0.4652  0.2138
13616TIP3    H162339   1.397   6.576  12.376 -0.3263 -0.1108  1.2817
13616TIP3    H262340   1.349   6.719  12.365 -0.8415 -0.4290 -1.2239
13617TIP3   OH262341   6.230   4.825   5.129  0.2491 -0.3823  0.3810
13617TIP3    H162342   6.148   4.807   5.175 -0.3641  1.5502  0.0984
13617TIP3    H262343   6.271   4.895   5.179 -1.3267  3.1742 -2.8447
13618TIP3   OH262344   6.325   4.549   3.798  0.3384  0.2684  0.2637
13618TIP3    H162345   6.341   4.542   3.704 -0.9288  0.3906  0.0225
13618TIP3    H262346   6.236   4.516   3.809 -0.4823  2.5981  1.0610
13619TIP3   OH262347   0.185   3.798  12.669 -0.2863  0.2311  0.3368
13619TIP3    H162348   0.115   3.852  12.633 -0.9239 -0.1458  1.0010
13619TIP3    H262349   0.164   3.790  12.762 -0.8899 -2.1744  0.0587
13620TIP3   OH262350   3.595   0.523   6.045 -0.2489  0.0467  0.1913
13620TIP3    H162351   3.502   0.506   6.060 -0.2549 -1.0767 -0.9790
13620TIP3    H262352   3.639   0.492   6.124 -0.7097 -1.1353 -0.0118
13621TIP3   OH262353   6.089   4.318  14.630 -0.5129 -0.0065 -0.2259
13621TIP3    H162354   6.032   4.317  14.706  1.6186 -0.9060  1.4749
13621TIP3    H262355   6.062   4.242  14.579 -0.9892 -0.2771  0.4127
13622TIP3   OH262356   6.778   0.801   3.064  0.2482  0.2077 -0.2364
13622TIP3    H162357   6.817   0.753   3.138  0.3987  4.8030  3.0699
13622TIP3    H262358   6.852   0.844   3.022 -0.2659  1.1586 -0.1895
13623TIP3   OH262359   0.144   4.354   2.040  0.2637  0.2550  0.1616
13623TIP3    H162360   0.128   4.259   2.037  0.8573  0.1392  0.5807
13623TIP3    H262361   0.056   4.393   2.039 -0.1507 -0.3704  3.1810
13624TIP3   OH262362   6.730   5.464   4.952  0.2662  0.0671 -0.7025
13624TIP3    H162363   6.777   5.537   4.994 -1.1413  0.7974 -0.3572
13624TIP3    H262364   6.763   5.386   4.997 -0.0019  0.6975  0.6576
13625TIP3   OH262365   3.886   2.960  17.024  0.4757  0.2678 -0.4025
13625TIP3    H162366   3.895   3.019  16.949 -1.0172 -0.5357 -1.2664
13625TIP3    H262367   3.801   2.918  17.011 -0.6456  1.3323  2.6426
13626TIP3   OH262368   3.240   4.678  16.071  0.2452  0.2498 -0.4114
13626TIP3    H162369   3.314   4.738  16.073 -0.8681  1.6628 -0.3772
13626TIP3    H262370   3.236   4.648  15.980 -0.7423  2.2980 -1.1018
13627TIP3   OH262371   1.802   0.083  17.135 -0.2222 -0.0133  0.4726
13627TIP3    H162372   1.764   0.080  17.223 -1.5535 -1.9787 -0.1023
13627TIP3    H262373   1.785   0.172  17.105 -0.5541  0.4170  1.8653
13628TIP3   OH262374   4.850   0.138  10.659  0.1340 -1.0243  0.2553
13628TIP3    H162375   4.754   0.132  10.661  0.1334 -1.3686 -0.4704
13628TIP3    H262376   4.869   0.232  10.664 -0.2945 -0.8522 -0.9965
13629TIP3   OH262377   5.420   4.088  16.080 -0.1144  0.0003  0.1762
13629TIP3    H162378   5.353   4.036  16.036  0.0123 -0.0571  0.0496
13629TIP3    H262379   5.389   4.178  16.075  0.2399  0.0787 -0.6434
13630TIP3   OH262380   2.243   6.805   1.370 -0.5501  0.2285 -0.9667
13630TIP3    H162381   2.152   6.786   1.390 -0.1044  0.0103  1.1397
13630TIP3    H262382   2.240   6.879   1.309 -2.1519  1.9578  1.0716
13631TIP3   OH262383   5.533   2.148  10.474  0.3136  0.2618  0.1165
13631TIP3    H162384   5.438   2.153  10.469  0.3059  1.4287  0.9548
13631TIP3    H262385   5.558   2.090  10.402 -0.9459  0.8774 -0.8575
13632TIP3   OH262386   1.245   3.208   3.108  0.0619 -0.1358  0.0217
13632TIP3    H162387   1.293   3.178   3.030 -0.8735 -0.3207 -0.5024
13632TIP3    H262388   1.206   3.291   3.082  2.0678  1.3137  1.2511
13633TIP3   OH262389   4.868   5.197  15.776 -0.0639 -0.5922 -0.4014
13633TIP3    H162390   4.783   5.156  15.758  0.2710 -0.5649 -2.1721
13633TIP3    H262391   4.919   5.184  15.696  0.6040  1.9631 -0.4764
13634TIP3   OH262392   0.531   5.669  11.100  0.2547 -0.5703  0.1956
13634TIP3    H162393   0.513   5.605  11.031  0.6485 -1.1029  0.5890
13634TIP3    H262394   0.536   5.753  11.053 -1.3053 -0.6528 -0.1954
13635TIP3   OH262395   6.350   0.793  15.738 -0.9463  0.5044 -0.0728
13635TIP3    H162396   6.397   0.728  15.790 -0.0764 -0.8606 -2.4194
13635TIP3    H262397   6.328   0.862  15.800  2.2593  0.1957  1.5982
13636TIP3   OH262398   0.166   1.431  11.061  0.0795  0.4994 -0.5426
13636TIP3    H162399   0.154   1.407  11.153  0.5476  1.9445 -0.0900
13636TIP3    H262400   0.170   1.526  11.061  2.2714  0.4701 -1.7858
13637TIP3   OH262401   5.511   3.413  15.946 -0.1303 -0.0815  0.2407
13637TIP3    H162402   5.555   3.445  16.025  0.1570 -1.2288  0.5656
13637TIP3    H262403   5.579   3.413  15.879  0.1167 -0.8686  0.4792
13638TIP3   OH262404   3.166   6.206   6.098 -0.0955 -0.4013 -0.2437
13638TIP3    H162405   3.146   6.296   6.074 -1.3285 -0.9537 -1.3947
13638TIP3    H262406   3.118   6.192   6.180  2.0086  0.6799  1.2434
13639TIP3   OH262407   0.099   1.909   5.937  0.3805  0.0556  0.6316
13639TIP3    H162408   0.140   1.866   6.012  0.2347 -0.1889  0.5703
13639TIP3    H262409   0.031   1.965   5.976  0.0752 -0.3303  0.6593
13640TIP3   OH262410   1.973   1.640  15.988 -0.3937 -0.2946  0.0253
13640TIP3    H162411   1.902   1.692  15.951 -0.2117 -0.6660 -0.8818
13640TIP3    H262412   1.929   1.568  16.034 -0.6325 -1.1050 -1.3869
13641TIP3   OH262413   0.094   0.845  12.975  0.8866  0.1170  0.6796
13641TIP3    H162414   0.128   0.762  13.008 -2.3565 -1.2135  1.0547
13641TIP3    H262415   0.093   0.902  13.052 -1.0231 -1.0161  1.5536
13642TIP3   OH262416   0.084   1.884  14.923  0.6602 -0.0445  0.5131
13642TIP3    H162417   0.077   1.794  14.894  1.6299  0.3414 -1.0394
13642TIP3    H262418   0.008   1.928  14.885  1.7587  0.3900 -1.3390
13643TIP3   OH262419   4.915   0.019   5.630  0.4737  0.3501  0.2648
13643TIP3    H162420   4.829   0.061   5.621 -0.2260 -0.9180  0.7779
13643TIP3    H262421   4.896  -0.075   5.630  2.1492 -0.0777 -2.4824
13644TIP3   OH262422   1.733   6.465  15.587 -0.0692  0.1889 -0.6196
13644TIP3    H162423   1.660   6.402  15.588 -0.6163  0.8147  0.3516
13644TIP3    H262424   1.746   6.487  15.679  1.0893  0.3982 -0.8308
13645TIP3   OH262425   0.685   3.313   3.141  0.0280 -0.2461 -0.2076
13645TIP3    H162426   0.604   3.338   3.096 -0.0901 -0.8694 -0.3434
13645TIP3    H262427   0.672   3.222   3.166 -0.1653  0.2574  1.6662
13646TIP3   OH262428   2.531   5.599  16.997 -0.2206 -0.5214 -0.0264
13646TIP3    H162429   2.481   5.542  17.055 -0.8812 -0.2083 -0.2821
13646TIP3    H262430   2.475   5.675  16.983  0.2175 -0.2809 -0.5210
13647TIP3   OH262431   1.000   6.675   4.741 -0.2518 -0.6053  0.1056
13647TIP3    H162432   0.997   6.579   4.739 -0.2886 -0.5944 -0.3817
13647TIP3    H262433   1.080   6.695   4.790 -0.6489 -0.8816  0.8973
13648TIP3   OH262434   6.282   1.706  14.085  0.1554  0.0027 -0.1159
13648TIP3    H162435   6.209   1.681  14.028  0.5360  0.4626 -0.8191
13648TIP3    H262436   6.332   1.770  14.034  0.2126  0.8272  0.9525
13649TIP3   OH262437   6.076   2.154  12.828 -0.1516  1.0725  0.4150
13649TIP3    H162438   6.035   2.078  12.868  1.2461  0.2920  0.4183
13649TIP3    H262439   6.003   2.204  12.791 -1.1284 -0.0616  0.7492
13650TIP3   OH262440   0.235   5.271  14.271  0.1105 -0.3351  0.4326
13650TIP3    H162441   0.323   5.306  14.282 -0.0276 -0.0610  0.6485
13650TIP3    H262442   0.186   5.341  14.228 -0.4381  0.1389  1.7761
13651TIP3   OH262443   5.963   1.140   1.777  0.6187  0.6653  0.0317
13651TIP3    H162444   6.033   1.107   1.834  0.7977  0.4051 -0.3367
13651TIP3    H262445   6.003   1.213   1.729  0.3183  1.2179  0.6088
13652TIP3   OH262446   1.541   3.735   4.902 -1.0917  0.0642  0.5588
13652TIP3    H162447   1.477   3.801   4.929 -0.5059  1.1966 -0.6926
13652TIP3    H262448   1.599   3.782   4.842 -1.0113 -1.7493 -0.8509
13653TIP3   OH262449   0.818   4.706  12.088 -0.2619 -0.2517 -0.3769
13653TIP3    H162450   0.850   4.797  12.092  1.0084 -0.6202 -1.4696
13653TIP3    H262451   0.836   4.679  11.998 -2.5385 -0.9339 -0.6981
13654TIP3   OH262452   5.261   4.710   1.481 -0.0054  0.2067 -0.3876
13654TIP3    H162453   5.343   4.736   1.441  0.5945 -0.7264  0.1919
13654TIP3    H262454   5.231   4.636   1.429 -1.2180  1.4024 -1.4549
13655TIP3   OH262455   0.641   2.105  12.562  0.5409 -0.3547  0.4465
13655TIP3    H162456   0.663   2.078  12.473 -0.6729 -0.0074  0.0203
13655TIP3    H262457   0.617   2.198  12.554  1.1982 -0.0959  1.2828
13656TIP3   OH262458   3.774   2.816  13.300 -0.0555  0.3930 -0.4271
13656TIP3    H162459   3.795   2.904  13.333 -2.2978  0.8195  0.0587
13656TIP3    H262460   3.800   2.757  13.372 -0.6639  0.8879  0.2128
13657TIP3   OH262461   6.005   2.612  14.082  0.0111 -0.0431 -0.3197
13657TIP3    H162462   5.946   2.554  14.033  1.3852 -0.2714 -1.8009
13657TIP3    H262463   5.947   2.674  14.126 -1.3499 -0.5233 -1.3676
13658TIP3   OH262464   5.824   2.809   3.498  0.2303  0.5376  0.1946
13658TIP3    H162465   5.731   2.833   3.502  0.4797  1.7108 -0.5500
13658TIP3    H262466   5.837   2.784   3.406  0.4774 -0.4050  0.4799
13659TIP3   OH262467   0.299   3.170   5.770 -0.2758 -0.0778  0.2925
13659TIP3    H162468   0.354   3.115   5.715 -0.7841 -0.0416 -0.2526
13659TIP3    H262469   0.212   3.132   5.764 -0.2204 -0.4878  1.6154
13660TIP3   OH262470   1.694   2.807   3.359  0.5985 -0.1611 -0.1091
13660TIP3    H162471   1.666   2.855   3.437  0.7521  0.9693 -0.7162
13660TIP3    H262472   1.632   2.835   3.291 -0.2496 -2.0005 -0.1508
13661TIP3   OH262473   4.278   2.841  16.083 -0.3165 -0.8510  0.1121
13661TIP3    H162474   4.294   2.935  16.090 -0.1472 -0.9388  1.0712
13661TIP3    H262475   4.344   2.810  16.022 -1.4860 -0.0924 -1.6054
13662TIP3   OH262476   6.810   1.813  14.263  0.4035 -0.3498 -0.3508
13662TIP3    H162477   6.898   1.840  14.237 -0.5909  0.8059 -2.8548
13662TIP3    H262478   6.816   1.719  14.277  2.8524  0.1543  3.4975
13663TIP3   OH262479   1.550   5.761  11.102 -0.3725 -0.6150  0.0911
13663TIP3    H162480   1.520   5.782  11.014  0.8855  0.0794 -0.1991
13663TIP3    H262481   1.561   5.846  11.145  1.4208 -0.8002  0.0752
13664TIP3   OH262482   0.739   3.650  15.776  0.0082 -0.4102 -0.4012
13664TIP3    H162483   0.706   3.682  15.692 -1.2693 -2.8193 -0.9074
13664TIP3    H262484   0.737   3.727  15.833 -3.2023  0.4189 -1.3930
13665TIP3   OH262485   5.673   6.784   3.897  0.0877 -0.1272  0.2909
13665TIP3    H162486   5.715   6.793   3.811  0.1628 -0.0469  0.3351
13665TIP3    H262487   5.621   6.704   3.890  1.1188 -0.8540  0.5864
13666TIP3   OH262488   2.991   6.820  16.166 -0.4216  0.3807 -0.1464
13666TIP3    H162489   3.005   6.776  16.082 -1.0911 -0.5794  0.2206
13666TIP3    H262490   3.034   6.905  16.156  0.1139  0.0096 -1.2084
13667TIP3   OH262491   4.422   6.015   3.945 -0.0408  0.1488  0.7459
13667TIP3    H162492   4.373   5.959   4.005 -1.2086 -0.2915 -0.5524
13667TIP3    H262493   4.370   6.095   3.940 -0.4589 -0.1757 -0.3561
13668TIP3   OH262494   1.249   4.949  11.833  0.4309  0.3789 -0.3889
13668TIP3    H162495   1.180   4.904  11.784  0.9745  0.8718 -1.6422
13668TIP3    H262496   1.228   4.931  11.925 -1.4161  0.5901 -0.7242
13669TIP3   OH262497   3.184   5.091   0.138  0.3996 -0.0551 -0.1710
13669TIP3    H162498   3.112   5.152   0.123 -0.2410 -0.7873 -0.1623
13669TIP3    H262499   3.252   5.118   0.077 -0.6722 -0.5961 -1.6539
13670TIP3   OH262500   4.408   2.985  11.529 -0.6541  0.0006  0.7014
13670TIP3    H162501   4.502   2.975  11.513 -1.0247 -0.8485 -1.2386
13670TIP3    H262502   4.396   3.077  11.550  0.5768  0.1721  0.6958
13671TIP3   OH262503   5.002   4.481  16.701 -0.0390  0.2322 -0.3954
13671TIP3    H162504   5.081   4.450  16.745 -0.4918 -1.3878 -0.6604
13671TIP3    H262505   5.015   4.458  16.609 -0.5656  0.4592 -0.5298
13672TIP3   OH262506   0.344   5.672  12.416 -0.2159  0.0016 -0.1044
13672TIP3    H162507   0.391   5.605  12.466  2.6973  1.2537 -0.9422
13672TIP3    H262508   0.400   5.749  12.421 -3.0175  2.1764  0.1006
13673TIP3   OH262509   2.201   5.538  12.718  0.7594 -0.2613 -0.4008
13673TIP3    H162510   2.203   5.501  12.806  2.2442  0.0304 -0.2773
13673TIP3    H262511   2.225   5.630  12.729  1.5546 -0.3603 -1.1481
13674TIP3   OH262512   4.616   5.532  12.261 -0.4567  0.7989 -0.1539
13674TIP3    H162513   4.702   5.509  12.226 -0.9774  0.2635 -1.1519
13674TIP3    H262514   4.560   5.540  12.183 -0.7368  3.7972  0.2367
13675TIP3   OH262515   0.528   5.170  12.985  0.2083  0.2783  0.1273
13675TIP3    H162516   0.619   5.143  12.972  1.2290  2.6723  1.6097
13675TIP3    H262517   0.524   5.196  13.077 -1.3095  2.3889 -0.4555
13676TIP3   OH262518   1.416   2.551   3.345 -0.4401 -0.3718  0.1557
13676TIP3    H162519   1.361   2.499   3.286  0.1239  0.4609 -1.1443
13676TIP3    H262520   1.505   2.522   3.325 -0.1377  0.9088 -0.4047
13677TIP3   OH262521   6.183   1.079   1.942 -0.0690  0.7427  0.3349
13677TIP3    H162522   6.244   1.053   2.012 -2.0350  0.1389  1.9394
13677TIP3    H262523   6.148   1.163   1.972 -1.6025  0.0493  0.6065
13678TIP3   OH262524   5.462   4.754   4.602 -0.1944  0.0536 -0.5128
13678TIP3    H162525   5.519   4.687   4.638  0.8563  0.0207 -2.1465
13678TIP3    H262526   5.393   4.765   4.667  0.6314 -1.2758  0.6216
13679TIP3   OH262527   6.282   2.430   5.563  0.3108 -0.4576 -0.7072
13679TIP3    H162528   6.292   2.440   5.658 -3.3127 -1.4587 -0.0422
13679TIP3    H262529   6.234   2.508   5.537  0.9376 -0.3857 -1.6713
13680TIP3   OH262530   6.685   4.732  12.898 -0.2294 -0.9511 -0.1260
13680TIP3    H162531   6.645   4.802  12.949  1.8782  0.5926 -0.4457
13680TIP3    H262532   6.622   4.713  12.828 -2.8720 -2.6501  2.5185
13681TIP3   OH262533   5.063   6.676  15.630  0.1199  0.4338 -0.0733
13681TIP3    H162534   5.106   6.631  15.702 -0.7017 -2.4462 -1.2529
13681TIP3    H262535   5.065   6.613  15.558  0.2916  2.9167 -2.3982
13682TIP3   OH262536   2.180   2.190  15.320  0.3949  0.0827 -0.5884
13682TIP3    H162537   2.192   2.210  15.413  1.5390  1.7577 -1.0632
13682TIP3    H262538   2.138   2.103  15.320 -0.0667  0.2488  1.4791
13683TIP3   OH262539   3.161   4.013  13.239 -0.0245  0.0048 -0.0557
13683TIP3    H162540   3.216   3.947  13.282  0.3945 -0.8737 -1.8598
13683TIP3    H262541   3.158   4.085  13.302  2.5839 -0.2242  0.4489
13684TIP3   OH262542   2.123   0.151   5.264 -0.0434  0.6060 -0.2335
13684TIP3    H162543   2.118   0.246   5.268 -2.9348  0.5407 -0.3838
13684TIP3    H262544   2.185   0.127   5.333  0.4316  2.5376  0.0729
13685TIP3   OH262545   4.584   2.094  13.178 -0.4308 -0.3777  0.2775
13685TIP3    H162546   4.658   2.136  13.134 -0.0699 -2.2701 -1.0656
13685TIP3    H262547   4.619   2.065  13.262 -0.3745  0.9098  0.7215
13686TIP3   OH262548   0.821   6.165  14.189 -0.2538 -0.4855  0.3818
13686TIP3    H162549   0.810   6.070  14.197 -3.1586 -0.4729 -1.7650
13686TIP3    H262550   0.911   6.176  14.157 -0.4632 -2.7213 -1.2598
13687TIP3   OH262551   5.055   3.557   4.305 -0.1295  0.1237  0.4538
13687TIP3    H162552   5.136   3.603   4.282  0.4801 -0.0677  2.0884
13687TIP3    H262553   5.060   3.544   4.400 -1.6340 -0.7590  0.4567
13688TIP3   OH262554   0.694   4.299  14.546 -0.0646 -0.0741  0.2849
13688TIP3    H162555   0.649   4.269  14.467 -2.0139  0.2242  1.2318
13688TIP3    H262556   0.742   4.222  14.577 -1.4139 -0.9644  0.2384
13689TIP3   OH262557   0.873   2.312  15.649  1.4237  0.6096  0.2001
13689TIP3    H162558   0.811   2.384  15.642  0.6699 -0.1079 -0.6985
13689TIP3    H262559   0.928   2.335  15.723  0.2880  1.4139  0.8141
13690TIP3   OH262560   0.807   4.599   2.810  0.6284  0.4408  0.3814
13690TIP3    H162561   0.778   4.511   2.835 -0.8553 -0.0430 -2.6216
13690TIP3    H262562   0.896   4.587   2.777  0.8279  0.2970  0.9466
13691TIP3   OH262563   1.697   3.351  15.099  0.4749 -0.4375 -0.2781
13691TIP3    H162564   1.633   3.417  15.127  1.4506 -0.4555  2.3641
13691TIP3    H262565   1.660   3.312  15.020  0.2383  3.7854 -2.5247
13692TIP3   OH262566   3.883   0.773  14.340  0.0167  0.0786  0.1388
13692TIP3    H162567   3.808   0.714  14.352 -1.8895  2.4997  0.9434
13692TIP3    H262568   3.902   0.768  14.246 -0.7313 -1.0382  0.0201
13693TIP3   OH262569   5.213   4.825   4.751  0.1632 -0.2863 -0.3160
13693TIP3    H162570   5.220   4.914   4.716  0.5548 -0.0836  0.2763
13693TIP3    H262571   5.184   4.837   4.841  0.7365 -0.7297 -0.0690
13694TIP3   OH262572   4.832   5.044  12.745 -0.2563 -0.2601  0.8140
13694TIP3    H162573   4.823   5.007  12.833  1.2528  2.9592  2.4979
13694TIP3    H262574   4.893   4.985  12.700 -0.5424 -1.6066  2.1088
13695TIP3   OH262575   4.547   5.157   1.835 -0.2241  0.0821  0.2351
13695TIP3    H162576   4.530   5.093   1.905  0.1523 -2.7427 -2.0667
13695TIP3    H262577   4.464   5.203   1.823  0.1440  1.9886  3.6129
13696TIP3   OH262578   6.153   4.237  14.066  0.1813  0.1829  0.4522
13696TIP3    H162579   6.070   4.283  14.060 -0.2138 -0.6136 -0.4655
13696TIP3    H262580   6.147   4.186  14.147 -0.0570  0.4204  0.5839
13697TIP3   OH262581   2.410   6.192   5.271  0.0746 -0.1843  0.0116
13697TIP3    H162582   2.453   6.277   5.281 -0.7751  0.2434  0.0603
13697TIP3    H262583   2.350   6.203   5.198 -0.3544 -0.6124  0.2917
13698TIP3   OH262584   3.395   0.512   3.845  0.1285 -0.7335  0.1486
13698TIP3    H162585   3.428   0.577   3.907  1.3825 -0.8873 -0.3297
13698TIP3    H262586   3.462   0.444   3.844  0.9754  0.0208 -2.5564
13699TIP3   OH262587   3.717   0.562   1.253 -0.0687  0.0086  0.0139
13699TIP3    H162588   3.631   0.540   1.288  0.1545  0.3808  0.8326
13699TIP3    H262589   3.778   0.505   1.301  0.1920  0.1727 -0.1191
13700TIP3   OH262590   6.300   3.145   6.899  0.1447 -0.6318 -0.5787
13700TIP3    H162591   6.333   3.098   6.822 -0.4074 -2.1236  0.0478
13700TIP3    H262592   6.375   3.147   6.959  0.9082  1.4607 -1.4854
13701TIP3   OH262593   0.906   0.278  16.541  0.2387  0.3752  0.0520
13701TIP3    H162594   0.903   0.192  16.498  0.1195 -0.1872  1.1391
13701TIP3    H262595   0.840   0.272  16.610  1.3461  0.7383  1.1896
13702TIP3   OH262596   0.934   1.043   2.484 -0.3172  0.2925 -0.0100
13702TIP3    H162597   0.965   1.130   2.459 -0.1675  0.3083  0.2256
13702TIP3    H262598   1.006   0.984   2.462 -1.0744 -0.0268 -1.8139
13703TIP3   OH262599   6.112   2.698  12.166  0.0957  0.2655 -0.4172
13703TIP3    H162600   6.159   2.628  12.120 -1.3974 -0.5870 -0.7456
13703TIP3    H262601   6.148   2.699  12.254  0.3964 -0.6783 -0.5237
13704TIP3   OH262602   3.073   3.119   4.570 -0.2559  0.4148  0.0695
13704TIP3    H162603   3.007   3.050   4.564  1.6811 -1.4994 -0.2351
13704TIP3    H262604   3.118   3.102   4.653  2.0824 -0.5296 -1.2832
13705TIP3   OH262605   6.506   6.195   0.516  0.3906  0.2821  0.3327
13705TIP3    H162606   6.543   6.195   0.604  1.6171 -1.3929 -0.1368
13705TIP3    H262607   6.565   6.251   0.465  0.3113  0.3576  0.3222
13706TIP3   OH262608   3.049   5.366   0.948 -0.4290  0.2863 -0.3462
13706TIP3    H162609   3.096   5.421   1.011  1.3533 -0.7731 -0.7014
13706TIP3    H262610   3.104   5.365   0.870 -1.2521 -0.6410 -0.9477
13707TIP3   OH262611   2.038   0.407   5.190  0.4131 -0.3786  0.1416
13707TIP3    H162612   1.983   0.476   5.227  2.2997  1.0790  0.3665
13707TIP3    H262613   2.120   0.451   5.167  1.4261 -2.4098 -0.3669
13708TIP3   OH262614   3.797   3.888   5.878  0.1217  0.1572 -0.0157
13708TIP3    H162615   3.770   3.808   5.922  1.1703  0.4031  1.1159
13708TIP3    H262616   3.823   3.948   5.948  0.2704  1.1523 -0.8819
13709TIP3   OH262617   2.603   2.254   0.540  0.5733  0.2502 -0.4532
13709TIP3    H162618   2.532   2.317   0.546 -0.1375 -0.5869  0.1837
13709TIP3    H262619   2.575   2.180   0.594  2.3485  0.2875  0.6182
13710TIP3   OH262620   5.896   0.140  14.430 -0.3102  0.0907  0.9157
13710TIP3    H162621   5.825   0.169  14.373  1.7672  1.0796 -1.3371
13710TIP3    H262622   5.856   0.134  14.517 -2.6019  2.7892  0.1935
13711TIP3   OH262623   0.658   3.890  12.094 -0.4295 -0.0970  0.1450
13711TIP3    H162624   0.704   3.965  12.131  0.7855 -0.8297  0.2124
13711TIP3    H262625   0.597   3.927  12.031  1.9076  0.8862 -1.7284
13712TIP3   OH262626   0.678   0.013   3.681 -0.0701  0.1025 -0.6140
13712TIP3    H162627   0.628   0.058   3.749 -0.0921 -0.5541 -0.1744
13712TIP3    H262628   0.769   0.017   3.712  0.4199  2.6347 -2.1646
13713TIP3   OH262629   1.127   5.843   2.443 -0.1150  0.5397  0.7719
13713TIP3    H162630   1.186   5.770   2.461 -0.4272  0.2309  0.5592
13713TIP3    H262631   1.047   5.820   2.492  0.0441  1.1001  1.3055
13714TIP3   OH262632   2.468   3.750  12.555  0.3767  0.1204  1.1009
13714TIP3    H162633   2.491   3.686  12.622  0.6979 -0.5328  0.3773
13714TIP3    H262634   2.373   3.755  12.559  0.4479  1.3924  2.7784
13715TIP3   OH262635   1.078   6.319  14.181  0.0771  0.5226 -0.2285
13715TIP3    H162636   1.157   6.299  14.230 -0.2430 -1.3394 -0.4028
13715TIP3    H262637   1.100   6.299  14.090 -0.9921 -1.5357 -0.1033
13716TIP3   OH262638   2.573   5.482  15.759 -0.5205 -0.3148  0.3833
13716TIP3    H162639   2.587   5.555  15.819  0.1911 -0.8364  0.8743
13716TIP3    H262640   2.611   5.512  15.676  1.9418 -0.9609  1.1865
13717TIP3   OH262641   6.316   5.312  16.415 -0.3104  0.0289 -0.0256
13717TIP3    H162642   6.239   5.261  16.388  0.4908 -1.4937  0.4204
13717TIP3    H262643   6.290   5.353  16.497 -0.7968 -0.1227 -0.0992
13718TIP3   OH262644   5.030   5.352  11.375 -0.5019  0.5409 -0.2401
13718TIP3    H162645   5.009   5.259  11.374 -0.4951  0.5038  1.1896
13718TIP3    H262646   5.091   5.364  11.301 -2.0362 -0.1743 -1.6682
13719TIP3   OH262647   4.780   2.683   5.796  0.1812 -0.3582  0.2020
13719TIP3    H162648   4.721   2.608   5.787 -0.7756  0.4749 -0.6463
13719TIP3    H262649   4.762   2.737   5.720  1.9410  0.0111  0.0004
13720TIP3   OH262650   5.451   4.248   4.877 -0.4630  0.5627 -0.1308
13720TIP3    H162651   5.444   4.159   4.913  1.5862  0.3970 -0.0189
13720TIP3    H262652   5.412   4.242   4.790  0.4041 -0.6826 -0.4562
13721TIP3   OH262653   2.768   5.187   4.510  0.1693 -0.4963  0.5047
13721TIP3    H162654   2.789   5.108   4.460 -2.2852 -0.4831 -0.6818
13721TIP3    H262655   2.705   5.158   4.575 -0.0536  0.3051  0.6549
13722TIP3   OH262656   2.293   4.289   4.333  0.3552  0.2215  0.5595
13722TIP3    H162657   2.210   4.335   4.331  0.2404 -0.0016  0.0013
13722TIP3    H262658   2.284   4.220   4.267  1.3056  0.7728 -0.1746
13723TIP3   OH262659   1.542   3.334  11.327 -0.2533  0.4118 -0.1029
13723TIP3    H162660   1.475   3.267  11.313  0.0621 -0.0138  0.3450
13723TIP3    H262661   1.546   3.382  11.245 -0.1632 -0.4263 -0.6070
13724TIP3   OH262662   5.523   3.158  16.936  0.0530 -0.0993  0.0994
13724TIP3    H162663   5.526   3.112  16.852 -1.1884 -0.7445  0.3881
13724TIP3    H262664   5.575   3.237  16.921  1.1424 -0.9397 -0.8080
13725TIP3   OH262665   4.029   6.774   5.212  0.2706  0.0130  0.3771
13725TIP3    H162666   3.953   6.732   5.253  0.8190 -2.0129 -0.5464
13725TIP3    H262667   4.054   6.714   5.142  2.2315  1.0390  0.1398
13726TIP3   OH262668   0.535   2.349  12.501  0.5615  0.0756 -0.4279
13726TIP3    H162669   0.473   2.417  12.528  1.3693  1.1786 -1.2508
13726TIP3    H262670   0.525   2.344  12.406  2.2474  0.8456 -0.6926
13727TIP3   OH262671   1.682   0.327  16.575  0.0702  0.0781 -0.2717
13727TIP3    H162672   1.682   0.334  16.670 -0.1076 -0.2944 -0.2443
13727TIP3    H262673   1.699   0.235  16.557 -2.1085 -0.3266 -0.5565
13728TIP3   OH262674   3.766   6.558  11.682  0.2143 -0.5660 -0.3283
13728TIP3    H162675   3.736   6.646  11.707 -1.0156 -1.5408  1.8313
13728TIP3    H262676   3.858   6.556  11.709  0.2713  0.0826 -0.4609
13729TIP3   OH262677   4.344   5.753  12.033 -0.6193 -0.2121 -0.0039
13729TIP3    H162678   4.410   5.811  12.071  0.9550 -1.7611 -0.2194
13729TIP3    H262679   4.264   5.771  12.083 -0.5145  2.7915 -0.7127
13730TIP3   OH262680   2.183   0.839   5.494  0.0180  0.1201  0.2454
13730TIP3    H162681   2.112   0.883   5.447 -1.1000 -1.3982  0.4419
13730TIP3    H262682   2.258   0.846   5.435 -0.5668  0.8384 -0.4420
13731TIP3   OH262683   2.595   1.698   0.299 -0.7825 -0.0032 -0.0497
13731TIP3    H162684   2.574   1.736   0.384 -0.3205 -1.5234  0.7670
13731TIP3    H262685   2.659   1.630   0.318  0.0822  0.2761 -1.7376
13732TIP3   OH262686   0.125   4.196   1.584  0.0068 -0.0552  0.2891
13732TIP3    H162687   0.061   4.132   1.554  0.0180 -1.1351  2.4093
13732TIP3    H262688   0.104   4.210   1.676  2.0781  0.4753  0.7270
13733TIP3   OH262689   1.491   4.038   1.850 -0.3171 -0.0968 -0.4880
13733TIP3    H162690   1.510   4.127   1.819 -0.1836 -0.5460 -1.7785
13733TIP3    H262691   1.403   4.043   1.885 -0.2870  0.5645 -0.4914
13734TIP3   OH262692   3.524   1.851   1.219  0.4981  0.0672 -0.1477
13734TIP3    H162693   3.553   1.803   1.297  0.5075 -3.9059 -2.3146
13734TIP3    H262694   3.602   1.855   1.163  0.2490  1.9528 -0.4280
13735TIP3   OH262695   4.842   4.948   5.077  0.0039 -0.6218  0.0893
13735TIP3    H162696   4.754   4.942   5.041 -0.4237  1.5047  0.6669
13735TIP3    H262697   4.830   4.937   5.171  0.2228  0.6034  0.2659
13736TIP3   OH262698   4.668   2.981  14.172 -0.5724  0.1073  0.0329
13736TIP3    H162699   4.613   2.998  14.248 -0.2066  0.9236  0.1191
13736TIP3    H262700   4.753   3.019  14.195 -0.1610 -0.5615 -0.3630
13737TIP3   OH262701   4.137   4.519  12.947 -0.0426 -0.6408 -0.0068
13737TIP3    H162702   4.215   4.515  12.892  0.4530 -0.2004  0.6500
13737TIP3    H262703   4.170   4.547  13.033 -0.9526 -0.2338  0.2148
13738TIP3   OH262704   0.278   6.806  13.195  0.2552  0.1270  0.1484
13738TIP3    H162705   0.193   6.763  13.187  0.3752 -0.3304  1.1502
13738TIP3    H262706   0.265   6.894  13.159 -0.3222 -0.3315 -0.7805
13739TIP3   OH262707   0.398   0.656   0.791 -0.3148  0.6872 -0.1578
13739TIP3    H162708   0.327   0.649   0.728  0.3866 -0.8283 -0.8357
13739TIP3    H262709   0.377   0.734   0.843 -2.3337  0.4006 -0.4716
13740TIP3   OH262710   5.365   1.278  11.753  0.4842 -0.5779  0.0684
13740TIP3    H162711   5.408   1.248  11.673  0.4088 -0.6619  0.0596
13740TIP3    H262712   5.278   1.307  11.724  0.7278  0.0955 -0.0042
13741TIP3   OH262713   0.263   0.000   4.229 -0.4258  0.0092  0.1676
13741TIP3    H162714   0.333   0.019   4.291 -0.8882 -0.8634  0.9792
13741TIP3    H262715   0.239  -0.091   4.247  1.3882 -1.3099 -3.2177
13742TIP3   OH262716   3.128   1.850  14.284 -0.1993 -0.0295 -0.1716
13742TIP3    H162717   3.217   1.865  14.253 -0.6905  2.3396 -0.6315
13742TIP3    H262718   3.129   1.761  14.318  1.9756 -0.5461 -1.4044
13743TIP3   OH262719   4.025   2.946  14.492  0.7921 -0.1303 -0.0129
13743TIP3    H162720   4.039   3.041  14.488 -0.0210  0.0985  1.6811
13743TIP3    H262721   3.959   2.929  14.425  1.6699  0.3153 -1.0268
13744TIP3   OH262722   5.050   4.750  13.640  0.1250 -0.0304 -0.0786
13744TIP3    H162723   5.008   4.836  13.642 -0.7176 -0.4316 -0.0081
13744TIP3    H262724   5.043   4.718  13.730  1.4500  0.2875  0.1593
13745TIP3   OH262725   1.015   1.256  11.729 -0.3010  0.0110 -0.3408
13745TIP3    H162726   1.017   1.277  11.823  0.9909 -0.4218 -0.2548
13745TIP3    H262727   1.073   1.320  11.689  0.3439 -0.7298 -0.6296
13746TIP3   OH262728   3.495   6.146   2.999  0.4602 -0.7877 -0.2897
13746TIP3    H162729   3.505   6.055   3.028 -0.4124 -0.4170  1.2698
13746TIP3    H262730   3.400   6.157   2.989  0.4257  0.4034  1.1266
13747TIP3   OH262731   2.973   3.235  10.841  0.1311  0.5018 -0.4549
13747TIP3    H162732   3.012   3.149  10.823 -0.5593  0.0333  0.1985
13747TIP3    H262733   3.009   3.293  10.774  3.5992  0.6027  1.2792
13748TIP3   OH262734   2.299   1.570  13.717  0.1940 -0.0737 -0.3332
13748TIP3    H162735   2.379   1.537  13.676  0.5770  0.1727  0.2060
13748TIP3    H262736   2.316   1.664  13.727  0.3590 -0.2356  0.9661
13749TIP3   OH262737   2.472   0.290  11.278  0.6254  0.5817 -0.6786
13749TIP3    H162738   2.510   0.378  11.278  2.5288 -0.1472 -2.3117
13749TIP3    H262739   2.504   0.250  11.196 -2.2288 -0.8036 -1.2471
13750TIP3   OH262740   2.268   1.478  16.910 -0.3954  0.1471  0.3134
13750TIP3    H162741   2.207   1.522  16.969 -0.3571 -1.0929  1.3144
13750TIP3    H262742   2.212   1.444  16.840 -0.3540  2.2735 -0.8538
13751TIP3   OH262743   0.320   5.347  14.892 -0.0514 -0.4844 -0.0180
13751TIP3    H162744   0.385   5.402  14.936 -1.3529  2.8357 -1.8698
13751TIP3    H262745   0.345   5.352  14.799 -1.8232 -0.6925 -0.5382
13752TIP3   OH262746   1.377   1.202  14.153 -0.3837 -0.9400  0.3303
13752TIP3    H162747   1.451   1.221  14.210 -1.0153  0.2595  0.7935
13752TIP3    H262748   1.322   1.143  14.203 -1.1359  0.4226  1.1856
13753TIP3   OH262749   5.857   1.687   4.775 -1.0538  0.6323 -0.2153
13753TIP3    H162750   5.853   1.641   4.859 -0.8846 -0.6066 -0.8752
13753TIP3    H262751   5.920   1.758   4.790  0.6323 -0.8734  0.1110
13754TIP3   OH262752   0.424   0.138  14.582 -0.2380 -0.8466  0.2585
13754TIP3    H162753   0.352   0.156  14.642  0.3827 -0.4758  0.9121
13754TIP3    H262754   0.479   0.076  14.630  0.3064 -0.4849  0.1053
13755TIP3   OH262755   2.677   1.260  16.634  0.3829 -0.6556 -0.2193
13755TIP3    H162756   2.677   1.165  16.619  0.4648 -0.5477 -0.9461
13755TIP3    H262757   2.617   1.295  16.568 -0.3038 -0.2712  0.5873
13756TIP3   OH262758   3.602   5.622  15.586  0.6660 -0.1360  0.6386
13756TIP3    H162759   3.665   5.600  15.655  1.6592  0.6994  0.0441
13756TIP3    H262760   3.616   5.715  15.571 -0.4726 -0.0182  0.2156
13757TIP3   OH262761   5.079   6.740   3.329  0.2488 -0.3570  0.2313
13757TIP3    H162762   5.020   6.687   3.382  0.7337  0.4214  1.5927
13757TIP3    H262763   5.083   6.824   3.374  0.6013  0.3878 -1.1082
13758TIP3   OH262764   0.633   6.058   3.107 -0.2555 -0.2778 -0.4558
13758TIP3    H162765   0.659   6.117   3.177 -0.3735  0.3614 -0.9489
13758TIP3    H262766   0.538   6.050   3.117 -0.1514 -1.0103  0.0870
13759TIP3   OH262767   4.826   1.670   1.920 -0.4126 -0.0713  0.3683
13759TIP3    H162768   4.840   1.743   1.980 -0.4560 -0.0301  0.3281
13759TIP3    H262769   4.775   1.707   1.848 -1.5809 -0.4456  0.9834
13760TIP3   OH262770   3.788   3.877   4.382  0.6726  0.6237 -0.6644
13760TIP3    H162771   3.696   3.900   4.378 -0.5793 -3.2255  0.6947
13760TIP3    H262772   3.811   3.852   4.292  0.1312  0.7542 -0.8412
13761TIP3   OH262773   3.380   4.116  13.072 -0.0305  0.0702  0.4929
13761TIP3    H162774   3.444   4.099  13.141  0.8625 -0.6342 -0.4720
13761TIP3    H262775   3.298   4.081  13.107  0.5987 -1.1136  0.8550
13762TIP3   OH262776   3.003   6.299   0.158 -0.1248  0.0964 -0.0604
13762TIP3    H162777   3.009   6.394   0.155  1.0861  0.0608  0.3807
13762TIP3    H262778   2.911   6.280   0.173 -0.1537  1.2480  1.4068
13763TIP3   OH262779   5.645   6.251   3.883 -0.2281  0.4818 -0.3610
13763TIP3    H162780   5.695   6.180   3.843 -0.1576  0.9108 -1.0429
13763TIP3    H262781   5.626   6.311   3.811  0.0635  1.3631  0.2760
13764TIP3   OH262782   2.722   2.351   0.808 -0.3304  0.4255  0.0634
13764TIP3    H162783   2.804   2.302   0.810 -0.3590  0.3951  0.7501
13764TIP3    H262784   2.698   2.354   0.716 -0.9034 -1.8561  0.0509
13765TIP3   OH262785   0.908   0.407   3.027  0.2359 -0.1366 -0.3100
13765TIP3    H162786   0.969   0.333   3.031  1.9406  0.9862 -2.9573
13765TIP3    H262787   0.841   0.379   2.965 -0.8986 -0.5781  1.0558
13766TIP3   OH262788   2.098   3.663   2.569 -0.3944 -0.7118  0.2932
13766TIP3    H162789   2.026   3.716   2.536 -0.2235 -0.3594  0.4787
13766TIP3    H262790   2.176   3.718   2.557 -0.3202 -0.6144  1.1993
13767TIP3   OH262791   5.783   2.844   0.917 -0.4910  0.1399  0.4126
13767TIP3    H162792   5.819   2.775   0.973  1.1094  0.0455 -0.6689
13767TIP3    H262793   5.709   2.803   0.873 -0.5182 -0.4008  0.9456
13768TIP3   OH262794   4.769   4.560  13.548 -0.1519 -0.0302  0.2405
13768TIP3    H162795   4.851   4.554  13.499 -0.1985  2.0354 -0.2098
13768TIP3    H262796   4.747   4.654  13.546 -1.4641 -0.2407  2.0867
13769TIP3   OH262797   3.468   1.523   3.197  0.0094 -0.4083  0.3018
13769TIP3    H162798   3.545   1.567   3.233 -0.1056 -0.6828  0.8881
13769TIP3    H262799   3.504   1.447   3.151  0.1194 -0.3232  0.2457
13770TIP3   OH262800   0.895   5.827  11.419 -0.1932 -0.1050 -0.0267
13770TIP3    H162801   0.842   5.771  11.362 -0.5016  1.8569 -1.7934
13770TIP3    H262802   0.936   5.889  11.359  4.4904 -1.6453  1.1429
13771TIP3   OH262803   5.924   4.844   2.587 -0.2621  0.3038  0.2589
13771TIP3    H162804   5.831   4.850   2.606 -0.7625 -1.6546 -1.1952
13771TIP3    H262805   5.929   4.784   2.512  2.2400 -0.5983  1.0485
13772TIP3   OH262806   4.161   1.285  13.238 -0.4889  0.4632  0.2862
13772TIP3    H162807   4.154   1.255  13.328 -0.3056 -0.3466  0.0363
13772TIP3    H262808   4.097   1.233  13.190  1.5447 -1.4033 -0.5963
13773TIP3   OH262809   3.224   6.437  15.697 -0.5521 -0.1755  0.7490
13773TIP3    H162810   3.175   6.517  15.715  0.8602  0.3444  2.6569
13773TIP3    H262811   3.212   6.421  15.604  0.1650  3.0021 -0.0075
13774TIP3   OH262812   2.141   2.704   3.054 -0.3334 -0.4459  0.1109
13774TIP3    H162813   2.050   2.684   3.077 -0.9318  3.7174  2.4124
13774TIP3    H262814   2.183   2.726   3.138  1.6310  1.6086 -1.2883
13775TIP3   OH262815   3.703   4.297  10.865  0.1713 -0.4011 -0.1240
13775TIP3    H162816   3.620   4.302  10.911  0.9794 -0.7365  1.4635
13775TIP3    H262817   3.768   4.289  10.935  1.5655  0.2217 -1.2988
13776TIP3   OH262818   4.808   6.815  13.455 -1.0668 -0.2788  0.0818
13776TIP3    H162819   4.759   6.844  13.378  0.5743  0.1647 -0.8336
13776TIP3    H262820   4.799   6.887  13.518 -1.0671  0.0726 -0.3192
13777TIP3   OH262821   3.136   3.148   1.091 -0.9532 -0.2409  0.0968
13777TIP3    H162822   3.229   3.167   1.098 -0.9706  0.2255 -0.8043
13777TIP3    H262823   3.095   3.207   1.154 -0.7432  0.4934 -0.4461
13778TIP3   OH262824   4.802   4.196  11.985 -0.2573 -0.6060  0.3963
13778TIP3    H162825   4.861   4.126  12.011  2.3452  1.0266 -0.7477
13778TIP3    H262826   4.830   4.220  11.897 -1.1176  1.8093  0.7039
13779TIP3   OH262827   6.267   0.453   1.777 -0.2249  0.5624 -0.4573
13779TIP3    H162828   6.299   0.364   1.759  1.1181  1.2173 -1.4571
13779TIP3    H262829   6.176   0.453   1.745 -0.2497 -0.4436 -0.4198
13780TIP3   OH262830   0.028   6.464   1.161  0.0213  0.3093 -0.6714
13780TIP3    H162831   0.103   6.438   1.106  0.3664  1.4519 -0.7726
13780TIP3    H262832  -0.012   6.382   1.187  0.8897 -0.3088 -1.2177
13781TIP3   OH262833   1.550   4.534   0.118  0.0105 -0.1449 -0.1868
13781TIP3    H162834   1.511   4.498   0.198  0.6144 -0.6323 -0.1028
13781TIP3    H262835   1.615   4.597   0.150  0.8105 -0.9112 -0.2591
13782TIP3   OH262836   1.042   6.238  13.690 -0.1514  0.7879 -0.2243
13782TIP3    H162837   1.118   6.194  13.726 -1.4345 -0.7833  0.6969
13782TIP3    H262838   1.062   6.332  13.697  0.9679  0.4531  1.5990
13783TIP3   OH262839   6.187   0.199   1.199 -0.5618 -0.3069  0.3164
13783TIP3    H162840   6.181   0.253   1.278 -0.0502 -1.3546  1.0918
13783TIP3    H262841   6.281   0.197   1.179 -0.7253  0.3235 -0.6074
13784TIP3   OH262842   4.645   3.331  14.186 -0.0841 -0.7287 -0.1550
13784TIP3    H162843   4.573   3.268  14.191 -0.3189 -0.4889 -0.4927
13784TIP3    H262844   4.718   3.287  14.231 -0.5614 -0.7973  0.5679
13785TIP3   OH262845   0.820   1.972  14.945 -0.3183  0.5691  0.9040
13785TIP3    H162846   0.882   1.912  14.987  1.2245  1.9951  0.7574
13785TIP3    H262847   0.804   1.933  14.859  1.3373  0.7881  0.4770
13786TIP3   OH262848   1.295   0.859   4.985  0.0304 -0.1790  0.2133
13786TIP3    H162849   1.242   0.874   5.063  1.3044  0.2389  1.0120
13786TIP3    H262850   1.236   0.878   4.912 -1.2795 -0.9114  1.0456
13787TIP3   OH262851   5.880   4.254   5.246 -0.0259 -0.1289  0.1652
13787TIP3    H162852   5.881   4.179   5.305 -0.5155  0.5154  1.0196
13787TIP3    H262853   5.788   4.269   5.227  0.1366 -0.4601 -0.9561
13788TIP3   OH262854   4.910   5.040  11.146  0.5827  0.4129 -0.3035
13788TIP3    H162855   4.902   5.042  11.241  0.1368 -1.4319 -0.2664
13788TIP3    H262856   4.840   4.981  11.117  0.8385  0.7851 -1.7635
13789TIP3   OH262857   0.923   3.760  11.742  0.0134  0.6651  0.5298
13789TIP3    H162858   0.848   3.761  11.682  1.1223  0.5638 -0.9212
13789TIP3    H262859   0.885   3.741  11.828 -1.4275 -1.1986 -0.4402
13790TIP3   OH262860   3.786   1.108   2.237 -0.2954  0.7870  0.6477
13790TIP3    H162861   3.863   1.136   2.189  0.7596  0.2395  1.9586
13790TIP3    H262862   3.788   1.159   2.318 -0.5918 -0.1510  1.2606
13791TIP3   OH262863   3.646   0.129  16.941  0.2887 -0.1151  0.7494
13791TIP3    H162864   3.707   0.202  16.928 -0.1647  0.5069  1.9946
13791TIP3    H262865   3.648   0.082  16.857 -0.0456  1.7936 -0.4028
13792TIP3   OH262866   6.580   0.937  14.962 -0.5004  0.6986 -0.0850
13792TIP3    H162867   6.635   0.888  14.901 -2.3481  0.2408 -1.4847
13792TIP3    H262868   6.614   0.914  15.048  1.0668 -0.0590 -0.8581
13793TIP3   OH262869   6.521   4.926  14.923 -0.0957  1.1353 -0.1702
13793TIP3    H162870   6.475   4.969  14.995 -0.6680  0.9736 -0.4318
13793TIP3    H262871   6.591   4.877  14.965  0.0178  1.6122  0.2120
13794TIP3   OH262872   1.444   3.774   2.409 -0.1955 -0.1855  0.0375
13794TIP3    H162873   1.495   3.843   2.453  0.7727 -0.9158  0.0832
13794TIP3    H262874   1.510   3.720   2.366 -1.0537 -0.1693 -1.3410
13795TIP3   OH262875   3.501   6.313   4.962 -0.0717 -0.0474  0.5673
13795TIP3    H162876   3.490   6.223   4.931 -0.4881  0.3511 -0.4569
13795TIP3    H262877   3.504   6.305   5.057 -1.3740 -1.0099  0.5442
13796TIP3   OH262878   3.672   4.531  10.352  0.1957 -0.5547  0.5191
13796TIP3    H162879   3.690   4.625  10.346 -0.0288 -0.5745 -0.6215
13796TIP3    H262880   3.585   4.521  10.312  0.7804 -1.4170 -0.5790
13797TIP3   OH262881   0.943   5.793  13.764  0.8212  0.5198 -0.2794
13797TIP3    H162882   0.961   5.700  13.755 -1.4266  0.0914 -1.0165
13797TIP3    H262883   0.992   5.835  13.694  0.4083 -0.3360 -1.0935
13798TIP3   OH262884   6.457   0.543  13.584 -0.1453 -0.0383  0.2109
13798TIP3    H162885   6.381   0.496  13.617 -0.4738 -0.9832 -1.7250
13798TIP3    H262886   6.421   0.610  13.526  0.4360 -1.5427 -2.0354
13799TIP3   OH262887   0.161   1.019  11.640  0.0836  0.2255 -0.1809
13799TIP3    H162888   0.144   0.934  11.679  1.1632  0.1263  0.1120
13799TIP3    H262889   0.141   1.008  11.547 -0.9781  0.0133  0.0637
13800TIP3   OH262890   2.595   0.863  12.022  0.2474  0.2482 -0.3996
13800TIP3    H162891   2.583   0.839  12.113 -2.3304 -1.6240 -1.1331
13800TIP3    H262892   2.688   0.847  12.005  0.4047 -1.0468  1.4241
13801TIP3   OH262893   2.031   3.573   6.239  0.0904  0.1995  0.8034
13801TIP3    H162894   2.023   3.522   6.320  0.2430  1.2164  1.4764
13801TIP3    H262895   2.089   3.646   6.262 -0.9345  1.2558  0.1616
13802TIP3   OH262896   5.134   4.778   6.128 -0.6264 -0.2969  0.1712
13802TIP3    H162897   5.118   4.857   6.076  0.2508  0.5477  1.1249
13802TIP3    H262898   5.078   4.789   6.205  1.1789  0.5793  1.4387
13803TIP3   OH262899   2.111   4.390   4.607 -0.7070 -0.0875  0.5227
13803TIP3    H162900   2.070   4.307   4.632 -1.3294  0.2025  0.5068
13803TIP3    H262901   2.204   4.378   4.624 -0.7861 -0.8130  0.4500
13804TIP3   OH262902   1.324   6.004   3.675 -0.0864 -0.0626  0.1075
13804TIP3    H162903   1.398   5.982   3.619 -0.4828 -1.9899  0.2645
13804TIP3    H262904   1.363   6.043   3.753  0.6965 -0.4161 -0.1034
13805TIP3   OH262905   5.560   5.714   1.614  0.1597 -0.7160  0.1147
13805TIP3    H162906   5.638   5.713   1.558  0.9581  3.2660  0.7922
13805TIP3    H262907   5.588   5.673   1.695  1.6143  0.5333  0.2979
13806TIP3   OH262908   3.424   4.580  10.233  0.2603 -0.3094 -0.1912
13806TIP3    H162909   3.339   4.542  10.210 -1.0435  1.2607  1.6608
13806TIP3    H262910   3.424   4.666  10.190  1.1700 -0.5007 -0.5984
13807TIP3   OH262911   2.951   5.773  14.353  0.4934  0.3336 -0.8832
13807TIP3    H162912   2.942   5.862  14.386 -0.0177 -0.0791  0.1132
13807TIP3    H262913   3.014   5.732  14.412  1.2361  0.2166 -1.7346
13808TIP3   OH262914   1.621   4.730   1.439 -0.3659  0.0365  0.3611
13808TIP3    H162915   1.577   4.808   1.404  0.3050 -0.6542 -2.2911
13808TIP3    H262916   1.686   4.764   1.500 -0.9432  1.4532  0.2243
13809TIP3   OH262917   5.403   0.247   5.571 -0.8943  0.0439  0.6985
13809TIP3    H162918   5.314   0.225   5.543 -0.5764 -0.1460 -0.2237
13809TIP3    H262919   5.455   0.240   5.490  0.1302 -0.7904  1.4096
13810TIP3   OH262920   1.687   4.325   2.234  0.0130 -0.2809 -0.1453
13810TIP3    H162921   1.744   4.364   2.300 -0.7244  1.4534 -0.4877
13810TIP3    H262922   1.741   4.322   2.154 -0.1655  0.8090 -0.3190
13811TIP3   OH262923   5.852   1.438   0.232  0.2691  0.4026 -0.5406
13811TIP3    H162924   5.783   1.491   0.271  0.4614  1.7605 -1.9634
13811TIP3    H262925   5.807   1.384   0.167  0.2943 -0.0549 -0.1813
13812TIP3   OH262926   6.355   2.621  12.330 -0.6212 -0.0323  0.4025
13812TIP3    H162927   6.372   2.675  12.407  0.3174  0.9732 -0.4682
13812TIP3    H262928   6.302   2.548  12.363  2.2324 -1.3100  2.5818
13813TIP3   OH262929   2.185   0.345  16.885 -0.2915 -0.2329  0.2867
13813TIP3    H162930   2.261   0.333  16.941  0.0160  1.6826  0.3385
13813TIP3    H262931   2.218   0.396  16.811 -1.3839  0.0996  0.0135
13814TIP3   OH262932   2.189   0.477  16.126  0.5460  0.5390  0.1781
13814TIP3    H162933   2.166   0.390  16.158  0.1863  0.6122  0.1178
13814TIP3    H262934   2.247   0.512  16.193 -0.1480  0.6609  0.7293
13815TIP3   OH262935   0.955   2.985   1.569 -0.4343  0.0288  0.5440
13815TIP3    H162936   0.895   3.020   1.503  0.4928  0.5875 -0.0375
13815TIP3    H262937   0.906   2.988   1.650 -1.9601 -1.6183 -0.2501
13816TIP3   OH262938   5.002   2.696  11.849  0.0859 -0.3949  0.4104
13816TIP3    H162939   5.035   2.642  11.920  0.7989  0.8203  1.0438
13816TIP3    H262940   5.080   2.733  11.809 -0.3590 -0.3047 -0.3859
13817TIP3   OH262941   5.434   3.281  13.380 -0.1417  0.2772 -0.0086
13817TIP3    H162942   5.384   3.361  13.371  1.3927  1.1289 -1.5472
13817TIP3    H262943   5.378   3.223  13.431 -1.1649  2.4203  1.4494
13818TIP3   OH262944   6.242   3.391  13.510 -0.2370 -1.0013 -0.9887
13818TIP3    H162945   6.302   3.462  13.487 -0.1780 -0.8416 -0.3662
13818TIP3    H262946   6.156   3.421  13.481 -0.4294 -0.0948  0.3967
13819TIP3   OH262947   0.766   0.364  12.796 -0.5298  0.5566 -0.4233
13819TIP3    H162948   0.707   0.400  12.862  0.0994  0.8501 -0.0065
13819TIP3    H262949   0.854   0.384  12.829 -0.2023  0.7316 -1.3599
13820TIP3   OH262950   2.769   5.335   3.908 -0.0033  0.8578  0.3785
13820TIP3    H162951   2.747   5.354   3.817 -0.9136 -0.1502  0.3669
13820TIP3    H262952   2.704   5.383   3.959 -1.2640 -0.7457  0.3887
13821TIP3   OH262953   6.800   3.591   4.382 -0.7024  0.3457 -0.0531
13821TIP3    H162954   6.775   3.530   4.451  1.7071 -0.2437  0.3924
13821TIP3    H262955   6.760   3.555   4.303 -0.0047 -1.4229  0.3435
13822TIP3   OH262956   5.825   5.650   0.435  0.4340  0.7436  0.2947
13822TIP3    H162957   5.860   5.686   0.517 -1.4260 -1.2323  2.0775
13822TIP3    H262958   5.860   5.561   0.432  0.9139  0.9648 -1.3927
13823TIP3   OH262959   3.059   0.074   2.350 -0.3441  0.5344 -0.3288
13823TIP3    H162960   2.978   0.029   2.324  0.2918 -0.2041 -1.0613
13823TIP3    H262961   3.064   0.062   2.445 -0.7627  0.0248 -0.3681
13824TIP3   OH262962   0.019   6.691  11.345  0.5488 -0.0257  0.2381
13824TIP3    H162963   0.086   6.758  11.361  1.0700 -0.7559  1.2653
13824TIP3    H262964   0.049   6.647  11.266  0.7602  0.2868  0.1409
13825TIP3   OH262965   6.642   0.669  15.208 -0.4151 -0.3090  0.9630
13825TIP3    H162966   6.633   0.746  15.264 -0.9210  0.7161 -0.4596
13825TIP3    H262967   6.552   0.649  15.180 -0.2129 -1.0169  0.7957
13826TIP3   OH262968   1.782   6.110  12.637 -0.0677  0.0695  0.2143
13826TIP3    H162969   1.821   6.022  12.635 -2.3907 -1.0440  0.1362
13826TIP3    H262970   1.731   6.111  12.718 -1.9631  0.4160 -0.9351
13827TIP3   OH262971   3.841   0.223  13.929  0.0126  0.1839 -0.3832
13827TIP3    H162972   3.830   0.313  13.898  0.3388  0.9297  1.5011
13827TIP3    H262973   3.936   0.211  13.935 -0.0211 -0.4235 -0.9595
13828TIP3   OH262974   5.831   6.191  14.339  0.3285 -0.4136  0.3112
13828TIP3    H162975   5.812   6.181  14.432 -1.4536 -1.1868 -0.0926
13828TIP3    H262976   5.751   6.229  14.303  1.0136 -0.0819 -0.9060
13829TIP3   OH262977   3.823   6.262   3.828  0.1474  0.6829 -0.3715
13829TIP3    H162978   3.797   6.173   3.805  0.7258 -0.2739  2.2392
13829TIP3    H262979   3.746   6.298   3.873  0.8926  0.3522  1.2404
13830TIP3   OH262980   6.293   4.958  13.576 -0.0819 -0.0350  0.5668
13830TIP3    H162981   6.266   5.029  13.635  1.5325  0.1807  1.0758
13830TIP3    H262982   6.385   4.976  13.557 -0.2180 -0.8261 -1.0049
13831TIP3   OH262983   5.660   2.515  14.541 -0.8662 -0.6287 -0.5525
13831TIP3    H162984   5.574   2.523  14.582 -0.7252 -2.4023  0.1830
13831TIP3    H262985   5.643   2.470  14.458 -0.5837 -1.8236  0.0119
13832TIP3   OH262986   2.706   3.538   4.191  0.2109  0.3973  0.3587
13832TIP3    H162987   2.735   3.548   4.281 -0.5875 -1.5804  0.8973
13832TIP3    H262988   2.763   3.471   4.154 -0.0894  0.4863 -0.2867
13833TIP3   OH262989   3.124   3.176   3.464 -0.3493  0.0612 -0.3201
13833TIP3    H162990   3.049   3.212   3.416 -1.3719 -0.9558  0.4782
13833TIP3    H262991   3.176   3.132   3.396 -2.1083 -1.9153 -0.4751
13834TIP3   OH262992   3.773   4.499  12.002 -0.6950  0.1861 -0.1832
13834TIP3    H162993   3.777   4.590  12.032 -0.4316  0.1191 -0.0169
13834TIP3    H262994   3.683   4.472  12.022 -0.6285  0.2561  0.2177
13835TIP3   OH262995   4.543   6.193   0.306  0.3495  0.1087  0.1477
13835TIP3    H162996   4.534   6.141   0.385  0.8276  0.6154  0.5438
13835TIP3    H262997   4.481   6.154   0.244 -0.2110 -0.1233  0.8504
13836TIP3   OH262998   1.436   2.658   5.770 -0.7131 -0.7000 -0.0361
13836TIP3    H162999   1.489   2.587   5.807 -1.1399 -0.4334  1.1410
13836TIP3    H263000   1.465   2.736   5.817 -1.4695 -0.3917 -0.0643
13837TIP3   OH263001   0.611   4.527  12.448  0.4198  0.3914  0.2234
13837TIP3    H163002   0.604   4.545  12.542 -0.1665 -1.3242  0.5542
13837TIP3    H263003   0.705   4.518  12.432  0.4893 -0.0401  0.8180
13838TIP3   OH263004   0.879   5.871   4.676  0.0989  0.0688  0.0720
13838TIP3    H163005   0.868   5.798   4.615 -2.9976  0.0527  0.4859
13838TIP3    H263006   0.794   5.879   4.719  1.3029  1.9183  2.3382
13839TIP3   OH263007   3.515   0.453   0.686  0.0827 -0.1870  0.1187
13839TIP3    H163008   3.603   0.489   0.691 -0.3047  0.7300  0.4046
13839TIP3    H263009   3.511   0.414   0.598  0.7993 -0.3199  0.1374
13840TIP3   OH263010   0.236   6.831  11.704 -0.2739 -1.2511 -0.4694
13840TIP3    H163011   0.152   6.819  11.748 -0.0047  0.5626  0.6746
13840TIP3    H263012   0.287   6.884  11.765  1.4891 -1.7864 -1.4076
13841TIP3   OH263013   1.513   4.430  14.409  0.1917 -0.0146 -0.0758
13841TIP3    H163014   1.439   4.453  14.465 -0.1604  0.6654 -0.8012
13841TIP3    H263015   1.587   4.423  14.468 -0.2257  0.4485  0.5106
13842TIP3   OH263016   4.731   3.452   4.873  0.0171 -0.3060 -0.5384
13842TIP3    H163017   4.817   3.475   4.838 -0.3330 -0.0094 -1.2337
13842TIP3    H263018   4.671   3.465   4.799 -0.5683 -0.8786 -0.1764
13843TIP3   OH263019   1.155   6.785  13.561  0.4992  0.7079 -0.3544
13843TIP3    H163020   1.073   6.832  13.547 -1.3895 -1.1177  3.0363
13843TIP3    H263021   1.185   6.814  13.647  2.9396  0.5849 -1.0834
13844TIP3   OH263022   3.789   4.803   0.258 -0.6174 -0.3687 -0.1174
13844TIP3    H163023   3.853   4.827   0.190 -1.2665  0.8921 -0.3082
13844TIP3    H263024   3.830   4.832   0.340 -1.0109  0.6058 -0.2579
13845TIP3   OH263025   1.661   5.786   1.996 -0.2101 -0.0142 -0.7078
13845TIP3    H163026   1.697   5.742   2.073  0.7063  1.1290 -0.4535
13845TIP3    H263027   1.618   5.716   1.947 -0.6104 -0.8117  0.7103
13846TIP3   OH263028   5.302   0.807  11.689 -0.2807 -0.2684  0.0392
13846TIP3    H163029   5.387   0.805  11.732 -0.0887  0.7234 -0.2710
13846TIP3    H263030   5.253   0.875  11.734 -0.3722  0.1988 -0.7369
13847TIP3   OH263031   3.388   3.542   3.431  0.0072  0.4820 -0.2588
13847TIP3    H163032   3.311   3.492   3.404 -0.5659  0.7592  0.8181
13847TIP3    H263033   3.434   3.485   3.492 -2.9307  2.6106  4.5501
13848TIP3   OH263034   4.414   0.742   5.383 -0.1338 -0.2188  0.1861
13848TIP3    H163035   4.412   0.705   5.471  1.3507 -2.1791 -0.5320
13848TIP3    H263036   4.324   0.734   5.352 -0.5072 -0.2347  1.2327
13849TIP3   OH263037   6.839   4.212   1.824  0.0451 -0.0975  0.0064
13849TIP3    H163038   6.781   4.173   1.889  1.4571 -1.3231  0.5968
13849TIP3    H263039   6.865   4.296   1.861  1.4913 -1.1443  1.4724
13850TIP3   OH263040   5.366   1.958  17.034  0.2798  0.2449 -0.1316
13850TIP3    H163041   5.292   1.978  17.092  0.8496 -0.9662  1.0587
13850TIP3    H263042   5.350   2.012  16.956 -0.8829  1.3950  0.8493
13851TIP3   OH263043   0.169   6.572  14.007 -0.1451  0.1150  0.1498
13851TIP3    H163044   0.234   6.563  14.076  1.6125  3.4043 -0.8782
13851TIP3    H263045   0.113   6.644  14.035 -1.2771 -0.4685 -0.5260
13852TIP3   OH263046   1.693   1.022  13.624  0.1100 -0.1867 -0.2115
13852TIP3    H163047   1.718   1.091  13.686  0.1978 -0.3823 -0.0268
13852TIP3    H263048   1.607   1.048  13.591  0.1933  0.0681 -0.2267
13853TIP3   OH263049   6.586   6.114  16.272 -0.3162  0.3343  0.0438
13853TIP3    H163050   6.635   6.109  16.190 -0.0510 -0.0376  0.2210
13853TIP3    H263051   6.638   6.063  16.334 -0.4206  0.7599  0.4917
13854TIP3   OH263052   1.293   2.611  12.687  0.2115 -0.4048  0.1084
13854TIP3    H163053   1.231   2.576  12.624 -0.6113 -0.8987  1.1580
13854TIP3    H263054   1.346   2.535  12.713  1.1812 -0.0219 -0.6571
13855TIP3   OH263055   4.118   4.744   3.503 -0.0723  0.3443  0.3501
13855TIP3    H163056   4.200   4.733   3.454 -1.5322  0.0136 -2.1618
13855TIP3    H263057   4.147   4.764   3.592  2.7538  1.7294 -0.7487
13856TIP3   OH263058   0.040   3.646   3.026  0.0126 -0.1438 -0.3290
13856TIP3    H163059  -0.055   3.630   3.030  0.1216 -0.9667 -0.7972
13856TIP3    H263060   0.059   3.693   3.107 -0.8963  0.6164 -0.5388
13857TIP3   OH263061   4.829   1.850  15.489 -0.3287  0.0467 -0.0139
13857TIP3    H163062   4.880   1.781  15.530 -0.2529 -0.4589 -0.9495
13857TIP3    H263063   4.892   1.920  15.472 -0.0921 -0.2753 -0.4759
13858TIP3   OH263064   0.860   4.511  13.669  0.0938 -0.2797  0.0642
13858TIP3    H163065   0.928   4.577  13.684 -0.0419 -0.4208  1.4967
13858TIP3    H263066   0.814   4.540  13.591  1.2131  0.3159 -0.3952
13859TIP3   OH263067   4.100   5.643   5.151 -0.1724 -0.4942  0.2815
13859TIP3    H163068   4.058   5.683   5.075  0.7595  1.2940  0.6702
13859TIP3    H263069   4.027   5.607   5.201 -0.9948  0.1817 -0.3902
13860TIP3   OH263070   5.223   2.987   5.996  0.6076 -0.5248  0.3052
13860TIP3    H163071   5.184   3.033   5.922  0.3636 -1.3188 -0.0681
13860TIP3    H263072   5.255   3.056   6.054 -0.6202  0.1305  0.2283
13861TIP3   OH263073   5.470   6.155   6.022 -0.0412  0.1346 -0.3607
13861TIP3    H163074   5.497   6.077   6.070  1.6098  0.5308 -0.5829
13861TIP3    H263075   5.447   6.219   6.089 -1.0858 -0.4223 -0.1736
13862TIP3   OH263076   2.765   2.894   3.171 -0.4167  0.5170 -0.3895
13862TIP3    H163077   2.855   2.898   3.205 -0.3187  0.7202 -0.6730
13862TIP3    H263078   2.710   2.905   3.249 -0.1801  2.5777 -0.4726
13863TIP3   OH263079   5.705   3.058  12.146  0.1785 -0.1818  0.1637
13863TIP3    H163080   5.692   2.975  12.190 -2.1888  0.2364  0.3707
13863TIP3    H263081   5.800   3.067  12.139  0.5524 -1.7829  2.2420
13864TIP3   OH263082   4.549   6.361  12.258 -0.3376 -0.0554  0.2417
13864TIP3    H163083   4.643   6.352  12.273 -0.5879 -1.0885  1.2951
13864TIP3    H263084   4.542   6.420  12.182  1.1514 -0.0765  0.0719
13865TIP3   OH263085   1.735   2.327   0.351 -0.2718  0.1643 -0.0488
13865TIP3    H163086   1.768   2.322   0.262 -1.7470 -0.9793 -0.5767
13865TIP3    H263087   1.813   2.320   0.406  0.5157 -0.7547 -1.2297
13866TIP3   OH263088   6.773   4.599  13.796  0.5370  0.6751  0.3681
13866TIP3    H163089   6.819   4.519  13.768  0.4914  1.1534 -1.1767
13866TIP3    H263090   6.779   4.598  13.891  0.9179 -0.9495  0.3565
13867TIP3   OH263091   0.931   2.869  15.802  0.2431 -0.1083 -0.0011
13867TIP3    H163092   0.905   2.937  15.741 -0.0643  1.1662  1.4734
13867TIP3    H263093   1.013   2.835  15.768  0.7518  1.4934 -0.4177
13868TIP3   OH263094   3.911   3.824   3.108 -0.1462 -0.4960 -0.2353
13868TIP3    H163095   3.908   3.802   3.201  1.6605  2.6675  0.7347
13868TIP3    H263096   3.980   3.767   3.073  0.6067 -0.3150  0.8717
13869TIP3   OH263097   6.822   0.609   0.830  0.6901 -0.2580 -0.2198
13869TIP3    H163098   6.750   0.548   0.814  1.2031 -0.8461 -0.3380
13869TIP3    H263099   6.895   0.575   0.778  1.5518 -0.6184  1.1537
13870TIP3   OH263100   0.535   5.831   0.702 -0.4669 -0.5793  0.0402
13870TIP3    H163101   0.623   5.863   0.682 -0.2201  0.3007  2.2249
13870TIP3    H263102   0.492   5.823   0.617  0.9715  1.2254 -0.9199
13871TIP3   OH263103   2.966   5.381  11.125 -0.3855  0.1383 -0.1797
13871TIP3    H163104   2.999   5.400  11.037  1.3993 -1.1893  0.1551
13871TIP3    H263105   2.883   5.336  11.111  0.9733 -2.1431 -1.3130
13872TIP3   OH263106   2.096   5.152   3.474 -0.0907 -0.3305  0.0074
13872TIP3    H163107   2.037   5.176   3.402  0.7760 -0.1993 -0.6654
13872TIP3    H263108   2.081   5.220   3.540 -0.8623 -0.4318 -0.0479
13873TIP3   OH263109   5.311   3.641  11.550 -0.4331 -0.2243  0.4418
13873TIP3    H163110   5.335   3.561  11.503  2.0764  0.1971  0.8883
13873TIP3    H263111   5.226   3.667  11.512 -0.8400 -2.5304 -0.3798
13874TIP3   OH263112   0.451   2.836   4.649 -0.3844  0.5076  0.1399
13874TIP3    H163113   0.527   2.781   4.663  0.8309  2.0147 -0.2898
13874TIP3    H263114   0.438   2.882   4.732 -1.5028 -0.4980  0.5559
13875TIP3   OH263115   6.221   4.593  12.778 -0.0088  0.4289 -0.1523
13875TIP3    H163116   6.196   4.681  12.806 -1.0608 -0.1980  0.9798
13875TIP3    H263117   6.234   4.545  12.860  0.3633 -0.5307 -0.7571
13876TIP3   OH263118   3.902   4.946   1.330  0.0720  0.7111  0.0714
13876TIP3    H163119   3.979   4.946   1.386 -0.5629  2.1874  0.9998
13876TIP3    H263120   3.933   4.913   1.245  1.4547  0.2504  0.7458
13877TIP3   OH263121   2.671   2.707   1.262  0.6097 -0.4212 -0.1307
13877TIP3    H163122   2.767   2.703   1.271  0.7725  3.3802  1.5587
13877TIP3    H263123   2.639   2.660   1.339  1.4405  3.3539  2.8322
13878TIP3   OH263124   2.853   4.872   1.759 -0.1992  0.0719  0.0102
13878TIP3    H163125   2.864   4.943   1.696  3.2112 -0.4510 -0.1796
13878TIP3    H263126   2.892   4.906   1.840  0.3240 -1.0936  0.2728
13879TIP3   OH263127   3.582   3.023   2.045  0.2060  0.1381  0.2262
13879TIP3    H163128   3.641   3.024   1.970  1.3552 -1.0064  1.0561
13879TIP3    H263129   3.507   2.971   2.016 -0.4723  1.6650 -0.8621
13880TIP3   OH263130   1.192   4.421   1.268 -0.1767  0.3042 -0.7601
13880TIP3    H163131   1.261   4.484   1.288  0.8367  0.3754 -3.8216
13880TIP3    H263132   1.229   4.336   1.292 -0.5928  0.6253  1.1410
13881TIP3   OH263133   3.182   1.797   0.010 -0.1342  0.7840 -0.0625
13881TIP3    H163134   3.214   1.731   0.072  0.5375  1.6542  0.5410
13881TIP3    H263135   3.087   1.794   0.018 -0.2164 -1.2103 -1.2075
13882TIP3   OH263136   6.231   0.007  12.949  0.4228 -0.5514 -0.4488
13882TIP3    H163137   6.190  -0.050  13.014  0.2431  2.2838  2.1814
13882TIP3    H263138   6.324   0.001  12.968  0.3818  0.1843  0.0080
13883TIP3   OH263139   1.292   5.647   1.031  0.0967 -1.0668  0.4101
13883TIP3    H163140   1.276   5.553   1.027  1.8007 -1.4721  1.5900
13883TIP3    H263141   1.332   5.669   0.947  1.7379 -1.8887  0.9341
13884TIP3   OH263142   4.054   5.630   3.556 -0.9437  0.1806 -0.3410
13884TIP3    H163143   4.020   5.622   3.646 -0.4576 -1.2899 -0.2678
13884TIP3    H263144   4.146   5.653   3.567 -0.8760 -0.0345 -0.4695
13885TIP3   OH263145   6.638   3.475   3.581  0.2753 -0.1885 -0.3563
13885TIP3    H163146   6.643   3.512   3.493 -0.8346 -1.1812 -0.8704
13885TIP3    H263147   6.729   3.456   3.605  0.5277 -0.6655 -1.6285
13886TIP3   OH263148   2.363   3.332  11.035 -0.4623 -0.4214  0.1639
13886TIP3    H163149   2.379   3.329  10.941  0.1720 -1.1890  0.2857
13886TIP3    H263150   2.285   3.279  11.048  0.3274 -1.6237  0.2244
13887TIP3   OH263151   1.228   6.347  16.446 -0.3109  0.4093 -0.4491
13887TIP3    H163152   1.276   6.311  16.521 -0.4422  0.6477 -0.2527
13887TIP3    H263153   1.205   6.271  16.394 -3.5135 -0.2452  1.6115
13888TIP3   OH263154   3.023   5.628   4.228  0.3111 -0.4016 -0.2157
13888TIP3    H163155   2.942   5.576   4.231  0.4442 -0.7554 -1.7061
13888TIP3    H263156   3.061   5.619   4.315 -0.5752 -1.3604  0.0926
13889TIP3   OH263157   0.134   1.988  13.153 -0.2455  0.2639  0.1434
13889TIP3    H163158   0.135   2.031  13.067 -1.0730  1.7361  0.8398
13889TIP3    H263159   0.132   1.894  13.132  0.2083  0.5686 -1.4285
13890TIP3   OH263160   3.156   4.917   5.896  0.2748  0.0650  0.1022
13890TIP3    H163161   3.063   4.902   5.915  0.0751 -0.2860 -1.0303
13890TIP3    H263162   3.202   4.848   5.944 -0.0565  0.1456  0.5435
13891TIP3   OH263163   5.654   2.543  11.891  0.7597 -0.1041 -0.2786
13891TIP3    H163164   5.727   2.504  11.940  0.3233  0.8880  1.2222
13891TIP3    H263165   5.671   2.637  11.893 -0.6436  0.1651  0.2875
13892TIP3   OH263166   4.830   3.498  14.300 -0.2940  0.9314  0.2537
13892TIP3    H163167   4.917   3.461  14.282 -0.7154  0.0925 -0.1052
13892TIP3    H263168   4.783   3.487  14.217 -1.6073 -1.0839  1.1940
13893TIP3   OH263169   3.055   3.841   2.232  0.5917  0.0916  0.2388
13893TIP3    H163170   3.045   3.751   2.199 -0.1763  0.0626  0.5176
13893TIP3    H263171   3.027   3.836   2.323  0.8285  0.5594  0.3397
13894TIP3   OH263172   6.734   3.384   4.563  0.7413  0.5947 -0.1104
13894TIP3    H163173   6.818   3.369   4.607  0.6866 -0.4831 -0.3498
13894TIP3    H263174   6.671   3.393   4.635  0.6290 -1.2826  0.0930
13895TIP3   OH263175   1.333   3.767  14.335  0.1446  0.7392 -0.0946
13895TIP3    H163176   1.388   3.845  14.336  0.3204  0.6228  1.1835
13895TIP3    H263177   1.396   3.694  14.332 -0.0290  0.6092 -3.0642
13896TIP3   OH263178   4.839   0.623   1.372  0.0007 -0.1084 -0.0687
13896TIP3    H163179   4.880   0.615   1.285 -1.4849 -1.2152 -0.7048
13896TIP3    H263180   4.767   0.685   1.358 -0.9353 -1.1365  0.0845
13897TIP3   OH263181   5.377   5.752  15.327 -0.0329  0.0880  0.0062
13897TIP3    H163182   5.382   5.844  15.301  0.8093  0.2605  0.7116
13897TIP3    H263183   5.406   5.704  15.249 -1.1877  0.3618 -0.6120
13898TIP3   OH263184   0.084   2.130   3.656  0.4901 -1.0691  0.0755
13898TIP3    H163185   0.025   2.061   3.626  0.5866 -1.1636  0.1002
13898TIP3    H263186   0.055   2.149   3.745 -0.1018 -0.4452 -0.2518
13899TIP3   OH263187   6.087   0.598  11.575  0.2080  0.0801 -0.1645
13899TIP3    H163188   6.067   0.522  11.630  0.4872 -1.4812 -2.0851
13899TIP3    H263189   6.181   0.610  11.584  0.4931 -1.0637 -1.2930
13900TIP3   OH263190   2.147   2.487  15.467 -0.1917  0.2348 -0.6746
13900TIP3    H163191   2.214   2.468  15.401  0.6300 -0.8611  0.4291
13900TIP3    H263192   2.192   2.542  15.532  0.1424 -1.7541  0.8575
13901TIP3   OH263193   3.249   3.955  14.499  0.0724  0.0578  0.5563
13901TIP3    H163194   3.291   4.032  14.461  0.6476  0.1708  1.3810
13901TIP3    H263195   3.315   3.886  14.493  0.3819  0.2130  1.7823
13902TIP3   OH263196   3.675   1.227  11.412 -0.2689 -0.1673 -0.1376
13902TIP3    H163197   3.684   1.245  11.318  0.6558  0.5237  0.0603
13902TIP3    H263198   3.629   1.304  11.446 -1.6858 -0.9613 -0.1942
13903TIP3   OH263199   1.350   4.607  14.851  0.1663 -0.4777 -0.1269
13903TIP3    H163200   1.274   4.590  14.907 -0.9279  2.1580 -0.6654
13903TIP3    H263201   1.411   4.655  14.907  0.2164 -0.1437 -0.4653
13904TIP3   OH263202   2.199   6.144   3.854  0.5681  0.5929  0.2694
13904TIP3    H163203   2.173   6.231   3.823  0.1961  1.2893  2.4238
13904TIP3    H263204   2.120   6.091   3.843  0.4188  0.8436  0.1070
13905TIP3   OH263205   3.488   4.885  16.946 -0.4536  0.3356  0.8063
13905TIP3    H163206   3.548   4.955  16.975 -1.1577  1.1742  0.2892
13905TIP3    H263207   3.406   4.903  16.992 -0.8816  0.3276  0.0649
13906TIP3   OH263208   1.501   6.720   5.559  0.0076  0.0022  0.3947
13906TIP3    H163209   1.499   6.804   5.605  0.9835 -0.0716  0.5929
13906TIP3    H263210   1.544   6.738   5.476  0.1055 -0.2749  0.3818
13907TIP3   OH263211   4.069   3.236  11.798 -0.6953 -0.5511 -0.2875
13907TIP3    H163212   4.097   3.208  11.885 -0.8843  0.8023  0.2262
13907TIP3    H263213   4.096   3.165  11.740  3.5212  0.4617  0.1661
13908TIP3   OH263214   4.242   2.166   4.565 -0.1468  0.1271  0.1018
13908TIP3    H163215   4.245   2.215   4.646  0.6665  1.6026 -0.7867
13908TIP3    H263216   4.162   2.113   4.572 -0.2526  0.4472  1.7015
13909TIP3   OH263217   2.854   4.613   2.948 -0.2994 -0.4454 -1.1139
13909TIP3    H163218   2.900   4.565   2.880 -1.1128 -0.4536 -1.6799
13909TIP3    H263219   2.796   4.548   2.988 -1.8411  0.1422 -2.2807
13910TIP3   OH263220   0.245   2.329   2.770 -0.4841  0.2765  0.1326
13910TIP3    H163221   0.306   2.272   2.816 -0.0675 -0.1525 -0.9236
13910TIP3    H263222   0.299   2.377   2.707 -1.1233  0.3812 -0.3511
13911TIP3   OH263223   0.169   4.653   2.828  0.3025 -0.1204 -0.3898
13911TIP3    H163224   0.080   4.637   2.797  0.2384 -1.7074  0.5086
13911TIP3    H263225   0.174   4.748   2.837 -1.1003  0.0430 -1.0204
13912TIP3   OH263226   1.587   3.272   4.918 -0.2152 -0.5388  0.8384
13912TIP3    H163227   1.682   3.264   4.917 -0.2152 -2.2120  3.5608
13912TIP3    H263228   1.570   3.345   4.979 -0.6991 -0.1860  0.2949
13913TIP3   OH263229   1.504   5.766   5.510  0.1264 -0.0177  0.3187
13913TIP3    H163230   1.495   5.710   5.433  0.0900 -0.6330  0.7578
13913TIP3    H263231   1.566   5.834   5.483  0.0028 -0.1425 -0.2951
13914TIP3   OH263232   5.610   1.786   0.475  0.5084  0.4015  0.6211
13914TIP3    H163233   5.543   1.806   0.410  0.2269 -2.6975 -0.2286
13914TIP3    H263234   5.692   1.816   0.435 -0.0593  1.9161  0.5408
13915TIP3   OH263235   2.870   4.986  14.573  0.1585 -0.2240  0.3933
13915TIP3    H163236   2.897   5.076  14.551 -1.4256  1.2791  3.8394
13915TIP3    H263237   2.952   4.937  14.581  1.3469  1.8336  1.7407
13916TIP3   OH263238   1.013   3.918   1.656  0.1712  0.3873  0.5612
13916TIP3    H163239   1.106   3.934   1.672  0.4105 -1.7487  1.5999
13916TIP3    H263240   0.985   3.863   1.729 -0.8230 -2.7041 -1.9210
13917TIP3   OH263241   4.725   6.208   1.563  0.1832 -0.0615  0.0821
13917TIP3    H163242   4.787   6.248   1.624 -0.0351  2.2496 -1.1014
13917TIP3    H263243   4.639   6.229   1.599  0.0276 -2.0535  0.9778
13918TIP3   OH263244   5.670   5.885  12.947  0.1701  0.4752 -0.8358
13918TIP3    H163245   5.708   5.973  12.941  1.3691 -0.0136 -0.6426
13918TIP3    H263246   5.675   5.863  13.040 -2.2595  1.0887 -0.5020
13919TIP3   OH263247   4.756   4.428  15.214  0.0166 -0.5961 -0.7772
13919TIP3    H163248   4.844   4.398  15.191 -0.3672 -0.2421 -2.8889
13919TIP3    H263249   4.702   4.348  15.212  0.1201 -0.6841 -0.2822
13920TIP3   OH263250   2.701   6.204   0.487  0.1240  0.2934 -0.0738
13920TIP3    H163251   2.721   6.276   0.546 -2.2056  1.3064 -0.4276
13920TIP3    H263252   2.617   6.171   0.517 -0.0542 -0.6187 -1.4893
13921TIP3   OH263253   1.443   1.643   3.053 -0.4447 -0.4679 -0.1687
13921TIP3    H163254   1.417   1.606   2.969 -2.6040  1.1221 -0.2619
13921TIP3    H263255   1.403   1.730   3.055 -1.8089 -1.0306  3.1338
13922TIP3   OH263256   0.787   5.340  16.999  0.1213 -0.4277  0.4325
13922TIP3    H163257   0.777   5.433  17.020 -0.0927 -0.5752  1.0129
13922TIP3    H263258   0.707   5.317  16.952  0.9738  0.1124 -1.3995
13923TIP3   OH263259   2.619   3.502  10.630  0.0395 -0.2073 -0.0099
13923TIP3    H163260   2.597   3.590  10.600  1.2115 -0.1385 -0.7230
13923TIP3    H263261   2.671   3.464  10.559 -1.2324 -1.8353 -0.1323
13924TIP3   OH263262   0.081   3.516   0.191 -0.2706  0.2171  0.2499
13924TIP3    H163263   0.169   3.521   0.228  0.4265 -0.9572 -1.1421
13924TIP3    H263264   0.082   3.577   0.118 -1.2641  1.6283  1.3416
13925TIP3   OH263265   3.255   2.288  11.304 -0.1001 -0.1742 -0.6328
13925TIP3    H163266   3.190   2.289  11.233 -0.5375  1.8215 -0.2792
13925TIP3    H263267   3.257   2.379  11.336  0.8971 -0.7702  1.1718
13926TIP3   OH263268   1.056   4.653  16.707 -0.1253 -0.2202 -0.7231
13926TIP3    H163269   1.008   4.736  16.701  0.9976  0.6520  1.1941
13926TIP3    H263270   1.025   4.613  16.789  1.0571 -0.5169 -0.4003
13927TIP3   OH263271   6.211   3.369  11.764 -0.1174  0.3298 -0.5526
13927TIP3    H163272   6.173   3.303  11.705  1.1203 -0.7816 -0.1632
13927TIP3    H263273   6.305   3.367  11.745  0.2208  0.4360  0.9634
13928TIP3   OH263274   0.549   1.588  13.509  0.3143  0.3337 -0.2326
13928TIP3    H163275   0.515   1.649  13.444  0.0174  0.6152  0.1808
13928TIP3    H263276   0.644   1.592  13.498  0.3657  1.5721  0.3910
13929TIP3   OH263277   2.675   6.252  16.795 -0.5854 -0.1250 -0.3205
13929TIP3    H163278   2.690   6.320  16.861 -0.2115 -1.6631  1.2550
13929TIP3    H263279   2.641   6.299  16.719  2.3858  2.2476 -0.3981
13930TIP3   OH263280   2.990   6.493  16.256 -0.6705  0.0555  0.2281
13930TIP3    H163281   3.069   6.522  16.211 -0.7294  0.8247  0.6056
13930TIP3    H263282   3.022   6.435  16.325 -0.4451  0.2818  0.3145
13931TIP3   OH263283   0.492   4.691  13.857  0.6262 -0.3808  0.0708
13931TIP3    H163284   0.436   4.651  13.924  1.8540 -1.1262  0.6733
13931TIP3    H263285   0.575   4.644  13.863  1.5942  1.2023 -0.2808
13932TIP3   OH263286   6.607   1.616  11.882  0.0826 -0.1729 -0.1793
13932TIP3    H163287   6.677   1.680  11.868 -0.6053  0.7673  0.5278
13932TIP3    H263288   6.536   1.646  11.825 -0.2841 -0.2402  0.2376
13933TIP3   OH263289   0.023   0.121   3.049  0.4168  0.3409 -0.2192
13933TIP3    H163290   0.010   0.027   3.034  0.6576  0.4350 -1.0604
13933TIP3    H263291   0.045   0.127   3.142  1.3245 -0.5387 -0.3541
13934TIP3   OH263292   6.191   3.247  14.539 -0.5538 -0.7572 -0.8800
13934TIP3    H163293   6.143   3.252  14.456 -1.3597 -0.9578 -0.4280
13934TIP3    H263294   6.254   3.176  14.525  1.4990  1.2072 -2.4205
13935TIP3   OH263295   4.023   3.807   1.681  0.2272  0.2162 -0.4182
13935TIP3    H163296   3.977   3.745   1.623  2.4246 -0.5105 -1.5016
13935TIP3    H263297   4.046   3.756   1.758 -1.0677  0.6952  0.3228
13936TIP3   OH263298   2.662   1.620   2.006 -0.2444 -0.5094 -0.0084
13936TIP3    H163299   2.575   1.627   2.045 -0.0494  1.6474  0.1272
13936TIP3    H263300   2.646   1.594   1.915 -0.9542 -1.0704  0.2666
13937TIP3   OH263301   3.154   0.180  15.464  0.0919  0.3552 -0.4366
13937TIP3    H163302   3.227   0.241  15.476 -0.0901  0.2630  1.3427
13937TIP3    H263303   3.096   0.197  15.538  0.8575 -3.1207  1.1553
13938TIP3   OH263304   6.731   1.586  11.194  0.1636 -0.2128  0.0508
13938TIP3    H163305   6.670   1.545  11.132  0.1189 -1.5822  0.9538
13938TIP3    H263306   6.796   1.628  11.139 -1.4292  1.0849 -0.9493
13939TIP3   OH263307   5.972   1.952  13.609 -0.1623 -0.4093  0.1872
13939TIP3    H163308   6.054   1.973  13.564 -0.8735  0.1918 -0.8699
13939TIP3    H263309   5.994   1.957  13.702  1.2793 -1.3872 -0.0443
13940TIP3   OH263310   4.525   3.535   5.466 -0.0073  0.3467 -0.4557
13940TIP3    H163311   4.533   3.615   5.518  0.3907 -0.0818  0.1595
13940TIP3    H263312   4.519   3.465   5.532 -1.9416 -0.0008 -0.9398
13941TIP3   OH263313   2.725   5.668  14.124 -0.1039 -1.2513 -0.4271
13941TIP3    H163314   2.786   5.728  14.081 -0.3959 -2.3823 -2.5159
13941TIP3    H263315   2.642   5.716  14.125  0.2436 -0.6261  0.3255
13942TIP3   OH263316   0.551   1.776  15.475  0.1745  0.7594  0.0444
13942TIP3    H163317   0.479   1.837  15.491  0.3897  0.6463  1.5657
13942TIP3    H263318   0.562   1.729  15.557  2.3710  1.1628  0.0431
13943TIP3   OH263319   4.744   4.696   3.026  0.3830  0.4494  0.3735
13943TIP3    H163320   4.712   4.672   3.113 -0.5403 -0.0294 -0.0786
13943TIP3    H263321   4.828   4.737   3.042  0.9469 -1.0034  1.3918
13944TIP3   OH263322   3.423   1.269  12.953 -0.2535 -0.8148 -0.1324
13944TIP3    H163323   3.519   1.263  12.949 -0.2943 -0.8919 -1.6976
13944TIP3    H263324   3.398   1.307  12.869 -1.5606 -0.0149  0.5897
13945TIP3   OH263325   2.763   1.023   2.396  0.1543  0.5612  0.3421
13945TIP3    H163326   2.814   1.036   2.315 -0.5679  0.7574 -0.0930
13945TIP3    H263327   2.792   1.094   2.453 -0.1731  1.1460 -0.1928
13946TIP3   OH263328   2.986   3.422  15.486 -0.3105 -0.4545 -0.5786
13946TIP3    H163329   3.022   3.509  15.502 -1.0789 -0.0789 -0.8372
13946TIP3    H263330   3.021   3.368  15.557 -1.0527  0.4258  0.4957
13947TIP3   OH263331   4.292   3.912   0.570 -0.1046  0.3356 -0.2936
13947TIP3    H163332   4.334   3.858   0.637 -0.4759  1.5115  0.9296
13947TIP3    H263333   4.347   3.990   0.564 -0.7452  0.7845 -0.4674
13948TIP3   OH263334   0.247   3.497  12.859 -0.4447  0.2012  0.1735
13948TIP3    H163335   0.178   3.466  12.917 -2.4147 -0.2824 -2.2686
13948TIP3    H263336   0.292   3.417  12.831  0.0778  0.3727  0.5063
13949TIP3   OH263337   4.086   0.690  12.880 -0.0041  0.1751  0.2700
13949TIP3    H163338   4.037   0.611  12.859 -0.3184  0.5482 -0.4518
13949TIP3    H263339   4.158   0.691  12.817 -1.5866  1.8798 -1.6656
13950TIP3   OH263340   2.596   0.209  14.125 -0.2917  0.2212 -0.5327
13950TIP3    H163341   2.678   0.237  14.084 -1.2126  0.7482 -2.0850
13950TIP3    H263342   2.612   0.221  14.219  1.8187 -0.8480 -0.6865
13951TIP3   OH263343   4.717   3.013   1.055  0.0685  0.0748  0.0563
13951TIP3    H163344   4.766   2.934   1.033 -1.5946 -1.0089  0.0599
13951TIP3    H263345   4.667   3.034   0.977 -0.4818  0.3776  0.4785
13952TIP3   OH263346   4.867   0.506  13.492 -0.1802 -0.5874  0.4463
13952TIP3    H163347   4.864   0.582  13.433 -0.0651 -1.4815 -0.7295
13952TIP3    H263348   4.852   0.544  13.579  0.5894  0.8919 -0.0192
13953TIP3   OH263349   4.863   5.044   0.734  0.1171  0.3160  0.2340
13953TIP3    H163350   4.834   5.127   0.696  2.4304  1.5015  0.8932
13953TIP3    H263351   4.826   5.043   0.822 -1.7683 -0.4709 -0.5098
13954TIP3   OH263352   4.533   6.665  14.188 -0.0505  0.3586  0.0794
13954TIP3    H163353   4.528   6.594  14.252  2.7360  0.7709  0.9075
13954TIP3    H263354   4.590   6.631  14.119  0.6543  1.4707  0.0869
13955TIP3   OH263355   5.716   4.851  13.839  0.3345 -0.2780  0.4203
13955TIP3    H163356   5.639   4.845  13.782  0.1197  0.8477  0.5729
13955TIP3    H263357   5.777   4.787  13.803 -0.0873 -0.1176 -0.6210
13956TIP3   OH263358   4.228   1.925  13.540  0.1987  0.0758  0.3351
13956TIP3    H163359   4.191   1.955  13.457 -2.1223 -0.3733  1.1488
13956TIP3    H263360   4.323   1.927  13.525 -0.0609  1.9103 -1.6424
13957TIP3   OH263361   2.975   2.679   2.320  0.0942 -0.1196 -0.0891
13957TIP3    H163362   2.912   2.732   2.368 -2.3837 -3.8016  1.2425
13957TIP3    H263363   2.924   2.641   2.248  1.0901 -2.1024  0.1739
13958TIP3   OH263364   1.548   5.083  10.870  0.6280 -0.2605 -0.2604
13958TIP3    H163365   1.530   5.148  10.802  0.6753 -0.7631 -0.7588
13958TIP3    H263366   1.641   5.062  10.859  1.0612  0.8321  1.0032
13959TIP3   OH263367   2.107   1.365  15.568  0.0835 -0.1546  0.6899
13959TIP3    H163368   2.145   1.279  15.549  1.3616 -0.5061  4.2493
13959TIP3    H263369   2.012   1.351  15.560  0.3383 -1.0208 -1.6803
13960TIP3   OH263370   0.553   5.192  16.811 -0.2116  0.0715 -0.3562
13960TIP3    H163371   0.489   5.142  16.760 -0.3785  0.5178 -0.5864
13960TIP3    H263372   0.536   5.283  16.789  2.5266  0.1186 -2.9601
13961TIP3   OH263373   3.110   2.063   2.049  0.0268  0.1323 -0.7765
13961TIP3    H163374   3.138   2.146   2.087  2.6284  0.0540 -2.3091
13961TIP3    H263375   3.051   2.025   2.114  1.9749  1.3144  1.8267
13962TIP3   OH263376   4.907   0.276   3.885  0.3891 -0.5246 -0.5939
13962TIP3    H163377   4.953   0.244   3.963 -0.8953  0.6322  0.7142
13962TIP3    H263378   4.830   0.219   3.878 -0.8265  0.8876  0.5386
13963TIP3   OH263379   0.244   3.377  15.691 -0.2392 -0.1911  0.4757
13963TIP3    H163380   0.291   3.354  15.771 -0.2012  0.6426  0.7014
13963TIP3    H263381   0.288   3.327  15.623 -0.2863 -0.9296  0.9686
13964TIP3   OH263382   5.761   4.119  12.469  0.2078  0.1654  0.1730
13964TIP3    H163383   5.851   4.114  12.502 -0.2740 -1.2166  1.3640
13964TIP3    H263384   5.719   4.039  12.501 -1.5503  0.9426 -0.0772
13965TIP3   OH263385   5.087   1.189   6.706  1.0989 -0.2359 -0.8639
13965TIP3    H163386   5.024   1.201   6.777  2.9203 -0.0230  0.8027
13965TIP3    H263387   5.069   1.260   6.646 -0.4995 -0.4238 -0.6490
13966TIP3   OH263388   1.247   4.833  14.715  0.2827  0.0977  0.5656
13966TIP3    H163389   1.275   4.744  14.739  0.4361  0.1681  0.6499
13966TIP3    H263390   1.228   4.828  14.621  0.6938  0.0783  0.4841
13967TIP3   OH263391   3.573   1.265   3.384 -0.0752  0.2772  0.0866
13967TIP3    H163392   3.597   1.268   3.291 -0.4116 -0.5784 -0.0332
13967TIP3    H263393   3.480   1.291   3.385  0.0725  0.8232  0.2521
13968TIP3   OH263394   2.834   0.700   1.060 -0.0319 -0.4198 -0.0138
13968TIP3    H163395   2.786   0.694   1.142 -1.1627 -2.7685 -0.7572
13968TIP3    H263396   2.844   0.794   1.045 -3.5439  0.2080  0.7126
13969TIP3   OH263397   3.202   1.494  17.105 -0.1026 -0.2186 -0.0250
13969TIP3    H163398   3.268   1.522  17.169  0.6404 -0.3884 -0.6894
13969TIP3    H263399   3.119   1.498  17.152  0.2157  1.2074  0.4857
13970TIP3   OH263400   3.598   0.476   0.277  0.3262 -0.0541 -0.4801
13970TIP3    H163401   3.617   0.529   0.200 -0.0677  0.4839 -0.2181
13970TIP3    H263402   3.512   0.507   0.306 -0.3830 -1.5376 -0.9157
13971TIP3   OH263403   5.036   0.881   1.698 -0.5187 -0.1867 -0.0104
13971TIP3    H163404   4.966   0.946   1.697  0.4927  0.9357 -1.2516
13971TIP3    H263405   4.994   0.801   1.731 -1.9638  0.8788  0.8582
13972TIP3   OH263406   0.205   1.242  10.886 -0.5523 -0.3082  0.2420
13972TIP3    H163407   0.172   1.174  10.945 -0.9363  0.0063  0.3872
13972TIP3    H263408   0.199   1.323  10.936 -1.2789  0.0312 -0.3745
13973TIP3   OH263409   0.424   4.299  14.828  0.1704 -0.1049 -0.1328
13973TIP3    H163410   0.414   4.311  14.922 -1.4996  1.7594 -0.4788
13973TIP3    H263411   0.456   4.209  14.818 -0.6432 -0.7048  2.1471
13974TIP3   OH263412   2.264   4.130  16.863 -0.3293  0.1170 -0.0193
13974TIP3    H163413   2.290   4.168  16.947 -0.9165  0.5723 -0.0335
13974TIP3    H263414   2.263   4.205  16.803 -0.7898 -0.0432 -0.2171
13975TIP3   OH263415   2.442   2.816   2.719  0.2605  0.2510 -0.2504
13975TIP3    H163416   2.453   2.903   2.681 -2.3797  1.4614  1.4953
13975TIP3    H263417   2.437   2.832   2.813 -3.7369 -1.2631 -0.0575
13976TIP3   OH263418   5.471   5.061  17.136 -0.5248  0.2835 -0.1875
13976TIP3    H163419   5.495   5.152  17.152 -2.2208  0.5704  0.9472
13976TIP3    H263420   5.417   5.065  17.057 -0.7670  0.2808 -0.0204
13977TIP3   OH263421   5.254   1.597  15.867  0.3692 -0.6651 -0.6219
13977TIP3    H163422   5.181   1.636  15.915 -0.5756 -0.9134 -1.8208
13977TIP3    H263423   5.326   1.594  15.931 -0.2701  0.7621  0.2094
13978TIP3   OH263424   2.295   5.012  15.755 -0.8976 -0.2288 -0.8651
13978TIP3    H163425   2.312   4.936  15.811  0.0977  0.8798  0.4133
13978TIP3    H263426   2.336   4.989  15.671  1.0657 -0.3965  0.0802
13979TIP3   OH263427   6.482   5.809  14.324  0.5983  0.3721  0.2595
13979TIP3    H163428   6.394   5.823  14.357  1.1857  1.4103  1.4935
13979TIP3    H263429   6.539   5.825  14.400  1.8231 -0.7843 -0.3747
13980TIP3   OH263430   2.256   3.928   0.154 -0.1344  0.1672 -0.4547
13980TIP3    H163431   2.256   3.985   0.231 -1.8227 -0.6323  0.1842
13980TIP3    H263432   2.237   3.987   0.080 -0.5951  0.6261  0.0224
13981TIP3   OH263433   6.711   2.617   0.143 -0.2759 -0.1816  0.1217
13981TIP3    H163434   6.723   2.672   0.221  0.8451 -0.7599  0.3790
13981TIP3    H263435   6.756   2.664   0.074 -0.5107 -0.1060  0.0179
13982TIP3   OH263436   1.563   5.939  15.259 -0.1356 -0.5064  0.0244
13982TIP3    H163437   1.632   5.908  15.200  1.0386  1.6479  0.1745
13982TIP3    H263438   1.489   5.958  15.202  0.2620 -0.4401 -0.4777
13983TIP3   OH263439   2.002   6.721   1.409 -0.0419  0.1938 -0.3466
13983TIP3    H163440   1.958   6.642   1.441 -0.3265  0.0813 -0.9872
13983TIP3    H263441   1.932   6.771   1.367  0.1777  0.6916 -0.1302
13984TIP3   OH263442   0.936   6.086  11.964  0.7114  0.2786 -0.4509
13984TIP3    H163443   0.927   6.146  12.038  0.8349  0.3340 -0.4808
13984TIP3    H263444   0.848   6.052  11.950  1.0452 -1.3296  1.0455
13985TIP3   OH263445   0.558   4.205   0.720 -0.7359 -0.3319 -0.1166
13985TIP3    H163446   0.641   4.235   0.758 -0.9968 -0.2642  0.4195
13985TIP3    H263447   0.542   4.264   0.646 -0.1180 -0.5885 -0.4560
13986TIP3   OH263448   3.117   2.521  16.202 -0.0563 -0.0981 -0.0465
13986TIP3    H163449   3.113   2.426  16.207 -2.4160 -0.0347  0.4325
13986TIP3    H263450   3.178   2.539  16.130  1.2428 -1.9040  0.5253
13987TIP3   OH263451   1.663   3.381   2.617 -0.1761  0.5843  0.0961
13987TIP3    H163452   1.630   3.459   2.570 -0.2301  0.3325 -0.2902
13987TIP3    H263453   1.755   3.377   2.594 -0.3785 -0.0108 -0.6715
13988TIP3   OH263454   1.496   3.563  14.372 -0.0071  0.1992 -0.1668
13988TIP3    H163455   1.588   3.584  14.356  0.4676 -1.2855  0.4277
13988TIP3    H263456   1.490   3.468  14.357 -1.3559  0.1964  0.2027
13989TIP3   OH263457   4.970   1.605   2.479  0.0370  0.2481  0.3733
13989TIP3    H163458   5.030   1.611   2.404  0.8273  0.4114  1.0039
13989TIP3    H263459   4.902   1.670   2.460 -1.4269 -1.7258 -1.6098
13990TIP3   OH263460   5.852   4.455   4.045 -0.7391  0.3959 -0.0244
13990TIP3    H163461   5.864   4.463   4.140 -1.6378  1.1254  0.0427
13990TIP3    H263462   5.801   4.374   4.035 -1.7217  0.9588  0.2341
13991TIP3   OH263463   4.054   6.107   5.200 -0.2748  0.5286  0.2439
13991TIP3    H163464   4.110   6.071   5.131 -0.1986 -1.5012  1.3045
13991TIP3    H263465   4.094   6.192   5.221  0.2988  0.7222 -1.4520
13992TIP3   OH263466   6.619   2.791  12.707  0.7683  0.0155 -0.0322
13992TIP3    H163467   6.669   2.861  12.664  0.5875  0.8479  1.0581
13992TIP3    H263468   6.684   2.740  12.754  0.9693 -0.9113 -1.2569
13993TIP3   OH263469   0.675   1.691   1.563 -0.2072  0.1448 -0.2328
13993TIP3    H163470   0.638   1.613   1.602 -1.1281  0.6032 -0.1650
13993TIP3    H263471   0.676   1.673   1.469  1.2916 -0.6521 -0.0884
13994TIP3   OH263472   3.156   2.168   1.339 -0.1327  0.4833  0.3373
13994TIP3    H163473   3.140   2.085   1.384 -1.2586 -0.1395 -1.1254
13994TIP3    H263474   3.250   2.168   1.320 -0.1025 -0.4077  0.4471
13995TIP3   OH263475   6.144   6.534   4.512  0.0695  0.5045 -0.6852
13995TIP3    H163476   6.164   6.453   4.561 -0.5127  1.6993  1.7080
13995TIP3    H263477   6.199   6.601   4.554 -1.4523  1.8593 -0.7844
13996TIP3   OH263478   4.811   4.039  13.362  0.1326  0.3226  0.1389
13996TIP3    H163479   4.842   3.989  13.286 -2.7530 -0.0997 -0.8550
13996TIP3    H263480   4.857   4.123  13.356  1.5379 -0.4626 -0.8199
13997TIP3   OH263481   2.886   4.834  12.928 -0.3841  0.3119 -0.6205
13997TIP3    H163482   2.866   4.849  12.836  0.2091  0.7651 -0.6733
13997TIP3    H263483   2.867   4.917  12.971 -1.3571 -0.0993 -0.2041
13998TIP3   OH263484   0.410   1.029  15.989  0.3102  0.3129 -0.7419
13998TIP3    H163485   0.354   1.105  16.009  0.4183 -0.1988  1.8809
13998TIP3    H263486   0.363   0.955  16.027  1.1462 -0.6732 -1.5721
13999TIP3   OH263487   1.194   4.387  12.833  0.0587  0.4162  0.6453
13999TIP3    H163488   1.108   4.383  12.874 -1.2820  3.7917 -1.4747
13999TIP3    H263489   1.214   4.296  12.810 -4.8826 -0.2127 -2.4830
14000TIP3   OH263490   0.681   5.693  15.187 -0.7913 -0.5259  0.2286
14000TIP3    H163491   0.745   5.624  15.205  0.7180 -0.0150 -2.6383
14000TIP3    H263492   0.701   5.761  15.252  1.2428 -0.6102 -0.2560
14001TIP3   OH263493   2.591   5.412   5.305 -0.2745  0.1479  0.3366
14001TIP3    H163494   2.651   5.468   5.353  0.1781  0.3373 -0.4289
14001TIP3    H263495   2.505   5.429   5.343  0.1588 -0.1975  1.5116
14002TIP3   OH263496   0.072   6.795   5.159  0.3420 -0.4880 -0.3240
14002TIP3    H163497   0.131   6.738   5.110  1.7869  0.6936 -0.0488
14002TIP3    H263498   0.092   6.776   5.251 -0.8865 -1.2224 -0.1844
14003TIP3   OH263499   0.129   3.815   4.024 -0.2107  0.2534 -0.6743
14003TIP3    H163500   0.145   3.837   4.116 -1.0583 -1.1922 -0.1435
14003TIP3    H263501   0.198   3.861   3.976  3.0491 -2.3275  1.0860
14004TIP3   OH263502   1.597   1.227  14.320 -0.8979  0.2055  0.4958
14004TIP3    H163503   1.650   1.161  14.276 -1.3075 -0.1247  0.4855
14004TIP3    H263504   1.650   1.255  14.394  0.7323  2.3305 -1.3525
14005TIP3   OH263505   4.008   0.413  12.829  0.1035 -0.4285  0.2996
14005TIP3    H163506   3.929   0.364  12.850 -0.8791  0.6905 -0.6669
14005TIP3    H263507   4.052   0.426  12.913  0.2592 -2.6449  0.6418
14006TIP3   OH263508   3.805   3.924   5.560 -0.2286  0.1824  0.3544
14006TIP3    H163509   3.775   3.889   5.645  0.8152 -5.0096 -1.0542
14006TIP3    H263510   3.725   3.929   5.507 -0.6218  1.6374  1.0450
14007TIP3   OH263511   2.132   3.031  15.188 -0.6436  0.4350 -0.5527
14007TIP3    H163512   2.150   3.007  15.097  1.3787  0.3256 -0.1816
14007TIP3    H263513   2.044   3.066  15.187 -0.0521  2.0732 -2.8856
14008TIP3   OH263514   1.834   2.141  13.730 -0.4137 -0.0019  0.5587
14008TIP3    H163515   1.827   2.232  13.701 -0.9388  0.5338  2.2836
14008TIP3    H263516   1.744   2.110  13.737 -0.3963  0.2629  2.6270
14009TIP3   OH263517   0.066   2.204   2.976 -0.0614 -0.0597  0.0364
14009TIP3    H163518  -0.028   2.211   2.958 -0.2208  1.6399  1.3173
14009TIP3    H263519   0.108   2.231   2.894 -0.6905  0.1448 -0.2264
14010TIP3   OH263520   4.035   0.270  10.741 -0.3264 -0.4785  0.1107
14010TIP3    H163521   4.028   0.321  10.660 -2.9801 -1.5546 -0.4197
14010TIP3    H263522   3.954   0.287  10.788  0.4438 -1.1793  1.7813
14011TIP3   OH263523   2.653   5.766   0.039 -0.0894 -0.4244  0.8920
14011TIP3    H163524   2.614   5.782  -0.048  0.5057 -0.1883  0.6632
14011TIP3    H263525   2.582   5.729   0.090 -0.3572 -0.8864  0.1995
14012TIP3   OH263526   3.621   0.896  12.790  0.2791 -0.3339 -0.0629
14012TIP3    H163527   3.624   0.891  12.886  2.7665 -0.7085 -0.0973
14012TIP3    H263528   3.537   0.939  12.771  0.0714  0.4631  2.3034
14013TIP3   OH263529   6.523   2.574   5.614 -0.1430  0.0027 -0.4230
14013TIP3    H163530   6.476   2.550   5.694 -1.1756 -1.1894 -1.3351
14013TIP3    H263531   6.499   2.665   5.598 -0.1460  0.1626  0.4720
14014TIP3   OH263532   6.478   0.833   4.035  0.0507  0.0883 -0.5529
14014TIP3    H163533   6.486   0.916   3.989  3.0807 -0.9385 -2.1856
14014TIP3    H263534   6.493   0.854   4.127  3.6039  1.1561 -1.2382
14015TIP3   OH263535   6.736   6.077  16.671  0.1945  0.7376 -0.3458
14015TIP3    H163536   6.713   6.048  16.583 -0.0232  0.0446 -0.0659
14015TIP3    H263537   6.713   6.003  16.728  1.5551  0.6721  0.1430
14016TIP3   OH263538   3.039   6.704   5.846  0.1910 -0.1712  0.0173
14016TIP3    H163539   3.050   6.620   5.889  0.4212 -0.5784 -0.8156
14016TIP3    H263540   3.105   6.761   5.886  0.7852 -0.7010 -0.1996
14017TIP3   OH263541   5.175   5.939  11.896  0.1091  0.2124  0.1295
14017TIP3    H163542   5.237   6.008  11.920  0.0875  1.0867 -2.0526
14017TIP3    H263543   5.218   5.893  11.824 -0.9172 -0.4727 -0.0608
14018TIP3   OH263544   3.288   1.373   2.638 -0.2466  0.1083 -0.3367
14018TIP3    H163545   3.373   1.369   2.592  0.2200  2.6567  0.1254
14018TIP3    H263546   3.243   1.447   2.597 -2.2674 -1.1509 -0.5101
14019TIP3   OH263547   6.013   3.636  16.050 -0.5200 -0.4563  0.3775
14019TIP3    H163548   6.035   3.688  16.127 -1.4731  1.9533 -0.8762
14019TIP3    H263549   6.096   3.626  16.002  0.1337 -2.1994  1.7421
14020TIP3   OH263550   6.151   4.793  16.049 -0.2759  0.0081 -0.1315
14020TIP3    H163551   6.218   4.725  16.061 -0.1749  0.3168  1.2499
14020TIP3    H263552   6.083   4.771  16.113  0.3849  1.9209  1.3258
14021TIP3   OH263553   3.667   5.574  12.653 -0.5180  0.7944 -0.2452
14021TIP3    H163554   3.739   5.511  12.648  1.6957  3.0413  1.2398
14021TIP3    H263555   3.619   5.550  12.732  0.2710  0.8784  0.2731
14022TIP3   OH263556   4.804   5.686   3.201  0.4575  1.0000 -0.3702
14022TIP3    H163557   4.837   5.734   3.277  1.0903  0.0269 -0.0000
14022TIP3    H263558   4.826   5.594   3.220 -0.3726  0.6046 -1.2199
14023TIP3   OH263559   6.070   5.211  15.472  0.0267  0.7749 -0.0476
14023TIP3    H163560   6.031   5.294  15.446 -0.1700  0.8914  0.6126
14023TIP3    H263561   6.028   5.189  15.555 -1.4877 -1.0304 -1.2039
14024TIP3   OH263562   3.445   3.918   0.672  0.1073 -0.2109 -0.1302
14024TIP3    H163563   3.362   3.963   0.657 -0.2355 -0.7666  0.0418
14024TIP3    H263564   3.504   3.985   0.704 -0.3691  0.1332  0.0401
14025TIP3   OH263565   4.721   4.030  16.813 -0.6501 -0.4024 -0.2950
14025TIP3    H163566   4.670   4.065  16.886 -1.6693  1.4549 -1.8130
14025TIP3    H263567   4.663   3.966  16.772  0.2303 -2.0685  0.9203
14026TIP3   OH263568   4.703   0.084   0.894 -0.0875  0.3746 -0.5141
14026TIP3    H163569   4.632   0.102   0.832  0.8722  0.0583 -1.7364
14026TIP3    H263570   4.665   0.104   0.980 -0.4834  3.9829 -1.3686
14027TIP3   OH263571   2.059   1.018   0.931 -0.2154  0.8572 -0.1607
14027TIP3    H163572   1.975   1.003   0.889 -1.4371  1.8326  1.7890
14027TIP3    H263573   2.085   0.933   0.965  0.6597  0.1092 -2.4952
14028TIP3   OH263574   4.712   0.974   4.705 -0.5913  0.0948  0.5151
14028TIP3    H163575   4.686   0.933   4.787 -0.5783 -2.9733 -0.8835
14028TIP3    H263576   4.787   1.029   4.728 -1.3920  0.3634  2.7232
14029TIP3   OH263577   5.161   3.346   0.518  0.0236 -0.1751 -0.1356
14029TIP3    H163578   5.084   3.364   0.570  0.9622  0.9311  0.9356
14029TIP3    H263579   5.233   3.388   0.566  1.1200 -0.2454 -1.6431
14030TIP3   OH263580   5.015   4.808   2.731 -0.1608 -0.3519 -0.7826
14030TIP3    H163581   5.042   4.760   2.652 -0.5318  0.2695 -1.3052
14030TIP3    H263582   4.919   4.809   2.726 -0.1914 -0.4430 -0.2367
14031TIP3   OH263583   1.823   3.632  15.260 -0.6381  0.6854  1.0330
14031TIP3    H163584   1.758   3.662  15.197 -0.0180  1.9745  0.9877
14031TIP3    H263585   1.851   3.711  15.306  1.3420  0.2551  0.6394
14032TIP3   OH263586   3.063   6.103   1.063  0.7991 -0.2150  0.1627
14032TIP3    H163587   2.982   6.153   1.049  2.3185  1.9716 -1.6272
14032TIP3    H263588   3.072   6.050   0.984  0.3922 -1.6611  1.0433
14033TIP3   OH263589   4.693   0.711   2.277 -0.2749 -0.0482 -0.6271
14033TIP3    H163590   4.665   0.636   2.329 -1.1075 -0.0657 -1.0778
14033TIP3    H263591   4.729   0.672   2.197  2.6619 -0.1150  0.5940
14034TIP3   OH263592   0.168   1.708   5.061 -0.3155  0.9979  0.3542
14034TIP3    H163593   0.167   1.720   5.156 -1.3408  0.0675  0.4806
14034TIP3    H263594   0.261   1.696   5.040 -0.0114  1.8671  1.1413
14035TIP3   OH263595   4.844   2.836  15.405  0.3339 -0.2476 -0.0338
14035TIP3    H163596   4.933   2.869  15.407 -0.5881  2.4423  0.2925
14035TIP3    H263597   4.846   2.759  15.463  2.4484 -0.3840 -0.2120
14036TIP3   OH263598   2.572   0.432  13.499 -0.8032  0.3900  0.0588
14036TIP3    H163599   2.553   0.525  13.511 -0.9442  0.3309  0.3067
14036TIP3    H263600   2.608   0.404  13.583 -2.0357 -0.0915  0.4566
14037TIP3   OH263601   2.793   0.092   6.127 -0.0768  1.2265  0.7840
14037TIP3    H163602   2.801   0.008   6.082 -0.4595  1.5615  0.0820
14037TIP3    H263603   2.853   0.084   6.202 -1.0145 -0.1337  1.4408
14038TIP3   OH263604   4.672   4.114   5.912 -0.0740 -0.0967 -0.2413
14038TIP3    H163605   4.734   4.091   5.843  0.2870  0.4380 -0.1073
14038TIP3    H263606   4.725   4.159   5.977 -0.2557 -1.3271  0.7843
14039TIP3   OH263607   2.213   1.925  16.016  0.8402 -0.4161  0.0424
14039TIP3    H163608   2.188   2.015  16.037 -1.6692 -0.9999 -0.0927
14039TIP3    H263609   2.308   1.925  16.018  0.8836  2.0234  0.9257
14040TIP3   OH263610   2.004   2.341  15.185  0.0848 -0.8786  0.9049
14040TIP3    H163611   2.008   2.281  15.111 -0.1646 -1.2223  1.1622
14040TIP3    H263612   2.062   2.303  15.250  2.7222  0.9964 -0.1870
14041TIP3   OH263613   1.181   5.227   5.423 -0.1038  0.3434 -0.5456
14041TIP3    H163614   1.139   5.293   5.478  0.8642 -0.6031  1.4330
14041TIP3    H263615   1.109   5.176   5.387 -0.7623 -0.0383  1.2092
14042TIP3   OH263616   1.264   5.693   3.895 -0.1318  0.1553 -0.3499
14042TIP3    H163617   1.221   5.763   3.846 -0.8774  2.4830  3.2464
14042TIP3    H263618   1.202   5.621   3.895 -1.1698  1.0303 -0.7468
14043TIP3   OH263619   2.624   5.692   1.911 -0.5492 -0.3208  0.1610
14043TIP3    H163620   2.700   5.748   1.928 -0.4676 -0.6765  0.9820
14043TIP3    H263621   2.582   5.733   1.835  0.3773 -0.0391 -0.2173
14044TIP3   OH263622   2.505   3.638  13.467 -0.4227 -0.2753  0.1104
14044TIP3    H163623   2.453   3.716  13.444  0.7578  0.0902 -1.4777
14044TIP3    H263624   2.579   3.673  13.517  0.0201 -0.3950 -0.4586
14045TIP3   OH263625   2.403   6.100  12.516  0.1661  0.0453 -0.0340
14045TIP3    H163626   2.423   6.178  12.568 -0.2651 -0.0897  0.3435
14045TIP3    H263627   2.453   6.030  12.558  1.2272  0.2752 -0.8894
14046TIP3   OH263628   4.107   5.323   3.781 -0.2323 -0.5013  0.0238
14046TIP3    H163629   4.161   5.323   3.860 -1.0775 -0.4339  0.6145
14046TIP3    H263630   4.156   5.270   3.718  0.7160 -0.0812  0.4062
14047TIP3   OH263631   1.533   4.987   0.713  0.1293 -0.4149  0.0270
14047TIP3    H163632   1.590   4.955   0.643 -0.6603 -0.7700 -0.4673
14047TIP3    H263633   1.526   4.913   0.774  0.0905 -0.4157  0.0217
14048TIP3   OH263634   4.196   5.954   0.909 -0.1630  0.4850  0.4806
14048TIP3    H163635   4.142   5.878   0.931  0.2972  0.1344  0.4137
14048TIP3    H263636   4.159   6.026   0.960 -0.4535  0.1640  0.7243
14049TIP3   OH263637   3.209   1.920   3.940  0.2229  0.0771  0.3660
14049TIP3    H163638   3.250   1.958   4.018  1.6010  1.1981 -0.8638
14049TIP3    H263639   3.116   1.916   3.962  0.4048  1.6459  1.5770
14050TIP3   OH263640   1.539   5.577   2.952 -0.2277 -0.1356 -0.0259
14050TIP3    H163641   1.533   5.539   2.864  0.3631  0.4445 -0.3302
14050TIP3    H263642   1.507   5.667   2.941  0.4643  0.1414  0.2146
14051TIP3   OH263643   0.058   6.744  12.035  0.1948  0.2902  0.0644
14051TIP3    H163644   0.037   6.652  12.022  2.4384 -0.1967 -0.4910
14051TIP3    H263645   0.015   6.789  11.962  0.6738 -0.5806 -0.7773
14052TIP3   OH263646   3.805   5.900   0.478  0.6167  0.4119 -0.5499
14052TIP3    H163647   3.892   5.917   0.515  1.3074 -0.8476 -1.5076
14052TIP3    H263648   3.804   5.947   0.395  0.3212  0.5393 -0.4753
14053TIP3   OH263649   5.735   3.616   0.990  0.2385 -0.5748  0.0126
14053TIP3    H163650   5.688   3.630   1.072  1.6458  0.5753  0.6644
14053TIP3    H263651   5.779   3.532   1.001 -0.2161 -0.7989  0.1181
14054TIP3   OH263652   5.307   3.073  14.690 -0.0357  0.0116 -0.6632
14054TIP3    H163653   5.299   3.168  14.686 -0.5233  0.2270  2.4565
14054TIP3    H263654   5.293   3.043  14.601 -2.0298  2.7271 -1.3785
14055TIP3   OH263655   1.989   5.899   0.964  0.1193 -0.2580 -0.1281
14055TIP3    H163656   2.084   5.899   0.979 -0.0876  1.3336  1.5460
14055TIP3    H263657   1.952   5.924   1.049 -1.7772 -0.3134 -0.9022
14056TIP3   OH263658   5.336   3.685  15.071 -0.3977 -0.3711 -0.2552
14056TIP3    H163659   5.302   3.761  15.118 -0.0580 -0.6791  0.4936
14056TIP3    H263660   5.275   3.674  14.998  0.8094  2.0084 -1.7528
14057TIP3   OH263661   2.215   0.715   4.014 -0.6093  0.2453  0.6157
14057TIP3    H163662   2.202   0.786   3.951  2.8248 -0.8135 -1.5236
14057TIP3    H263663   2.304   0.685   3.999 -0.8056 -2.4354  3.6790
14058TIP3   OH263664   6.578   1.973   4.734  0.2021 -0.0456 -0.1893
14058TIP3    H163665   6.566   2.060   4.774  2.7643  0.1904  0.2403
14058TIP3    H263666   6.592   1.992   4.642 -2.4546 -0.3449 -0.7489
14059TIP3   OH263667   6.459   0.227   1.185  0.3444  0.3835 -0.7155
14059TIP3    H163668   6.539   0.261   1.225 -0.1560 -1.0344  1.7127
14059TIP3    H263669   6.475   0.133   1.175 -0.9543  0.0900 -0.2587
14060TIP3   OH263670   0.113   3.933  10.495  0.2950  0.1541 -0.2936
14060TIP3    H163671   0.126   4.007  10.555  1.3544 -0.7177  0.6028
14060TIP3    H263672   0.037   3.957  10.443 -0.0784  1.3711  0.7639
14061TIP3   OH263673   3.667   2.586  11.296  0.4213  0.0275 -0.4419
14061TIP3    H163674   3.608   2.661  11.302 -0.2063 -0.5010  0.2644
14061TIP3    H263675   3.650   2.536  11.376 -1.3395 -2.4116 -2.1593
14062TIP3   OH263676   1.034   2.334  11.721 -0.1729  0.4013  0.0626
14062TIP3    H163677   1.057   2.334  11.628 -0.8507  0.7780 -0.1150
14062TIP3    H263678   0.963   2.270  11.728  0.0466  0.1934  0.3606
14063TIP3   OH263679   6.720   6.215  14.613 -0.1244  0.3573  0.3427
14063TIP3    H163680   6.740   6.125  14.640 -1.8882 -0.3948 -0.6581
14063TIP3    H263681   6.672   6.252  14.687 -0.4571  0.0453  0.2875
14064TIP3   OH263682   0.122   6.488   5.646  0.0501 -0.2054 -0.6619
14064TIP3    H163683   0.086   6.575   5.657 -1.7260 -0.8951 -0.7319
14064TIP3    H263684   0.047   6.433   5.624  1.0576 -1.8317 -0.2300
14065TIP3   OH263685   5.465   2.428  16.937  0.2938 -0.2664 -0.0985
14065TIP3    H163686   5.451   2.523  16.939 -0.9726 -0.4424  0.5564
14065TIP3    H263687   5.556   2.417  16.962  0.5219  0.7906 -0.4079
14066TIP3   OH263688   5.489   2.546  11.358 -0.0467  0.2048 -0.6798
14066TIP3    H163689   5.511   2.636  11.380 -0.6867  0.4305 -0.9458
14066TIP3    H263690   5.548   2.493  11.412 -1.0103  0.7599  0.9889
14067TIP3   OH263691   4.390   0.722  13.566 -0.0299  0.2191  0.0160
14067TIP3    H163692   4.440   0.698  13.644 -0.1795  3.7871  1.3889
14067TIP3    H263693   4.298   0.719  13.593 -0.2791 -1.0504 -0.8714
14068TIP3   OH263694   3.773   4.990  11.881  0.1995  0.7710  0.0658
14068TIP3    H163695   3.864   4.998  11.852 -0.3633  1.5231 -1.6585
14068TIP3    H263696   3.750   4.900  11.860  0.5643  0.5503  0.5930
14069TIP3   OH263697   5.815   1.471   4.563 -0.8254 -0.2574  0.3028
14069TIP3    H163698   5.819   1.556   4.608 -0.0190 -0.2190  0.1783
14069TIP3    H263699   5.907   1.451   4.543 -1.1238 -0.5590 -0.7914
14070TIP3   OH263700   1.831   2.406  16.084 -0.3364  0.0844  0.6040
14070TIP3    H163701   1.904   2.428  16.026 -0.9511 -0.8246 -0.5387
14070TIP3    H263702   1.855   2.322  16.123 -1.2450 -0.7990 -0.6572
14071TIP3   OH263703   6.033   3.529   0.343  0.6245 -0.4553 -0.2653
14071TIP3    H163704   6.097   3.600   0.344  1.9475 -1.5934 -0.7463
14071TIP3    H263705   6.037   3.492   0.432 -0.5299  0.4385  0.1834
14072TIP3   OH263706   5.971   4.208  11.766 -0.3356 -0.0775 -0.0808
14072TIP3    H163707   5.982   4.282  11.706 -1.6957 -1.5778 -2.3001
14072TIP3    H263708   6.060   4.172  11.777 -0.0953  0.0813 -1.4061
14073TIP3   OH263709   1.477   1.236  15.251  0.2076 -0.1178 -0.8595
14073TIP3    H163710   1.381   1.230  15.252  0.0709  1.5492 -1.4337
14073TIP3    H263711   1.501   1.237  15.344 -0.3773  0.0308 -0.7040
14074TIP3   OH263712   3.952   1.723   1.552  0.1389  0.4203  0.1551
14074TIP3    H163713   3.909   1.774   1.621 -0.2865 -0.6597  0.7074
14074TIP3    H263714   3.971   1.639   1.593  0.2025 -0.1118 -0.9434
14075TIP3   OH263715   0.549   6.328   2.989  0.4659 -0.2723  0.3025
14075TIP3    H163716   0.458   6.297   2.992  0.7287 -1.3310 -1.3702
14075TIP3    H263717   0.589   6.291   3.067 -0.4743  0.0431  0.9590
14076TIP3   OH263718   4.109   5.928  11.949  0.7959  0.3516  0.5087
14076TIP3    H163719   4.050   5.963  11.882 -0.9128 -0.4792  1.5182
14076TIP3    H263720   4.059   5.859  11.992  3.3777 -2.1363 -0.1742
14077TIP3   OH263721   6.768   3.458  14.233  0.1954  0.0073  0.3194
14077TIP3    H163722   6.791   3.474  14.325  0.6647 -2.8960  0.8138
14077TIP3    H263723   6.702   3.524  14.213 -0.8923 -0.0452  3.1571
14078TIP3   OH263724   4.967   2.118  15.813 -0.1052 -0.4568 -0.2638
14078TIP3    H163725   4.959   2.031  15.851  0.5421 -1.4318 -2.2238
14078TIP3    H263726   4.877   2.152  15.811 -0.5109 -1.5135 -0.4168
14079TIP3   OH263727   3.675   5.508   0.377  0.9712  0.2753 -0.3789
14079TIP3    H163728   3.695   5.449   0.305  1.7936  1.5804 -1.2630
14079TIP3    H263729   3.732   5.480   0.448  1.8614  0.4079 -1.0178
14080TIP3   OH263730   2.944   3.488  15.820  0.6052 -0.2504  0.3289
14080TIP3    H163731   2.968   3.520  15.906  0.8331 -2.3851  1.1251
14080TIP3    H263732   2.899   3.405  15.837  3.8392 -2.6520 -1.6604
14081TIP3   OH263733   2.502   1.039  12.494 -0.5660  0.3005 -0.0519
14081TIP3    H163734   2.437   0.988  12.543 -2.0938  0.7731 -1.5054
14081TIP3    H263735   2.586   1.011  12.531 -1.5217 -0.9435  1.3292
14082TIP3   OH263736   1.859   4.542  15.743  0.4750 -0.2644 -0.5918
14082TIP3    H163737   1.767   4.516  15.733  0.0486  0.4205  1.1811
14082TIP3    H263738   1.882   4.582  15.659 -1.2662  0.7853 -0.6133
14083TIP3   OH263739   4.070   2.846   6.273  0.1981  0.4091 -0.0244
14083TIP3    H163740   4.142   2.908   6.257  0.2481  0.1092 -1.0279
14083TIP3    H263741   4.105   2.785   6.338  0.8221  0.3261 -0.4315
14084TIP3   OH263742   6.436   4.095   3.522 -0.0181  0.1568 -0.0464
14084TIP3    H163743   6.466   4.005   3.511  0.7785  0.4952 -0.6897
14084TIP3    H263744   6.347   4.095   3.486  0.5310 -0.0401 -1.4881
14085TIP3   OH263745   1.461   3.351   3.685  0.1370 -0.2546 -0.3249
14085TIP3    H163746   1.530   3.286   3.677  0.7180  0.3123 -0.0756
14085TIP3    H263747   1.468   3.403   3.605  0.4012  0.1719 -0.0304
14086TIP3   OH263748   4.517   0.165  12.134  0.3945 -0.4388 -0.3144
14086TIP3    H163749   4.590   0.188  12.191 -0.4588 -0.4165  0.7896
14086TIP3    H263750   4.552   0.098  12.075  0.9480 -1.3788  1.0478
14087TIP3   OH263751   4.580   3.526  10.220 -0.2635 -0.2478 -0.2253
14087TIP3    H163752   4.623   3.441  10.219 -0.6747 -0.4527 -1.0245
14087TIP3    H263753   4.494   3.509  10.258  0.4379  0.2214  1.6916
14088TIP3   OH263754   2.851   0.611  15.164  0.4498 -0.3739  0.1611
14088TIP3    H163755   2.888   0.531  15.202  0.7983  0.0264  0.6882
14088TIP3    H263756   2.756   0.599  15.171  0.4962 -0.8301  0.0431
14089TIP3   OH263757   2.495   1.413   4.346 -0.2012  0.3255  0.7482
14089TIP3    H163758   2.401   1.392   4.347 -0.1171 -0.0730  1.6410
14089TIP3    H263759   2.500   1.502   4.380 -0.2836  0.4897  0.3335
14090TIP3   OH263760   5.268   6.604   3.144  0.0986 -0.1968  0.3789
14090TIP3    H163761   5.219   6.527   3.175 -1.2485  0.0395 -1.0007
14090TIP3    H263762   5.231   6.677   3.194  2.0052 -0.5040  2.3416
14091TIP3   OH263763   0.632   0.818  11.768  0.0738 -0.1348 -0.0707
14091TIP3    H163764   0.669   0.900  11.802 -0.6024 -0.2370  0.9680
14091TIP3    H263765   0.578   0.845  11.694 -1.2268  0.5628  1.0746
14092TIP3   OH263766   4.411   3.882   0.235  0.0200  0.0409  0.6337
14092TIP3    H163767   4.408   3.977   0.223 -1.3561  0.0625  0.9686
14092TIP3    H263768   4.409   3.846   0.147 -1.0495  0.3140  0.5335
14093TIP3   OH263769   4.472   2.464  13.055  0.6530  0.1659  0.1346
14093TIP3    H163770   4.507   2.513  13.129  0.4155  2.8299 -1.3856
14093TIP3    H263771   4.388   2.430  13.085  0.8683  0.6067  1.2672
14094TIP3   OH263772   4.914   1.426  12.635 -0.2050 -0.0970  0.6072
14094TIP3    H163773   4.941   1.510  12.600  2.0038 -0.6195  0.9420
14094TIP3    H263774   4.843   1.398  12.578 -2.0740  2.6250  1.3709
14095TIP3   OH263775   0.267   1.799   2.905 -0.7288  0.1370  0.2738
14095TIP3    H163776   0.227   1.819   2.989 -2.4937  0.5279 -0.6169
14095TIP3    H263777   0.279   1.884   2.863 -1.4519 -0.1586 -0.5553
14096TIP3   OH263778   4.674   6.786  11.519 -0.4027  0.4806  0.1769
14096TIP3    H163779   4.673   6.739  11.602 -1.7891 -1.6297 -0.9577
14096TIP3    H263780   4.767   6.805  11.504 -0.0221 -0.0114  1.6730
14097TIP3   OH263781   6.778   2.498  16.121 -0.6151  0.1645  0.4826
14097TIP3    H163782   6.828   2.431  16.075  0.2089  0.7057  0.5799
14097TIP3    H263783   6.692   2.495  16.079  0.2762  1.0866 -1.5896
14098TIP3   OH263784   1.211   2.349   4.534  0.4376  0.2659 -0.0666
14098TIP3    H163785   1.156   2.426   4.545  1.8907  1.2610  0.6061
14098TIP3    H263786   1.207   2.329   4.440 -1.2386  0.1444  0.0113
14099TIP3   OH263787   5.607   2.017  16.350  0.1319  0.1656  0.7855
14099TIP3    H163788   5.512   2.031  16.346  0.0677 -0.3849  0.1234
14099TIP3    H263789   5.617   1.948  16.415  0.0210 -0.2101  0.4087
14100TIP3   OH263790   4.693   2.320  13.772 -0.2109 -0.0523  0.4765
14100TIP3    H163791   4.651   2.320  13.858  1.1483 -0.7942  1.1855
14100TIP3    H263792   4.758   2.391  13.777 -0.1746 -0.0518  0.0394
14101TIP3   OH263793   2.093   0.195   6.205 -0.1177  0.3194  0.0783
14101TIP3    H163794   2.101   0.129   6.137  0.5114 -0.8860  1.2770
14101TIP3    H263795   2.140   0.271   6.170  0.7495 -0.4949 -0.5735
14102TIP3   OH263796   5.352   1.629   6.529 -0.4183  0.3757 -0.0566
14102TIP3    H163797   5.448   1.633   6.524 -0.3326  0.7682  1.3709
14102TIP3    H263798   5.323   1.709   6.485 -0.0475  0.6951  0.2705
14103TIP3   OH263799   1.310   2.974   4.462  0.4199  0.2963  0.0297
14103TIP3    H163800   1.362   2.963   4.541  0.3773  0.8339  0.1368
14103TIP3    H263801   1.223   3.000   4.494 -0.0052 -0.8367 -0.1313
14104TIP3   OH263802   4.989   4.809  15.590  0.6347  0.0091  1.1224
14104TIP3    H163803   5.002   4.736  15.530 -0.4661 -0.5062  1.4896
14104TIP3    H263804   4.906   4.791  15.633  0.1057  1.6944  0.9151
14105TIP3   OH263805   0.647   4.789  15.582 -0.0824 -0.0084 -0.0149
14105TIP3    H163806   0.609   4.728  15.645 -0.3512 -0.6741 -0.8139
14105TIP3    H263807   0.612   4.761  15.497 -0.8177  1.7018 -0.3226
14106TIP3   OH263808   5.414   2.245  12.123 -0.6898  0.2327 -0.4574
14106TIP3    H163809   5.425   2.249  12.028  0.5023  2.1529 -0.2795
14106TIP3    H263810   5.489   2.293  12.158 -1.5660  0.3060  1.4330
14107TIP3   OH263811   1.034   6.018   4.047  0.0904 -0.5767  0.6557
14107TIP3    H163812   1.078   5.984   4.126 -0.6306  0.0629  1.3512
14107TIP3    H263813   1.050   6.112   4.050  0.6935 -0.6236 -0.3884
14108TIP3   OH263814   0.511   5.597   1.080  0.2960  0.3495 -0.2486
14108TIP3    H163815   0.484   5.652   1.007 -0.1368  1.7992  0.9560
14108TIP3    H263816   0.590   5.640   1.114 -0.2830  0.4930  0.9631
14109TIP3   OH263817   1.960   0.913   5.782 -0.0259  0.3538 -0.0868
14109TIP3    H163818   1.892   0.898   5.847  1.4312 -1.4974  1.1386
14109TIP3    H263819   1.914   0.943   5.704 -2.0887  0.2891  1.0524
14110TIP3   OH263820   3.599   2.953   5.395  0.4828  0.3447 -1.0542
14110TIP3    H163821   3.539   3.009   5.346  0.6967 -0.4185 -2.2261
14110TIP3    H263822   3.681   3.001   5.397 -0.0464  1.2456  0.2694
14111TIP3   OH263823   4.723   6.289   0.924  0.1066  0.1544  0.4035
14111TIP3    H163824   4.672   6.364   0.894  0.8041  0.5584  0.1876
14111TIP3    H263825   4.659   6.220   0.939 -0.3847  0.2952 -0.9282
14112TIP3   OH263826   2.741   2.784  14.706  0.0219 -0.2104  0.2517
14112TIP3    H163827   2.750   2.871  14.746  2.4585 -0.6539  0.8600
14112TIP3    H263828   2.772   2.795  14.616 -2.4851  0.1114 -0.6515
14113TIP3   OH263829   0.594   2.544   6.791 -0.2284  0.2084 -0.2181
14113TIP3    H163830   0.590   2.635   6.761 -2.5667  0.7597  1.4260
14113TIP3    H263831   0.614   2.551   6.884 -0.1800 -0.9818 -0.1337
14114TIP3   OH263832   6.202   3.024   5.259 -0.2634  0.8323 -0.1647
14114TIP3    H163833   6.205   2.929   5.271  0.8810  0.8731  0.0047
14114TIP3    H263834   6.134   3.054   5.319  0.6266  0.3042  1.1398
14115TIP3   OH263835   5.030   1.034  15.434 -0.2802 -0.0465 -0.7982
14115TIP3    H163836   5.043   1.090  15.511 -1.2559  0.2344 -0.8208
14115TIP3    H263837   5.104   0.973  15.435 -0.1912  0.0651  0.2742
14116TIP3   OH263838   4.162   4.301  13.738  0.4327 -0.4244 -0.2034
14116TIP3    H163839   4.201   4.363  13.800 -0.0102 -0.4334  0.0874
14116TIP3    H263840   4.211   4.220  13.753  0.9022 -0.1987 -0.4694
14117TIP3   OH263841   2.683   0.104   1.404  0.1377 -0.4580  0.4266
14117TIP3    H163842   2.732   0.060   1.335  1.7948  0.1306  1.1832
14117TIP3    H263843   2.597   0.062   1.403  0.7023 -1.6474 -0.8222
14118TIP3   OH263844   3.796   5.206   1.068  0.1099 -0.0408  0.1904
14118TIP3    H163845   3.867   5.183   1.008 -1.4031 -1.0989 -1.2728
14118TIP3    H263846   3.754   5.282   1.027  0.3125  0.5206  0.9966
14119TIP3   OH263847   1.630   0.255  13.258 -0.0743 -0.8091 -0.0773
14119TIP3    H163848   1.718   0.228  13.285  0.2414  2.1032  2.3766
14119TIP3    H263849   1.571   0.204  13.314  0.3336  0.4997  1.6322
14120TIP3   OH263850   3.905   0.005   6.225  0.6453  0.2759  0.0923
14120TIP3    H163851   3.823  -0.035   6.198  0.1725 -0.3280  2.2428
14120TIP3    H263852   3.898   0.096   6.199 -0.4343  0.0843 -0.3070
14121TIP3   OH263853   2.360   5.880   3.648  0.1168  0.1597 -0.1498
14121TIP3    H163854   2.368   5.900   3.741  0.7363 -0.3935 -0.0772
14121TIP3    H263855   2.399   5.955   3.604  1.1913 -0.2386  0.0856
14122TIP3   OH263856   0.602   0.916  16.469 -0.0443 -0.5841  1.1697
14122TIP3    H163857   0.625   0.975  16.541  3.0816  0.4027 -0.4610
14122TIP3    H263858   0.512   0.940  16.447  0.0912  1.4304  2.5425
14123TIP3   OH263859   6.280   3.433  10.744  0.1756  0.7340  0.3570
14123TIP3    H163860   6.262   3.440  10.837  0.1489  0.5547  0.3648
14123TIP3    H263861   6.374   3.452  10.736 -0.0711  2.0297  0.2719
14124TIP3   OH263862   0.825   0.538  14.150 -0.3734 -0.5420  0.3104
14124TIP3    H163863   0.882   0.571  14.081 -0.6321  2.0756  1.2613
14124TIP3    H263864   0.883   0.484  14.204  1.4420  2.3184  1.4451
14125TIP3   OH263865   6.520   1.196   6.257 -0.0490  0.5531 -0.8492
14125TIP3    H163866   6.456   1.126   6.273  1.1573 -0.7919 -1.6502
14125TIP3    H263867   6.513   1.253   6.334  1.9726 -2.8504  2.1901
14126TIP3   OH263868   5.888   6.550  14.388  0.0953  0.3473  0.1099
14126TIP3    H163869   5.852   6.518  14.470 -1.5964  1.2232 -0.2576
14126TIP3    H263870   5.964   6.602  14.414  0.1012 -0.0934  1.0296
14127TIP3   OH263871   5.951   4.930  16.276  0.5398 -0.0399 -0.5700
14127TIP3    H163872   5.861   4.936  16.244  1.1292  0.4879 -2.2351
14127TIP3    H263873   5.970   4.837  16.275 -0.8180 -0.4701  2.4117
14128TIP3   OH263874   4.827   2.537  12.368  0.0528 -0.9393 -0.0957
14128TIP3    H163875   4.750   2.595  12.366  2.3449  2.3535 -1.3329
14128TIP3    H263876   4.803   2.469  12.431 -3.4879  0.4595  0.3236
14129TIP3   OH263877   5.965   0.677   3.477 -0.0152 -0.2865 -1.0678
14129TIP3    H163878   5.983   0.623   3.555 -2.2040 -0.4300 -0.6119
14129TIP3    H263879   5.902   0.742   3.506  1.3555  1.5738 -2.0366
14130TIP3   OH263880   2.159   5.643  13.420 -0.1799  0.1328  0.8068
14130TIP3    H163881   2.172   5.552  13.393  2.4865 -0.7461  4.3585
14130TIP3    H263882   2.227   5.692  13.373 -0.0614 -0.1414  0.6934
14131TIP3   OH263883   3.643   4.618  13.324 -0.2614 -0.4639 -0.5346
14131TIP3    H163884   3.692   4.685  13.277  0.4351  0.2582  1.1783
14131TIP3    H263885   3.618   4.659  13.407 -0.5883 -2.0271  0.1766
14132TIP3   OH263886   3.198   3.895   4.812 -0.2008  0.4259 -0.0035
14132TIP3    H163887   3.239   3.813   4.786 -1.3014 -0.3733  0.6974
14132TIP3    H263888   3.271   3.949   4.844  0.2709 -1.2193  1.8848
14133TIP3   OH263889   4.333   1.798  15.565  0.1800  0.2720  0.0145
14133TIP3    H163890   4.362   1.708  15.554  0.1540  0.4142 -1.4446
14133TIP3    H263891   4.398   1.838  15.623  1.1650 -0.2344 -0.7133
14134TIP3   OH263892   1.345   3.292  12.639 -0.1965  0.0168 -1.0745
14134TIP3    H163893   1.295   3.372  12.626  0.5776  0.9420  1.1474
14134TIP3    H263894   1.339   3.274  12.733  2.0113 -0.8955 -1.0392
14135TIP3   OH263895   0.964   1.747   1.627  0.5040  0.1772 -0.2359
14135TIP3    H163896   0.905   1.676   1.652  2.9280 -2.8024 -2.1718
14135TIP3    H263897   0.912   1.802   1.569 -1.8031  0.8052  2.2204
14136TIP3   OH263898   6.201   4.183   4.115 -0.4350 -0.0014  0.0305
14136TIP3    H163899   6.224   4.251   4.052 -1.7432 -0.0529 -0.5406
14136TIP3    H263900   6.225   4.220   4.200  1.0735  0.1929 -0.4490
14137TIP3   OH263901   3.104   1.598   2.027  0.0591 -0.1536 -0.4713
14137TIP3    H163902   3.020   1.638   2.004 -1.4231 -1.3061  2.5091
14137TIP3    H263903   3.145   1.661   2.087  1.6298  0.6035 -2.2298
14138TIP3   OH263904   0.620   3.298  11.490 -0.4512 -0.3052 -0.3117
14138TIP3    H163905   0.670   3.261  11.563  1.1634  0.6410 -0.8925
14138TIP3    H263906   0.556   3.230  11.468  0.5112 -1.5233  0.5274
14139TIP3   OH263907   2.798   3.964  16.900  0.1612 -0.1608  0.4759
14139TIP3    H163908   2.718   3.915  16.882 -0.0381  0.2114  0.3433
14139TIP3    H263909   2.859   3.898  16.936 -0.2704 -0.3992  0.7791
14140TIP3   OH263910   4.187   6.308  15.089  0.0423  0.4526 -0.2312
14140TIP3    H163911   4.273   6.265  15.092  0.4791  1.2909 -0.4172
14140TIP3    H263912   4.204   6.396  15.122 -1.0531  0.1590  1.2278
14141TIP3   OH263913   5.144   2.956  11.746  0.2931  0.2522 -0.5757
14141TIP3    H163914   5.226   2.997  11.717  0.2420 -0.0598 -1.1770
14141TIP3    H263915   5.082   2.976  11.676  0.4693 -1.5127 -1.2868
14142TIP3   OH263916   1.760   4.830   1.643  0.5528 -0.4048  0.4449
14142TIP3    H163917   1.847   4.844   1.680  0.6594  1.4340 -0.3625
14142TIP3    H263918   1.699   4.866   1.708  0.5290 -0.1581  0.2914
14143TIP3   OH263919   0.566   1.910   0.009 -0.7761 -0.0661  0.2796
14143TIP3    H163920   0.589   1.941  -0.079 -1.3005  0.5045  0.3307
14143TIP3    H263921   0.649   1.907   0.055 -0.1987 -2.3148 -0.8005
14144TIP3   OH263922   1.544   5.586  11.310 -0.0704  0.7830 -0.0154
14144TIP3    H163923   1.458   5.546  11.324  1.3230 -1.7333  2.2581
14144TIP3    H263924   1.541   5.619  11.220 -2.9272 -0.4268 -0.4676
14145TIP3   OH263925   5.445   3.297  14.887 -0.1511 -0.1751 -0.3425
14145TIP3    H163926   5.353   3.301  14.911 -0.3328  0.6703 -1.1274
14145TIP3    H263927   5.491   3.287  14.970 -0.7979  1.9129  0.3287
14146TIP3   OH263928   1.592   1.983   2.627 -0.4998  0.3124 -0.1711
14146TIP3    H163929   1.523   1.937   2.675 -2.9903  2.8388 -1.0552
14146TIP3    H263930   1.581   1.956   2.536  0.2393  0.1170 -0.2108
14147TIP3   OH263931   5.696   6.225   4.205 -0.4809  0.5064 -0.3746
14147TIP3    H163932   5.641   6.152   4.176 -1.1459  0.9565 -0.2554
14147TIP3    H263933   5.780   6.210   4.161 -0.8301  0.0448 -0.8953
14148TIP3   OH263934   5.974   2.863   5.117  0.3278  0.1885 -0.5475
14148TIP3    H163935   6.000   2.879   5.027  0.1634  0.3103 -0.5734
14148TIP3    H263936   6.042   2.804   5.151  1.8489  2.1843  0.0432
14149TIP3   OH263937   6.193   5.038  12.514 -0.1727  0.1803  0.4253
14149TIP3    H163938   6.196   5.110  12.577  0.5868 -0.9918  1.7955
14149TIP3    H263939   6.124   4.981  12.546  1.9915 -1.8189  1.8936
14150TIP3   OH263940   5.226   2.076   5.310 -0.2150  0.2419  0.2378
14150TIP3    H163941   5.197   2.077   5.402 -1.8611  0.5137 -0.2486
14150TIP3    H263942   5.161   2.130   5.264 -0.4166 -1.2876 -1.3672
14151TIP3   OH263943   6.083   4.037  17.077  0.0091  0.4462 -0.2628
14151TIP3    H163944   6.158   4.097  17.076 -0.4539  1.0335 -0.4390
14151TIP3    H263945   6.059   4.029  17.169  1.0848 -0.7736 -0.0609
14152TIP3   OH263946   2.465   5.228  11.694  0.0821  0.4618 -0.0046
14152TIP3    H163947   2.382   5.195  11.729  0.3828 -0.3031 -0.0051
14152TIP3    H263948   2.459   5.213  11.599  0.0338  0.8372 -0.0641
14153TIP3   OH263949   3.201   4.495  12.813  0.6235 -0.3244 -0.0814
14153TIP3    H163950   3.284   4.505  12.766  0.5388 -0.0680 -0.1811
14153TIP3    H263951   3.209   4.556  12.886  0.7163 -0.6523  0.1842
14154TIP3   OH263952   6.200   5.384  16.661 -0.0226 -0.2261  0.3289
14154TIP3    H163953   6.222   5.385  16.754  1.2432 -2.2210  0.1304
14154TIP3    H263954   6.105   5.391  16.658  0.0290  1.8983  1.6264
14155TIP3   OH263955   2.960   2.191  17.057 -0.1737  0.0276  0.0163
14155TIP3    H163956   2.938   2.118  17.115  1.5647 -1.3584 -0.9399
14155TIP3    H263957   2.945   2.269  17.110  0.5330 -1.1350  2.0652
14156TIP3   OH263958   0.979   5.136   0.743  0.0505 -0.1148 -0.3830
14156TIP3    H163959   1.066   5.131   0.784  0.0960 -0.6729 -0.5331
14156TIP3    H263960   0.931   5.064   0.784 -1.1307  1.6352  1.4945
14157TIP3   OH263961   6.504   3.487  16.324 -0.1556  0.2830 -0.4042
14157TIP3    H163962   6.552   3.560  16.285  0.5830  0.3495  0.5761
14157TIP3    H263963   6.524   3.493  16.418 -3.6269  1.4799  0.3954
14158TIP3   OH263964   1.568   3.225   4.111  0.2134 -0.1320  0.0396
14158TIP3    H163965   1.569   3.133   4.136  0.5889 -0.5513 -1.3859
14158TIP3    H263966   1.508   3.266   4.172  0.6536 -1.1668  1.2028
14159TIP3   OH263967   6.745   1.808  16.870  0.1585 -0.2085 -0.1025
14159TIP3    H163968   6.680   1.875  16.889 -0.4326 -0.8970  0.3903
14159TIP3    H263969   6.799   1.845  16.800  1.2017  1.6456  1.5686
14160TIP3   OH263970   3.416   6.593  15.237 -0.4172  0.1335  0.1481
14160TIP3    H163971   3.331   6.623  15.267  0.9282  2.5842  1.9225
14160TIP3    H263972   3.412   6.598  15.142 -1.9815  1.0707  0.2364
14161TIP3   OH263973   1.547   5.447   4.682  0.3290 -0.0709  0.4340
14161TIP3    H163974   1.521   5.484   4.766  0.7669 -0.3556  0.7038
14161TIP3    H263975   1.617   5.506   4.651 -1.0829  1.1205 -0.6367
14162TIP3   OH263976   3.912   2.710  11.805 -0.4023  0.4968 -0.4460
14162TIP3    H163977   3.975   2.775  11.835  1.6498 -1.3878 -0.4019
14162TIP3    H263978   3.933   2.631  11.854 -2.7877 -0.2733 -0.5040
14163TIP3   OH263979   0.999   1.028  13.892  0.4131  0.2656 -0.1284
14163TIP3    H163980   0.932   1.025  13.960  0.0673  0.7747 -0.4370
14163TIP3    H263981   0.968   1.095  13.831  0.2767 -0.7743 -1.2385
14164TIP3   OH263982   4.402   2.069   1.713  0.1802  0.3283 -0.6356
14164TIP3    H163983   4.492   2.052   1.738  0.3212  0.2997 -1.1498
14164TIP3    H263984   4.396   2.164   1.703  0.0283  0.3754 -0.1554
14165TIP3   OH263985   6.099   0.491  11.329  0.0304 -0.2451  0.0611
14165TIP3    H163986   6.117   0.543  11.250 -2.1683 -1.5150 -1.3936
14165TIP3    H263987   6.105   0.554  11.401 -3.7114  2.5117 -1.6903
14166TIP3   OH263988   4.684   3.885  14.816  0.1887 -0.3556 -0.2888
14166TIP3    H163989   4.674   3.843  14.902  1.2300  1.0233  0.5586
14166TIP3    H263990   4.670   3.815  14.753  0.3184 -1.6116  1.0266
14167TIP3   OH263991   6.524   1.726  14.576  0.2916  0.4000  0.5924
14167TIP3    H163992   6.606   1.680  14.559 -0.2369 -0.3374 -0.0186
14167TIP3    H263993   6.487   1.741  14.489  1.0117  3.0760  0.6614
14168TIP3   OH263994   0.093   1.797  16.630 -0.2937  0.0665  0.4426
14168TIP3    H163995   0.184   1.777  16.652 -0.4349 -2.3098 -0.7849
14168TIP3    H263996   0.099   1.865  16.562  0.6028 -0.4738 -0.0405
14169TIP3   OH263997   4.796   5.095   3.036 -0.5020  0.2163 -0.5523
14169TIP3    H163998   4.799   5.142   2.953  0.8889 -2.2690 -2.0271
14169TIP3    H263999   4.887   5.089   3.065 -0.7040 -0.8890 -0.0445
14170TIP3   OH264000   4.776   5.667  14.087 -0.4032 -0.1619 -0.4932
14170TIP3    H164001   4.766   5.603  14.016  1.2769 -1.7621  0.6387
14170TIP3    H264002   4.870   5.677  14.099 -0.6107  2.2935 -0.3587
14171TIP3   OH264003   4.548   5.050   0.917 -0.3269  0.0761 -0.1976
14171TIP3    H164004   4.502   5.130   0.946  1.2722  0.8825  0.2320
14171TIP3    H264005   4.523   4.984   0.981 -1.4737  0.2911 -0.4048
14172TIP3   OH264006   5.886   2.376  17.155  0.3888 -0.3721  0.6132
14172TIP3    H164007   5.872   2.288  17.189  0.0072  0.5609  3.0841
14172TIP3    H264008   5.857   2.434  17.225 -0.2783  1.7613 -1.2936
14173TIP3   OH264009   1.702   0.466   0.427 -0.2323  0.3539 -0.1863
14173TIP3    H164010   1.626   0.409   0.436 -1.1954  1.2828 -2.0132
14173TIP3    H264011   1.670   0.553   0.450  0.4469  0.6611 -0.3554
14174TIP3   OH264012   2.372   1.210  14.062 -0.3642 -0.3226 -0.0061
14174TIP3    H164013   2.432   1.270  14.019  2.0729 -1.1983  1.9283
14174TIP3    H264014   2.423   1.130  14.075 -2.5427 -1.7742  0.1493
14175TIP3   OH264015   2.342   0.926  11.925  0.2451  0.2211  0.0460
14175TIP3    H164016   2.428   0.933  11.965 -0.5196  1.1227  1.6559
14175TIP3    H264017   2.319   0.833  11.931  2.3994 -0.6988 -3.4312
14176TIP3   OH264018   2.449   0.813   0.960  0.8256  0.0566 -0.4104
14176TIP3    H164019   2.356   0.807   0.982  0.8626  0.5141 -0.1310
14176TIP3    H264020   2.456   0.891   0.906  0.9202 -0.4289 -1.1199
14177TIP3   OH264021   4.625   1.194   6.117  0.2647  0.7137  0.0384
14177TIP3    H164022   4.601   1.224   6.204 -1.0472  0.8182 -0.3429
14177TIP3    H264023   4.668   1.269   6.076  0.1531  0.9282  0.3152
14178TIP3   OH264024   3.227   4.218   6.204 -0.5981  0.0346 -0.2770
14178TIP3    H164025   3.205   4.133   6.243 -0.7473  0.0195 -0.3914
14178TIP3    H264026   3.242   4.198   6.112  2.0244 -0.3337  0.1456
14179TIP3   OH264027   0.468   4.655  11.551 -0.2357  0.0627  0.1489
14179TIP3    H164028   0.435   4.702  11.627 -0.3597  1.8521 -0.9724
14179TIP3    H264029   0.525   4.587  11.589 -1.9807 -0.5163  1.9034
14180TIP3   OH264030   2.558   2.685  13.320 -0.2147  0.0919 -0.4328
14180TIP3    H164031   2.520   2.660  13.404  2.0850 -0.5967  0.4708
14180TIP3    H264032   2.592   2.604  13.283  0.3127  0.6637 -1.2368
14181TIP3   OH264033   4.548   4.687  12.971 -0.2531 -0.1082 -0.8050
14181TIP3    H164034   4.515   4.768  13.010 -1.0181 -1.0210  0.5178
14181TIP3    H264035   4.638   4.709  12.945 -0.4756  1.1841 -0.5794
14182TIP3   OH264036   1.952   0.133  11.820 -0.3841  0.2786  0.3332
14182TIP3    H164037   1.905   0.168  11.744 -1.2769  0.9094  1.1695
14182TIP3    H264038   1.945   0.038  11.811 -1.0394  0.3596 -0.0272
14183TIP3   OH264039   3.108   3.623   0.821  0.9407 -0.3402 -0.2910
14183TIP3    H164040   3.037   3.619   0.885  1.6805 -0.2003  0.5680
14183TIP3    H264041   3.065   3.631   0.736 -0.0561  1.9114  0.3581
14184TIP3   OH264042   1.883   2.021  11.111 -0.8955  0.3250 -0.1514
14184TIP3    H164043   1.847   2.074  11.040 -1.6387 -0.3812 -0.3226
14184TIP3    H264044   1.870   2.073  11.189 -2.9369 -0.1649 -0.1133
14185TIP3   OH264045   2.560   4.713  11.412  0.0182 -0.2738  0.3142
14185TIP3    H164046   2.566   4.796  11.364  0.7184 -0.7689 -0.4828
14185TIP3    H264047   2.650   4.681  11.416 -0.4108 -1.7650 -0.8298
14186TIP3   OH264048   0.784   2.823   2.203 -0.0076  0.1753  0.7506
14186TIP3    H164049   0.708   2.804   2.258 -0.1900  1.9705  1.1492
14186TIP3    H264050   0.789   2.748   2.143 -0.2336 -1.4718  2.7029
14187TIP3   OH264051   6.538   5.192  11.601 -0.6824  0.0636 -0.1328
14187TIP3    H164052   6.501   5.212  11.687 -1.4736 -0.2301 -0.4012
14187TIP3    H264053   6.502   5.259  11.543 -0.0446  0.3441 -0.2243
14188TIP3   OH264054   6.825   0.361   2.505  0.1048  0.2008 -0.2459
14188TIP3    H164055   6.739   0.324   2.526  0.1272 -0.4614 -1.2366
14188TIP3    H264056   6.886   0.314   2.561 -0.0318 -0.2727 -0.4901
14189TIP3   OH264057   5.865   6.108   0.733 -0.1033  0.2023  0.1305
14189TIP3    H164058   5.798   6.046   0.704 -1.5582  1.0292  1.5634
14189TIP3    H264059   5.918   6.124   0.655 -2.3787  0.5319 -1.4326
14190TIP3   OH264060   1.754   1.470  15.429  0.4050 -0.1666  0.2279
14190TIP3    H164061   1.690   1.434  15.368 -1.2350  0.1979  1.6587
14190TIP3    H264062   1.782   1.395  15.482 -0.8077  0.0832  1.2762
14191TIP3   OH264063   6.005   2.007  15.965 -0.3257 -0.2887 -0.1892
14191TIP3    H164064   5.950   2.044  16.034  2.4672 -1.5672  3.0416
14191TIP3    H264065   6.041   2.083  15.919 -0.6410  0.7256  1.1814
14192TIP3   OH264066   2.282   4.713  13.229 -0.1740 -0.2946 -0.2745
14192TIP3    H164067   2.193   4.749  13.231 -0.3215 -0.6723  0.0146
14192TIP3    H264068   2.320   4.739  13.313  0.2538  0.5216 -0.7078
14193TIP3   OH264069   1.964   4.357  10.549  0.3069  0.4199 -0.1813
14193TIP3    H164070   1.916   4.418  10.492  0.5376  3.0843  2.2609
14193TIP3    H264071   1.898   4.298  10.583  0.1011 -0.9926 -2.7384
14194TIP3   OH264072   4.729   5.868  13.635 -0.3709 -0.2907 -0.5462
14194TIP3    H164073   4.742   5.954  13.675  1.0699  0.2160 -1.9959
14194TIP3    H264074   4.670   5.823  13.695 -0.8268  1.5438  0.4786
14195TIP3   OH264075   2.772   1.493   5.879  0.4507 -0.1221 -0.5466
14195TIP3    H164076   2.714   1.465   5.950  0.8986  0.4203  0.0434
14195TIP3    H264077   2.717   1.546   5.822  0.6895  1.7387  0.8506
14196TIP3   OH264078   3.523   4.026  16.252 -0.6920 -0.6775  0.1005
14196TIP3    H164079   3.503   3.988  16.338 -2.2488 -0.8473 -0.3154
14196TIP3    H264080   3.568   3.957  16.205  0.0783 -0.6208  0.7215
14197TIP3   OH264081   1.959   4.267  13.958 -0.1189  0.6350 -0.4712
14197TIP3    H164082   1.928   4.192  13.906 -0.9164 -1.4528  2.7017
14197TIP3    H264083   1.904   4.340  13.930 -0.6972 -0.4319 -2.2872
14198TIP3   OH264084   1.628   6.079  11.794 -0.2993 -0.1545  0.3128
14198TIP3    H164085   1.645   6.042  11.708 -1.9042  1.5422 -0.8277
14198TIP3    H264086   1.649   6.009  11.855 -1.9148 -2.4795 -1.6137
14199TIP3   OH264087   1.781   2.440  13.016  0.3394  0.4975 -0.5385
14199TIP3    H164088   1.835   2.380  13.069  0.8067  0.6382 -0.8540
14199TIP3    H264089   1.696   2.439  13.059 -0.8830 -3.3147 -2.5922
14200TIP3   OH264090   0.522   1.957   0.728  0.4153  0.3448  0.2964
14200TIP3    H164091   0.507   1.997   0.814  2.4344  1.9777 -0.0378
14200TIP3    H264092   0.500   2.025   0.665 -0.4237 -0.6270 -0.4859
14201TIP3   OH264093   4.793   6.583   1.280  0.1275  0.3123  0.0460
14201TIP3    H164094   4.802   6.590   1.185  0.8091  1.5722  0.1917
14201TIP3    H264095   4.856   6.514   1.305  0.4998  0.5070 -0.3387
14202TIP3   OH264096   2.364   1.893  12.162 -0.1545  0.1735  0.1036
14202TIP3    H164097   2.367   1.821  12.226  0.2440  0.4538  0.3983
14202TIP3    H264098   2.390   1.852  12.079  0.3805  0.0410  0.3314
14203TIP3   OH264099   1.688   4.033   1.347 -0.7882  0.3757  0.4376
14203TIP3    H164100   1.725   3.944   1.353 -0.4631  0.4355 -0.4437
14203TIP3    H264101   1.627   4.028   1.273 -0.5123  0.9723  0.1649
14204TIP3   OH264102   2.186   5.566   2.773  1.1219 -0.0543  0.0199
14204TIP3    H164103   2.109   5.620   2.757 -0.6222 -2.9765 -2.4652
14204TIP3    H264104   2.233   5.566   2.690  1.2295 -2.0436  0.0497
14205TIP3   OH264105   4.977   6.706  14.504 -0.1863  0.0059 -0.0685
14205TIP3    H164106   5.046   6.672  14.447  0.2481  1.5241 -0.4932
14205TIP3    H264107   4.910   6.738  14.444  0.7421  2.5926  0.1441
14206TIP3   OH264108   3.830   5.765  14.917 -0.1831  0.2769  0.0054
14206TIP3    H164109   3.913   5.748  14.962 -0.2238 -0.7932 -0.3028
14206TIP3    H264110   3.852   5.831  14.851  0.4810 -0.1361 -0.2017
14207TIP3   OH264111   1.121   1.232   3.908 -0.6356  0.0008  0.1599
14207TIP3    H164112   1.098   1.322   3.884 -0.3604  0.2150  0.6922
14207TIP3    H264113   1.090   1.179   3.834  2.0956  0.8413 -1.7745
14208TIP3   OH264114   1.622   0.509   4.043  0.4267 -0.0215 -0.5179
14208TIP3    H164115   1.685   0.447   4.079 -0.3859 -1.2245 -1.0927
14208TIP3    H264116   1.669   0.555   3.973  0.6334 -0.9750 -1.0092
14209TIP3   OH264117   2.605   5.588  13.206 -0.1538 -0.5236  0.2880
14209TIP3    H164118   2.561   5.557  13.127  0.6976 -2.0459  0.3679
14209TIP3    H264119   2.697   5.590  13.183  0.0889 -0.8338  1.1949
14210TIP3   OH264120   2.910   6.399   4.468 -0.2893 -0.1772  0.4662
14210TIP3    H164121   2.859   6.323   4.498 -0.8855 -0.5054 -1.2922
14210TIP3    H264122   2.938   6.376   4.379  4.5825 -0.8526  1.8535
14211TIP3   OH264123   5.091   0.982   6.081 -0.1744 -0.2265  0.5797
14211TIP3    H164124   5.047   0.901   6.108 -0.0062  0.2450  2.3737
14211TIP3    H264125   5.159   0.954   6.020 -1.2102 -1.2433 -0.1508
14212TIP3   OH264126   5.756   1.168  15.072 -0.1966 -0.1442  0.0465
14212TIP3    H164127   5.760   1.137  14.982  0.9098  0.1174 -0.0010
14212TIP3    H264128   5.807   1.249  15.072 -1.6809  0.8438  0.5208
14213TIP3   OH264129   6.261   3.703   2.925  0.5835  0.4061  0.1541
14213TIP3    H164130   6.350   3.699   2.890  0.4154 -2.5417 -0.1891
14213TIP3    H264131   6.243   3.614   2.957 -1.8889  1.1565  1.1124
14214TIP3   OH264132   0.525   5.624  13.043  0.0647  0.6075 -0.7382
14214TIP3    H164133   0.569   5.708  13.055  1.8762 -0.3962  0.2160
14214TIP3    H264134   0.519   5.587  13.132  0.0442 -0.5949 -1.2129
14215TIP3   OH264135   2.869   0.072   5.506 -0.1056 -0.9446 -0.3367
14215TIP3    H164136   2.954   0.041   5.473  0.5504  0.2450  0.1813
14215TIP3    H264137   2.860   0.030   5.591 -1.9752 -4.3249 -1.9916
14216TIP3   OH264138   2.553   5.265   3.123 -0.0594 -0.6002  0.5022
14216TIP3    H164139   2.488   5.314   3.174  0.0196 -0.3146  0.3304
14216TIP3    H264140   2.608   5.223   3.190  0.4876  0.3540  0.6782
14217TIP3   OH264141   3.803   0.052   3.736 -0.2602 -0.9159  0.1436
14217TIP3    H164142   3.753   0.083   3.661  1.6033 -1.3769 -1.3649
14217TIP3    H264143   3.802  -0.043   3.729  0.5645 -0.9413  0.2471
14218TIP3   OH264144   1.061   5.531  13.730  0.1778 -0.5882 -0.1345
14218TIP3    H164145   1.153   5.518  13.753  0.5000  0.6624 -0.6104
14218TIP3    H264146   1.019   5.447  13.748  1.6852 -1.6336 -1.2850
14219TIP3   OH264147   0.301   0.827  16.652  0.0686 -0.1125 -0.2056
14219TIP3    H164148   0.338   0.872  16.728 -1.4429  1.3840 -0.2983
14219TIP3    H264149   0.214   0.798  16.680 -0.1260 -0.4096 -1.0621
14220TIP3   OH264150   3.986   3.321  12.913 -0.3416  0.1355  0.0551
14220TIP3    H164151   3.925   3.272  12.967  0.5291  0.1726  1.1019
14220TIP3    H264152   4.050   3.256  12.883 -0.0621  0.3478  0.1814
14221TIP3   OH264153   1.712   5.307   3.647  0.2436 -0.0167 -0.3938
14221TIP3    H164154   1.732   5.293   3.740  1.7002 -0.5866 -0.7732
14221TIP3    H264155   1.668   5.226   3.620  2.0917 -0.9360 -0.7902
14222TIP3   OH264156   2.395   2.834  13.169  0.5267 -0.3661 -0.1163
14222TIP3    H164157   2.453   2.786  13.228 -1.0532  0.1958  2.0055
14222TIP3    H264158   2.322   2.774  13.154 -0.1433  0.3291  0.3152
14223TIP3   OH264159   3.637   4.308   1.681 -0.0732 -0.0125  0.8084
14223TIP3    H164160   3.697   4.381   1.667 -0.0270 -0.2392 -0.2449
14223TIP3    H264161   3.632   4.299   1.776  0.9345  0.5184  0.9247
14224TIP3   OH264162   5.015   6.534  13.859  0.0470 -0.5085 -0.2129
14224TIP3    H164163   5.019   6.558  13.766 -0.0431 -1.2130 -0.4017
14224TIP3    H264164   4.983   6.444  13.860  0.6566 -0.7289  0.4707
14225TIP3   OH264165   5.879   5.153  10.532 -0.6087  0.1096 -0.4243
14225TIP3    H164166   5.791   5.191  10.539 -0.4934  0.3221 -0.1219
14225TIP3    H264167   5.881   5.115  10.444 -0.4245  1.6002 -1.1011
14226TIP3   OH264168   1.573   5.410   0.320  0.3161  0.1042 -0.3472
14226TIP3    H164169   1.668   5.402   0.306  0.2809 -0.9948 -0.0506
14226TIP3    H264170   1.565   5.433   0.413  0.2983  0.3825 -0.4176
14227TIP3   OH264171   4.641   5.073   0.132 -1.0218 -0.0101 -0.3247
14227TIP3    H164172   4.600   5.032   0.208  0.6193 -3.2747 -1.0075
14227TIP3    H264173   4.735   5.061   0.147 -0.4771  2.5101 -1.2571
14228TIP3   OH264174   3.084   5.666  12.179 -0.5149  0.2512 -0.0970
14228TIP3    H164175   3.078   5.751  12.221  1.0443  0.7348 -0.7596
14228TIP3    H264176   3.168   5.630  12.209  0.3844  0.3681 -2.2411
14229TIP3   OH264177   3.191   5.635  12.560 -0.1815  0.3376  0.0937
14229TIP3    H164178   3.272   5.606  12.518 -0.1928 -0.1103  0.3837
14229TIP3    H264179   3.163   5.711  12.507  0.6507  0.7683  0.2553
14230TIP3   OH264180   6.773   4.107   4.974  0.0274  0.0476  0.1228
14230TIP3    H164181   6.863   4.124   5.000  0.2325 -0.8877  0.0327
14230TIP3    H264182   6.726   4.096   5.056  0.4078 -1.5185  0.1613
14231TIP3   OH264183   5.811   6.430   0.631 -0.0998  0.5660 -0.3731
14231TIP3    H164184   5.758   6.357   0.666 -0.3288  1.3400  0.9445
14231TIP3    H264185   5.826   6.406   0.540 -0.8853 -0.7351 -0.1924
14232TIP3   OH264186   0.753   2.924  12.417 -0.0529 -0.0627 -0.2313
14232TIP3    H164187   0.798   2.856  12.366 -0.4164 -0.5420  0.0834
14232TIP3    H264188   0.661   2.901  12.412 -0.4985  1.7648 -2.1628
14233TIP3   OH264189   3.782   5.197  11.165  0.2361 -0.8570  0.3129
14233TIP3    H164190   3.814   5.159  11.083 -0.2265  1.4411 -1.0035
14233TIP3    H264191   3.707   5.143  11.189 -0.3699 -0.8529 -1.4624
14234TIP3   OH264192   0.443   2.400  11.586  0.1309 -0.2647  0.1843
14234TIP3    H164193   0.500   2.349  11.529 -0.2322 -0.0228 -0.4122
14234TIP3    H264194   0.420   2.340  11.657  0.6351 -0.5544  0.1059
14235TIP3   OH264195   6.218   3.682   2.624 -0.4635  0.0221 -0.0143
14235TIP3    H164196   6.241   3.774   2.637 -0.1740  0.0224 -0.5013
14235TIP3    H264197   6.220   3.644   2.712  1.9615 -0.1030 -0.0509
14236TIP3   OH264198   0.902   5.609  15.973 -0.2330 -0.0007  0.4243
14236TIP3    H164199   0.946   5.595  16.056  2.6983  0.5961 -0.9178
14236TIP3    H264200   0.946   5.549  15.912 -1.1228  0.8062 -1.0796
14237TIP3   OH264201   3.753   0.483  13.088  0.0881  0.1522 -0.3948
14237TIP3    H164202   3.780   0.485  13.180  0.2309 -0.4782 -0.4164
14237TIP3    H264203   3.786   0.399  13.055  0.7740  0.7369 -1.2452
14238TIP3   OH264204   4.016   5.743   0.936 -0.3437 -0.0548 -0.4702
14238TIP3    H164205   3.970   5.733   1.019 -0.9903  0.4241 -0.7642
14238TIP3    H264206   3.997   5.662   0.889  2.1090 -1.5045  0.8056
14239TIP3   OH264207   3.008   0.924  16.381 -0.1413  0.4884  0.5741
14239TIP3    H164208   2.928   0.878  16.354 -0.5026  0.9652  0.8177
14239TIP3    H264209   3.044   0.960  16.299 -1.2215  1.9137  0.6890
14240TIP3   OH264210   3.520   0.504   3.290 -0.7252  0.2263 -0.0764
14240TIP3    H164211   3.593   0.557   3.322 -1.9768  0.7392  2.1096
14240TIP3    H264212   3.560   0.423   3.260  0.6041 -0.5370  3.3610
14241TIP3   OH264213   0.701   0.009   4.571  0.4055  0.2685 -0.2746
14241TIP3    H164214   0.672  -0.006   4.661  1.5150 -1.4572 -0.1476
14241TIP3    H264215   0.752   0.090   4.576  1.2987 -0.3201  0.9071
14242TIP3   OH264216   1.569   1.557   5.120 -0.2727 -0.7316 -0.6312
14242TIP3    H164217   1.530   1.593   5.200  0.5096 -1.5141  0.1157
14242TIP3    H264218   1.656   1.528   5.146  0.4634  0.0735 -2.0428
14243TIP3   OH264219   2.246   2.271  11.722  0.3863 -0.4096 -0.5826
14243TIP3    H164220   2.239   2.294  11.629  0.7282  0.0287 -0.5027
14243TIP3    H264221   2.170   2.214  11.738 -1.2425  1.6514 -0.5017
14244TIP3   OH264222   3.640   2.005   0.187  0.0991 -0.5926  0.2732
14244TIP3    H164223   3.582   2.077   0.211  0.1530 -0.0864 -1.0103
14244TIP3    H264224   3.581   1.934   0.164 -0.1121  0.1362 -1.6973
14245TIP3   OH264225   0.584   6.278   6.443  0.3335 -0.3811  0.2236
14245TIP3    H164226   0.493   6.262   6.470 -0.9171  1.0433 -2.6147
14245TIP3    H264227   0.620   6.191   6.425 -0.6171 -0.9486  0.9943
14246TIP3   OH264228   1.556   0.061  16.840 -0.7498  0.7908  0.0477
14246TIP3    H164229   1.478   0.108  16.809 -2.5707 -1.2737  1.1971
14246TIP3    H264230   1.540   0.046  16.933  0.7653 -0.1684  0.1974
14247TIP3   OH264231   5.460   2.613  11.654 -0.5957  0.2342  0.0275
14247TIP3    H164232   5.396   2.609  11.725  0.3016  2.5239  1.0665
14247TIP3    H264233   5.545   2.602  11.698 -0.0820  0.8673 -0.7800
14248TIP3   OH264234   3.972   3.924  13.012 -0.1792 -0.0969 -0.4180
14248TIP3    H164235   3.927   3.931  13.097 -2.0088  0.3606 -1.3736
14248TIP3    H264236   4.015   4.009  13.001 -1.5010  0.5611 -0.7512
14249TIP3   OH264237   5.916   6.540   3.508 -0.3231 -0.0026 -0.2096
14249TIP3    H164238   6.007   6.535   3.481 -0.1353 -0.8858  0.5269
14249TIP3    H264239   5.919   6.544   3.604 -1.0702 -2.6120  0.0337
14250TIP3   OH264240   6.157   6.188  12.586 -0.0573 -0.2207  0.1239
14250TIP3    H164241   6.231   6.204  12.529  0.2869 -3.0061 -0.3834
14250TIP3    H264242   6.187   6.120  12.646 -1.7909 -0.4900  0.7507
14251TIP3   OH264243   6.455   1.558   5.907 -0.2223  0.3099 -0.9348
14251TIP3    H164244   6.505   1.565   5.826 -1.2847 -1.8639 -1.8751
14251TIP3    H264245   6.515   1.516   5.969  0.9561  2.9510 -0.1715
14252TIP3   OH264246   6.362   0.648  12.004  0.3887  0.0233 -0.2223
14252TIP3    H164247   6.271   0.672  11.985 -0.5739 -2.3109  1.0261
14252TIP3    H264248   6.369   0.656  12.099  0.7190 -2.1374 -0.0283
14253TIP3   OH264249   4.261   4.948   3.934  0.1357  0.0325  0.0371
14253TIP3    H164250   4.295   5.029   3.972  0.9157 -0.5940  0.7006
14253TIP3    H264251   4.273   4.882   4.002 -0.1353 -0.7295 -0.6362
14254TIP3   OH264252   4.536   1.499   0.600  0.6578  0.1708 -0.1938
14254TIP3    H164253   4.500   1.504   0.689  2.8990  1.8028  0.7443
14254TIP3    H264254   4.479   1.555   0.548  0.5554  0.9800  0.7494
14255TIP3   OH264255   0.077   4.190  14.405 -0.4159  0.1689 -0.0821
14255TIP3    H164256  -0.018   4.199  14.399 -0.4660 -0.6792 -0.7036
14255TIP3    H264257   0.111   4.270  14.364 -0.8592  0.1266 -0.5418
14256TIP3   OH264258   0.783   6.030   6.069  0.1177 -0.5996 -0.1979
14256TIP3    H164259   0.867   5.990   6.094 -0.4245 -0.3767  2.2036
14256TIP3    H264260   0.717   5.970   6.103 -0.6877  1.0860  1.3494
14257TIP3   OH264261   6.657   1.876  14.763  0.0539  0.1000  0.3361
14257TIP3    H164262   6.639   1.957  14.716  1.1826  0.8580  1.1616
14257TIP3    H264263   6.614   1.808  14.711 -2.6064  1.4184  0.6379
14258TIP3   OH264264   5.814   0.193   2.265  0.5772 -0.3167 -0.1790
14258TIP3    H164265   5.802   0.288   2.261  2.0946 -0.1340 -1.8564
14258TIP3    H264266   5.887   0.181   2.327 -0.6826 -0.5588  1.3171
14259TIP3   OH264267   0.732   2.182  10.619 -0.3010  0.3728 -0.4687
14259TIP3    H164268   0.773   2.216  10.540 -0.2614  1.3095 -0.0511
14259TIP3    H264269   0.646   2.152  10.589 -1.0394  2.4341 -0.5559
14260TIP3   OH264270   2.133   4.496  10.743 -0.3063  0.1588  0.1200
14260TIP3    H164271   2.084   4.476  10.663  1.0123 -0.3563 -0.6013
14260TIP3    H264272   2.069   4.534  10.802 -1.5065 -0.2630 -0.8701
14261TIP3   OH264273   2.057   4.792  11.656  0.1912  0.1915 -0.0630
14261TIP3    H164274   2.028   4.724  11.595  2.7651  1.6710 -3.2676
14261TIP3    H264275   2.129   4.752  11.704 -0.8528 -0.5131  0.9497
14262TIP3   OH264276   5.148   3.972  15.484  0.1730 -0.3612  0.6749
14262TIP3    H164277   5.126   3.902  15.545 -2.2326 -2.3126 -2.1944
14262TIP3    H264278   5.092   4.045  15.510  0.9158 -0.2795  2.1733
14263TIP3   OH264279   5.670   3.514   2.562  0.2369 -0.2722 -0.1764
14263TIP3    H164280   5.757   3.485   2.532 -0.0357 -0.4688 -0.8068
14263TIP3    H264281   5.682   3.535   2.654  1.2516  0.8693 -0.5419
14264TIP3   OH264282   4.454   1.578   6.058  0.0115 -0.2127  0.1144
14264TIP3    H164283   4.492   1.551   6.142 -0.0550 -1.2104 -0.1540
14264TIP3    H264284   4.359   1.582   6.075  0.0044 -0.3491  0.1137
14265TIP3   OH264285   3.964   6.587  12.564  0.2536 -0.1831 -0.3697
14265TIP3    H164286   4.035   6.553  12.619  0.1908  0.0887 -0.1176
14265TIP3    H264287   3.892   6.603  12.625  0.6544  1.4797 -0.2997
14266TIP3   OH264288   4.396   2.593   4.476  0.1393 -0.4578 -0.1492
14266TIP3    H164289   4.355   2.546   4.402 -0.0784 -1.5400  0.6357
14266TIP3    H264290   4.486   2.560   4.478 -0.8764 -3.5440  2.4733
14267TIP3   OH264291   1.773   6.095  10.533 -0.2278  0.1702  0.0692
14267TIP3    H164292   1.774   5.999  10.533  0.5337  0.1761  0.3544
14267TIP3    H264293   1.766   6.120  10.441 -0.7364 -0.1539  0.0127
14268TIP3   OH264294   5.813   0.952   1.622  0.0412  0.2332 -0.5816
14268TIP3    H164295   5.855   0.936   1.538  0.1997 -0.8112 -0.3163
14268TIP3    H264296   5.856   1.031   1.656 -0.6609  1.1970 -1.8712
14269TIP3   OH264297   3.230   5.410  10.493 -0.5472  0.4030 -0.1167
14269TIP3    H164298   3.236   5.458  10.576 -1.6360  2.1797 -1.0002
14269TIP3    H264299   3.252   5.319  10.516 -0.1586  0.9694  1.9691
14270TIP3   OH264300   2.029   1.091  16.159 -0.2885  0.2960 -0.4681
14270TIP3    H164301   2.120   1.059  16.155 -0.0138  1.1222 -1.3475
14270TIP3    H264302   1.988   1.056  16.080 -1.4698 -2.0649  1.0763
14271TIP3   OH264303   1.388   6.500  15.295  0.3533 -0.3380  0.2385
14271TIP3    H164304   1.303   6.474  15.330  1.3131 -2.0240  1.4745
14271TIP3    H264305   1.436   6.418  15.283  1.0575  0.3680 -2.6053
14272TIP3   OH264306   4.354   6.446  11.948  0.7622 -0.3049  0.4231
14272TIP3    H164307   4.374   6.533  11.982 -2.4741  0.1565  1.5490
14272TIP3    H264308   4.295   6.408  12.014  0.7462 -2.6837 -0.8538
14273TIP3   OH264309   1.165   5.349   1.304  0.1297 -0.0564  0.4197
14273TIP3    H164310   1.164   5.383   1.214  0.4560 -1.6232 -0.2102
14273TIP3    H264311   1.256   5.321   1.318  0.4454  1.5097  1.7986
14274TIP3   OH264312   3.367   5.740   5.303 -0.7104 -0.0919 -0.2883
14274TIP3    H164313   3.404   5.828   5.314 -0.7124 -0.2049  0.6663
14274TIP3    H264314   3.278   5.747   5.338 -0.6974 -0.4902 -0.1787
14275TIP3   OH264315   4.389   2.379   3.448  0.4592 -0.1382 -0.7628
14275TIP3    H164316   4.456   2.313   3.462  1.5727  1.2846  1.0324
14275TIP3    H264317   4.371   2.415   3.535 -3.1397 -0.8596 -1.0376
14276TIP3   OH264318   2.261   1.060   3.256 -0.1190  0.1634  0.3967
14276TIP3    H164319   2.176   1.084   3.294 -1.0057 -2.5843  0.4106
14276TIP3    H264320   2.247   1.064   3.161  0.5309  2.0800  0.3536
14277TIP3   OH264321   0.507   1.223  12.585 -0.2599 -0.0923  0.5038
14277TIP3    H164322   0.590   1.270  12.591 -0.7222  0.6558  1.2128
14277TIP3    H264323   0.532   1.131  12.587  0.4812  0.1053  2.2972
14278TIP3   OH264324   3.868   0.255  16.795  0.5119 -0.2789 -0.3476
14278TIP3    H164325   3.854   0.232  16.703 -0.1414 -1.1924 -0.0367
14278TIP3    H264326   3.945   0.205  16.822  0.8725  0.2053 -0.4669
14279TIP3   OH264327   0.261   6.617  12.510 -0.2829 -0.6757 -0.0452
14279TIP3    H164328   0.171   6.626  12.480 -0.5284 -2.9357 -0.1514
14279TIP3    H264329   0.278   6.523  12.508  1.8667 -0.3627  0.6226
14280TIP3   OH264330   1.598   6.386  15.955 -0.0062 -0.0888  0.2314
14280TIP3    H164331   1.649   6.465  15.938 -0.9569  0.4420 -0.2494
14280TIP3    H264332   1.635   6.350  16.035  1.1216  0.2702 -0.1155
14281TIP3   OH264333   3.467   1.075   1.751  0.0659  0.5515  0.3630
14281TIP3    H164334   3.542   1.016   1.747  0.5746  1.0466  1.7678
14281TIP3    H264335   3.455   1.106   1.662  2.7216  1.8934  0.3984
14282TIP3   OH264336   5.630   4.700   2.227  0.0844 -0.7674  0.2230
14282TIP3    H164337   5.612   4.731   2.316  0.0969 -0.1236  0.0099
14282TIP3    H264338   5.596   4.611   2.225 -1.3734 -0.2423  0.4019
14283TIP3   OH264339   0.650   5.773   4.298  0.1680  0.3004  0.2093
14283TIP3    H164340   0.697   5.714   4.357  2.2990  0.4190 -1.2480
14283TIP3    H264341   0.640   5.854   4.349  0.6301 -0.0785  0.9155
14284TIP3   OH264342   1.587   2.391  13.257  0.1277  0.4191  0.3628
14284TIP3    H164343   1.524   2.422  13.322 -0.5777 -1.3391  0.5783
14284TIP3    H264344   1.533   2.353  13.188  0.9307  0.3762 -0.2536
14285TIP3   OH264345   5.577   2.507  17.194 -0.5375 -0.0676 -0.3518
14285TIP3    H164346   5.625   2.477  17.271 -0.3095 -0.5453 -0.6757
14285TIP3    H264347   5.491   2.533  17.228  0.1614  1.4466  0.3334
14286TIP3   OH264348   0.581   0.939  14.385  0.1210 -0.4284  0.6203
14286TIP3    H164349   0.650   0.883  14.347  0.9941 -0.1431  1.7354
14286TIP3    H264350   0.505   0.881  14.392  0.5626 -1.0532  0.3598
14287TIP3   OH264351   0.295   3.045   1.257 -0.1084 -0.2792  0.0948
14287TIP3    H164352   0.224   2.992   1.294 -1.1645  1.0320  0.0620
14287TIP3    H264353   0.263   3.068   1.169  1.1804 -1.1401 -0.6263
14288TIP3   OH264354   1.209   0.030  12.490  0.4221 -0.2799 -0.6209
14288TIP3    H164355   1.206   0.067  12.578  1.0235 -0.8361 -0.3630
14288TIP3    H264356   1.241   0.101  12.435 -1.6219  0.6376 -0.7067
14289TIP3   OH264357   3.039   3.457  10.646 -0.5403 -0.1683 -0.3297
14289TIP3    H164358   2.957   3.468  10.598 -1.0509  0.7528  0.7137
14289TIP3    H264359   3.106   3.489  10.585 -1.2107  1.3223 -0.3338
14290TIP3   OH264360   6.536   3.544   0.477  0.3337 -0.0151 -0.3646
14290TIP3    H164361   6.611   3.565   0.532 -0.1146  1.7841 -0.3719
14290TIP3    H264362   6.573   3.527   0.390  0.7254  1.0328 -0.4101
14291TIP3   OH264363   1.650   4.271  16.913  0.5414  0.1465  0.1382
14291TIP3    H164364   1.655   4.235  16.825 -0.5331  0.2119  0.0375
14291TIP3    H264365   1.562   4.246  16.944  0.5646  0.8997  0.8412
14292TIP3   OH264366   1.925   1.609   2.443 -0.2236 -0.3815 -0.2326
14292TIP3    H164367   1.945   1.679   2.380 -0.1554  1.3133  1.5704
14292TIP3    H264368   1.876   1.653   2.512 -1.8261 -2.5443  0.0805
14293TIP3   OH264369   0.622   0.256   4.709  0.1209 -0.1962  0.0739
14293TIP3    H164370   0.635   0.171   4.750  0.5827 -0.1293  0.0668
14293TIP3    H264371   0.655   0.320   4.772 -1.7961  0.1111  0.8211
14294TIP3   OH264372   6.028   1.587   2.502  0.2347  0.0324 -0.1642
14294TIP3    H164373   6.055   1.656   2.441 -0.1783  1.3394  1.0929
14294TIP3    H264374   5.942   1.615   2.534 -1.2720 -2.4773 -1.6953
14295TIP3   OH264375   2.744   1.260  15.473  0.1785  0.1100 -0.6668
14295TIP3    H164376   2.702   1.177  15.496 -1.9047  0.5213 -2.5324
14295TIP3    H264377   2.762   1.252  15.379 -0.4486  1.8726 -0.9777
14296TIP3   OH264378   0.062   6.130  15.104 -0.2411 -0.5187 -0.7841
14296TIP3    H164379  -0.025   6.168  15.087  0.1264  0.2898 -0.9265
14296TIP3    H264380   0.053   6.038  15.081 -1.4565 -0.7676  0.5584
14297TIP3   OH264381   4.095   4.411   5.514 -0.2276 -0.1419  0.2943
14297TIP3    H164382   4.114   4.318   5.525  1.5732  0.1088 -0.3059
14297TIP3    H264383   4.107   4.448   5.602  1.5031 -0.1198  0.0810
14298TIP3   OH264384   4.633   5.559   5.586 -0.2886  0.3979  0.1404
14298TIP3    H164385   4.561   5.508   5.550  0.4562  0.5319 -1.6631
14298TIP3    H264386   4.604   5.585   5.673 -1.2811 -1.8443  0.5243
14299TIP3   OH264387   6.733   1.319   0.320  0.0520 -0.4228 -0.0188
14299TIP3    H164388   6.824   1.352   0.318  0.5337 -1.4362  2.5012
14299TIP3    H264389   6.709   1.312   0.227  1.9458  1.4436 -0.7413
14300TIP3   OH264390   5.686   4.505  12.794  0.4382 -0.0781  0.5127
14300TIP3    H164391   5.716   4.560  12.867 -0.6912  1.9423 -0.4363
14300TIP3    H264392   5.759   4.505  12.733  1.0904 -1.1145  1.2622
14301TIP3   OH264393   5.144   1.277  13.247  0.4152  0.2478 -0.0524
14301TIP3    H164394   5.063   1.296  13.200  1.0055  1.0277 -0.7870
14301TIP3    H264395   5.209   1.336  13.208  1.9264 -2.0313 -1.1821
14302TIP3   OH264396   0.232   6.502   3.197 -0.1383 -0.1400 -0.0594
14302TIP3    H164397   0.226   6.426   3.140 -4.7806 -0.4632  0.5349
14302TIP3    H264398   0.241   6.465   3.285  1.0951  0.2001 -0.0169
14303TIP3   OH264399   1.479   4.965   0.069  0.1618 -0.2101  0.1919
14303TIP3    H164400   1.392   5.004   0.060 -0.2622 -1.0712  0.4955
14303TIP3    H264401   1.475   4.885   0.017  0.3681 -0.8931  1.2142
14304TIP3   OH264402   1.256   1.052  15.943 -0.2296 -0.3217 -0.3217
14304TIP3    H164403   1.213   1.002  16.012 -1.9325 -2.1881 -2.5553
14304TIP3    H264404   1.185   1.103  15.903  0.5477  0.1085 -1.1822
14305TIP3   OH264405   4.225   2.486   1.122  0.7634 -0.6475  0.0404
14305TIP3    H164406   4.144   2.507   1.169  1.4571  0.9269  0.6016
14305TIP3    H264407   4.276   2.434   1.183  1.2908  0.6586  0.7608
14306TIP3   OH264408   3.431   2.794  13.994  0.4712 -0.0589 -0.0551
14306TIP3    H164409   3.350   2.813  13.947  2.2189  1.1993 -2.8671
14306TIP3    H264410   3.468   2.718  13.949  1.4042  0.1169  0.3821
14307TIP3   OH264411   5.234   3.104  16.036 -0.0877  0.0606 -0.2523
14307TIP3    H164412   5.326   3.086  16.057 -0.1778  0.9230  0.9872
14307TIP3    H264413   5.233   3.117  15.942  0.5803 -2.7451 -0.7505
14308TIP3   OH264414   0.701   4.875  11.876  0.2136 -0.3606 -0.2952
14308TIP3    H164415   0.683   4.781  11.881 -1.3766 -0.0014  2.6568
14308TIP3    H264416   0.630   4.911  11.824 -0.0146 -0.5951 -0.1444
14309TIP3   OH264417   2.279   5.854  15.477  0.4229  0.2482 -0.2288
14309TIP3    H164418   2.348   5.854  15.544 -0.0214 -2.7045  0.3527
14309TIP3    H264419   2.200   5.881  15.524  0.2783 -1.0156  0.2969
14310TIP3   OH264420   1.006   4.303  16.218 -0.3497  0.4465  0.0620
14310TIP3    H164421   0.985   4.356  16.295 -0.0055  0.5598  0.0810
14310TIP3    H264422   1.096   4.274  16.233 -0.3390  0.3324 -0.2204
14311TIP3   OH264423   0.729   1.999  12.238 -0.6739  0.3696 -0.2824
14311TIP3    H164424   0.765   1.913  12.263  0.1412  0.2912 -1.6170
14311TIP3    H264425   0.798   2.039  12.185 -1.1947  1.7152  0.0184
14312TIP3   OH264426   3.429   5.435  11.652  0.4187  0.0683  0.7345
14312TIP3    H164427   3.452   5.383  11.730 -1.8197 -0.9488  0.7970
14312TIP3    H264428   3.374   5.505  11.687 -0.7863 -0.5245  0.0915
14313TIP3   OH264429   4.778   4.382  12.599 -0.3056 -0.4601 -0.0546
14313TIP3    H164430   4.736   4.466  12.584  0.5848  0.0268  0.0838
14313TIP3    H264431   4.872   4.403  12.604 -0.1918 -1.2256  1.6072
14314TIP3   OH264432   0.326   2.712   1.069  0.1634 -0.5889 -0.0449
14314TIP3    H164433   0.307   2.658   1.146  0.6122  0.3043  0.7210
14314TIP3    H264434   0.416   2.743   1.083 -0.3734  1.0340 -0.0201
14315TIP3   OH264435   2.960   6.114   3.413 -0.7248 -0.5833 -0.2852
14315TIP3    H164436   3.020   6.129   3.486 -1.3449 -0.1446  0.1498
14315TIP3    H264437   2.965   6.020   3.397 -1.4428 -0.8952  1.1039
14316TIP3   OH264438   2.093   6.215   2.987  0.3239  0.3100  0.1050
14316TIP3    H164439   2.140   6.259   2.916  2.0833 -0.3187  0.8183
14316TIP3    H264440   2.039   6.150   2.942  0.7376  0.5180 -0.7210
14317TIP3   OH264441   6.504   6.823  11.970  0.2695 -0.0370 -0.2877
14317TIP3    H164442   6.524   6.805  11.878 -0.1364 -1.1050 -0.1801
14317TIP3    H264443   6.561   6.896  11.993  1.0273 -0.3436 -1.1420
14318TIP3   OH264444   5.046   3.305   5.569  0.0731 -0.1448 -0.4439
14318TIP3    H164445   4.952   3.308   5.590  0.3920 -1.3747  1.3568
14318TIP3    H264446   5.073   3.396   5.570 -0.8649  0.1497  0.2882
14319TIP3   OH264447   0.351   4.422  16.100  0.0202 -0.2845 -0.0769
14319TIP3    H164448   0.406   4.498  16.083  0.9703 -0.8342  0.3732
14319TIP3    H264449   0.390   4.352  16.046 -1.2512 -0.2976 -1.0143
14320TIP3   OH264450   3.089   3.028  17.114  0.3996  0.0414  0.2413
14320TIP3    H164451   3.023   3.096  17.128  1.8622  1.5638 -0.0763
14320TIP3    H264452   3.041   2.957  17.071 -1.0917  0.9805  0.2863
14321TIP3   OH264453   2.491   6.673  15.254  0.4236  0.3787 -0.2234
14321TIP3    H164454   2.468   6.611  15.185 -1.0064  2.0265 -1.3185
14321TIP3    H264455   2.540   6.621  15.318  2.0314 -1.1756 -2.5596
14322TIP3   OH264456   3.545   6.295  10.956 -0.3214 -0.2703  0.1599
14322TIP3    H164457   3.582   6.206  10.958 -0.5604 -0.4158  2.8928
14322TIP3    H264458   3.613   6.348  10.913 -0.2237 -1.7436 -1.6235
14323TIP3   OH264459   2.307   4.886  12.265 -0.4102  0.5648 -0.0052
14323TIP3    H164460   2.304   4.974  12.226 -0.5541  1.2936  1.5747
14323TIP3    H264461   2.216   4.863  12.281 -0.6616 -1.2513 -3.1900
14324TIP3   OH264462   1.810   0.101   2.337 -0.0568 -0.4691 -0.3512
14324TIP3    H164463   1.817   0.086   2.431 -1.2756 -1.5466 -0.4041
14324TIP3    H264464   1.716   0.097   2.319  0.1651 -0.4241 -1.6449
14325TIP3   OH264465   6.735   2.950  10.526 -0.4364  0.5876  0.0625
14325TIP3    H164466   6.819   2.972  10.565 -0.6439 -1.2347  1.7256
14325TIP3    H264467   6.686   3.032  10.527  0.8849  1.4019  0.2211
14326TIP3   OH264468   6.098   5.158   4.773 -0.1323 -0.2988  0.8260
14326TIP3    H164469   6.183   5.170   4.730 -0.6029 -0.0176 -0.0500
14326TIP3    H264470   6.058   5.245   4.770 -1.9939 -1.1221 -2.1402
14327TIP3   OH264471   2.815   6.797  14.178  0.5105 -0.0771  0.3211
14327TIP3    H164472   2.741   6.764  14.127  0.2965  1.3519 -0.3648
14327TIP3    H264473   2.804   6.758  14.264  0.0715 -1.4241 -0.3167
14328TIP3   OH264474   4.099   3.143  14.132  0.7199  0.2599  0.0207
14328TIP3    H164475   4.075   3.193  14.054 -0.5458 -1.5435 -0.8092
14328TIP3    H264476   4.024   3.152  14.191  0.3202 -0.8673 -0.2787
14329TIP3   OH264477   1.794   0.060  11.160 -0.0764  0.4973  0.4819
14329TIP3    H164478   1.858  -0.007  11.139 -0.7493  0.6412 -2.4718
14329TIP3    H264479   1.715   0.034  11.113 -1.0468  2.2328  1.0301
14330TIP3   OH264480   6.746   5.599  11.247 -1.0009  0.4018  0.1805
14330TIP3    H164481   6.730   5.646  11.164 -2.1988 -0.7929 -0.3080
14330TIP3    H264482   6.822   5.642  11.284  0.0736  0.4685 -1.9355
14331TIP3   OH264483   6.193   6.447  15.179  0.0850 -0.3457 -0.5279
14331TIP3    H164484   6.162   6.358  15.196 -1.0479  0.4724  2.3395
14331TIP3    H264485   6.191   6.490  15.264  1.5436  2.1720 -1.6407
14332TIP3   OH264486   3.517   1.547  13.228 -0.1821  0.7673  0.2254
14332TIP3    H164487   3.507   1.550  13.132  0.0030  1.7494  0.2243
14332TIP3    H264488   3.427   1.551  13.261 -0.2284  0.9170  0.0881
14333TIP3   OH264489   1.171   1.908   5.099 -0.3802  0.0305  0.1737
14333TIP3    H164490   1.193   1.963   5.174 -1.0747  2.5274 -1.3530
14333TIP3    H264491   1.086   1.869   5.121 -1.1828  1.7372  0.1938
14334TIP3   OH264492   2.104   5.064   1.969  0.2570  0.0096 -0.3183
14334TIP3    H164493   2.173   5.128   1.951 -1.1093  1.9896  1.0425
14334TIP3    H264494   2.106   5.053   2.064 -0.5171 -0.8435 -0.3854
14335TIP3   OH264495   6.185   2.662  14.530 -0.4041 -0.4634  0.3425
14335TIP3    H164496   6.229   2.698  14.606 -0.4610 -1.5397  0.9162
14335TIP3    H264497   6.093   2.685  14.542 -0.2737  0.2169  0.0799
14336TIP3   OH264498   0.764   2.878  11.536 -0.3343  0.0152  0.0063
14336TIP3    H164499   0.837   2.860  11.595  0.2920  0.0756 -0.7175
14336TIP3    H264500   0.701   2.809  11.554 -0.0209 -0.1433  0.5272
14337TIP3   OH264501   0.181   1.785   0.534  0.0933 -0.2760 -0.3673
14337TIP3    H164502   0.103   1.773   0.480  0.3530 -2.1364 -0.3699
14337TIP3    H264503   0.148   1.794   0.623 -0.1804  0.0593 -0.4997
14338TIP3   OH264504   5.192   2.429   1.985 -0.0765  0.1156 -0.3520
14338TIP3    H164505   5.139   2.504   1.959  0.6153  0.0943 -1.9286
14338TIP3    H264506   5.222   2.391   1.903  1.0259 -0.8600  0.4633
14339TIP3   OH264507   6.387   3.413   1.616 -0.0634 -0.3935  0.6886
14339TIP3    H164508   6.410   3.328   1.580 -1.8317 -1.5900  2.1955
14339TIP3    H264509   6.460   3.434   1.675 -0.9607 -2.4133  2.6749
14340TIP3   OH264510   1.454   4.858   2.007 -0.1699  0.2430  0.0779
14340TIP3    H164511   1.443   4.835   2.099 -4.6729  1.2624  0.0367
14340TIP3    H264512   1.501   4.784   1.969  0.7860 -0.7563  2.9005
14341TIP3   OH264513   1.206   1.545   0.144 -0.4140 -0.3899 -0.4733
14341TIP3    H164514   1.119   1.581   0.160 -0.7808 -1.0407 -0.9181
14341TIP3    H264515   1.200   1.506   0.057 -0.3153 -2.2412  0.2872
14342TIP3   OH264516   1.622   2.329  15.904  0.0723 -0.2429  0.0621
14342TIP3    H164517   1.687   2.353  15.971 -2.2429  1.8080  1.7215
14342TIP3    H264518   1.556   2.279  15.952 -0.5921 -0.5919 -1.1721
14343TIP3   OH264519   0.008   6.395  10.914 -0.1486  0.0949 -0.3117
14343TIP3    H164520  -0.008   6.418  10.823  1.5711  0.0017 -0.6770
14343TIP3    H264521   0.101   6.372  10.917 -0.7267 -2.4975  0.9276
14344TIP3   OH264522   2.886   1.569  11.556  0.3652  0.0898 -0.3675
14344TIP3    H164523   2.936   1.530  11.485  0.9888  1.2974 -0.6258
14344TIP3    H264524   2.851   1.650  11.519 -2.3850 -1.0112 -0.4148
14345TIP3   OH264525   6.252   6.844   0.819  0.1890  0.2050  0.7293
14345TIP3    H164526   6.197   6.910   0.778 -0.0603 -0.4110  0.0455
14345TIP3    H264527   6.212   6.760   0.794  0.6343 -0.2123  1.3732
14346TIP3   OH264528   6.705   5.099   0.792  0.5342 -0.5621 -0.1330
14346TIP3    H164529   6.626   5.046   0.777  1.4823 -1.5447 -1.9090
14346TIP3    H264530   6.707   5.111   0.887 -1.2401 -1.3161  0.0478
14347TIP3   OH264531   1.750   3.763  15.755 -0.4524 -0.2838  0.6321
14347TIP3    H164532   1.660   3.733  15.746 -0.7854 -0.0562  2.7167
14347TIP3    H264533   1.756   3.839  15.696 -1.7254 -0.1076  0.7028
14348TIP3   OH264534   2.369   3.020   2.209 -0.3293  0.1058 -0.4475
14348TIP3    H164535   2.322   3.031   2.126 -1.4996 -1.7514 -0.0763
14348TIP3    H264536   2.452   3.066   2.195 -0.8007  0.4637 -2.3825
14349TIP3   OH264537   4.219   2.870  15.166 -0.1707  0.8205 -0.1551
14349TIP3    H164538   4.205   2.831  15.079  0.0595  0.3279  0.0245
14349TIP3    H264539   4.308   2.905  15.162  0.0285  0.3455  0.0475
14350TIP3   OH264540   0.856   4.372  17.145 -0.2244 -0.2546 -0.5850
14350TIP3    H164541   0.842   4.318  17.223  0.1212  1.8939  1.0313
14350TIP3    H264542   0.785   4.347  17.086 -2.3724  0.1695  1.6430
14351TIP3   OH264543   0.591   1.442  11.735 -0.0528 -0.1209 -0.7993
14351TIP3    H164544   0.557   1.529  11.755 -1.4273 -1.1482  1.8301
14351TIP3    H264545   0.679   1.441  11.773 -1.3025 -0.8726  2.3541
14352TIP3   OH264546   2.242   2.648  13.910 -0.0449 -0.2130 -0.0137
14352TIP3    H164547   2.189   2.704  13.854  1.0980  0.5395 -0.3818
14352TIP3    H264548   2.332   2.675  13.892  0.4529 -1.2962  0.7580
14353TIP3   OH264549   1.089   0.464  15.622 -0.2298  0.1165 -0.1291
14353TIP3    H164550   1.072   0.559  15.620 -0.9731  0.0075 -2.8054
14353TIP3    H264551   1.181   0.456  15.598  0.4882  0.1859  2.3409
14354TIP3   OH264552   0.900   1.152  16.118  0.1602 -0.3996  0.9832
14354TIP3    H164553   0.902   1.057  16.108 -1.3071 -0.4864  1.3328
14354TIP3    H264554   0.808   1.173  16.131  0.1858  1.2881 -1.0757
14355TIP3   OH264555   3.296   1.027   0.175 -0.0728 -0.3391  0.7139
14355TIP3    H164556   3.296   1.056   0.266  1.0616  0.1547  0.5795
14355TIP3    H264557   3.389   1.017   0.153 -0.3180 -0.2534 -0.4477
14356TIP3   OH264558   3.643   2.299   2.187 -0.1331  0.0942 -0.1094
14356TIP3    H164559   3.733   2.331   2.184 -0.3244  0.8314  1.2622
14356TIP3    H264560   3.592   2.370   2.147 -0.1490 -0.2446 -0.7154
14357TIP3   OH264561   6.002   0.642   6.690 -0.2188 -0.1655 -0.4858
14357TIP3    H164562   6.019   0.732   6.664  2.0284 -0.6370 -0.8328
14357TIP3    H264563   6.042   0.633   6.776 -1.7859 -0.4516  0.2560
14358TIP3   OH264564   6.230   1.886   6.644  0.2615 -0.2671  0.1732
14358TIP3    H164565   6.234   1.867   6.738 -0.9141  3.0628  1.0391
14358TIP3    H264566   6.141   1.919   6.630  0.6669  0.0751 -1.9325
14359TIP3   OH264567   2.064   5.466   5.515  0.5217  0.4654 -0.2232
14359TIP3    H164568   2.086   5.462   5.608 -0.1235  0.0788 -0.0832
14359TIP3    H264569   2.146   5.446   5.471  0.3206 -1.7787  0.2948
14360TIP3   OH264570   4.358   0.325  11.650 -0.2657 -0.2857  0.6097
14360TIP3    H164571   4.313   0.345  11.568  1.1117  0.9580  0.0927
14360TIP3    H264572   4.295   0.347  11.718 -1.1382 -0.5246 -0.1057
14361TIP3   OH264573   0.563   6.808   4.808 -0.0453 -0.8845  0.1687
14361TIP3    H164574   0.615   6.812   4.888  0.5416 -0.8216 -0.2113
14361TIP3    H264575   0.474   6.793   4.839  0.0500 -0.0703  0.8703
14362TIP3   OH264576   0.505   2.338   3.341 -0.3364 -0.4567 -0.2648
14362TIP3    H164577   0.469   2.261   3.384  0.4636 -0.7907 -0.1682
14362TIP3    H264578   0.506   2.405   3.409  1.4747 -1.1515  0.4738
14363TIP3   OH264579   2.648   3.680   1.063  0.2765 -0.3001  0.0944
14363TIP3    H164580   2.736   3.653   1.090  0.6472  0.4699 -0.3176
14363TIP3    H264581   2.614   3.606   1.013  1.0037 -0.2812 -0.4307
14364TIP3   OH264582   0.388   4.664   0.454  0.3187  0.4227 -0.0815
14364TIP3    H164583   0.420   4.620   0.532 -0.9250  0.9415  0.7605
14364TIP3    H264584   0.300   4.693   0.477 -0.4384 -0.2001 -1.9952
14365TIP3   OH264585   3.150   3.169   1.619  0.2528 -0.3375 -0.1929
14365TIP3    H164586   3.096   3.135   1.548 -0.5485 -0.5695  0.5079
14365TIP3    H264587   3.124   3.260   1.628  1.2745  0.0604 -1.0271
14366TIP3   OH264588   6.443   4.302  16.032 -0.0054 -0.3879 -0.1118
14366TIP3    H164589   6.532   4.296  15.995  0.4011  1.4609  0.4451
14366TIP3    H264590   6.448   4.251  16.113  0.5760 -0.2437 -0.0475
14367TIP3   OH264591   3.380   4.296   4.154  0.0065  0.2973 -0.2374
14367TIP3    H164592   3.449   4.352   4.192 -1.2610  1.9713 -0.2716
14367TIP3    H264593   3.428   4.226   4.109  1.6837  1.2605 -0.0450
14368TIP3   OH264594   1.938   4.928  12.965  0.2992 -0.1499 -0.0103
14368TIP3    H164595   1.912   4.942  12.874 -0.0489  0.3966  0.1717
14368TIP3    H264596   1.992   4.849  12.962 -0.6103 -0.7680 -0.5281
14369TIP3   OH264597   1.807   5.194   0.513 -0.4032  0.2954  0.1916
14369TIP3    H164598   1.782   5.105   0.488 -1.2631  0.2851  1.0297
14369TIP3    H264599   1.808   5.242   0.430 -0.6698 -0.3296 -0.1813
14370TIP3   OH264600   1.158   5.882   2.873 -0.6937  0.5341  0.0409
14370TIP3    H164601   1.176   5.836   2.791 -0.4512 -2.3052  1.5980
14370TIP3    H264602   1.072   5.922   2.858 -1.4100 -1.2857 -1.0767
14371TIP3   OH264603   1.811   4.462  13.819 -0.1517 -0.1505 -0.0584
14371TIP3    H164604   1.761   4.467  13.737 -0.5988 -2.4019  0.0223
14371TIP3    H264605   1.868   4.539  13.816 -1.4643  0.8404 -1.5917
14372TIP3   OH264606   1.928   5.928  13.632  0.6689  0.1077 -0.2916
14372TIP3    H164607   1.871   5.903  13.705 -0.4636 -1.9513 -1.8035
14372TIP3    H264608   2.015   5.901  13.660  0.4615  0.4690  0.7791
14373TIP3   OH264609   1.489   5.120  15.004 -0.4497  0.2495 -0.2289
14373TIP3    H164610   1.416   5.145  15.062 -0.5574 -1.5737  0.5092
14373TIP3    H264611   1.446   5.079  14.929 -0.2414 -0.6556  0.1209
14374TIP3   OH264612   3.874   4.071  13.499  0.2161  0.2278 -0.0343
14374TIP3    H164613   3.843   4.039  13.584  1.9290 -2.2922 -0.2413
14374TIP3    H264614   3.897   4.163  13.516 -1.5398  0.4315  1.6109
14375TIP3   OH264615   2.577   0.183  13.033 -0.3214  0.1157 -0.0477
14375TIP3    H164616   2.563   0.092  13.004  1.0681 -0.5999  1.3936
14375TIP3    H264617   2.550   0.183  13.125 -0.4206  1.2131 -0.0639
14376TIP3   OH264618   6.665   4.828  13.969 -0.6421 -0.2353  0.5230
14376TIP3    H164619   6.712   4.771  14.029 -1.9156  0.5935  2.3822
14376TIP3    H264620   6.587   4.778  13.944 -0.7340 -0.1020  0.5412
14377TIP3   OH264621   0.569   2.781   5.789  0.5280  0.3202  0.0677
14377TIP3    H164622   0.631   2.853   5.782  1.6195 -0.4007  1.8354
14377TIP3    H264623   0.544   2.762   5.698  1.3868  1.8856 -0.5305
14378TIP3   OH264624   5.057   4.363   4.189  0.2587 -0.1297 -0.0946
14378TIP3    H164625   5.088   4.273   4.172  2.3518  0.6335 -0.6278
14378TIP3    H264626   4.993   4.379   4.120  0.4521 -0.9373 -0.4769
14379TIP3   OH264627   4.926   4.184   2.461 -0.0472 -0.4555  0.2235
14379TIP3    H164628   5.011   4.217   2.433 -0.3827 -0.2527 -0.5899
14379TIP3    H264629   4.910   4.227   2.545  0.3467  0.0181  0.0623
14380TIP3   OH264630   2.294   6.058  15.799 -0.2349  0.0946  0.3666
14380TIP3    H164631   2.302   6.115  15.876  1.4449  1.1077 -0.5230
14380TIP3    H264632   2.223   5.998  15.822 -0.6774  1.2267  2.1636
14381TIP3   OH264633   5.170   2.999  14.924 -0.1099 -0.3761  0.2132
14381TIP3    H164634   5.207   3.019  14.839  1.1900  0.7640  0.9981
14381TIP3    H264635   5.140   2.908  14.917 -1.4884  0.1747 -1.9067
14382TIP3   OH264636   4.583   2.328  16.286  1.0313  0.0066  0.6393
14382TIP3    H164637   4.647   2.393  16.315  0.7172  1.3819 -1.5447
14382TIP3    H264638   4.499   2.361  16.317  1.1498 -0.8560  1.9399
14383TIP3   OH264639   0.419   4.082  13.794  0.0908 -0.5210  0.1327
14383TIP3    H164640   0.451   3.995  13.817  1.4363 -0.1833 -0.3334
14383TIP3    H264641   0.401   4.076  13.700  0.4992 -0.2200  0.0305
14384TIP3   OH264642   2.882   6.017   4.028 -0.1427  0.0276  0.2444
14384TIP3    H164643   2.826   5.941   4.012 -0.5155  0.4712 -0.6235
14384TIP3    H264644   2.821   6.087   4.051  0.1440  0.2211  0.4152
14385TIP3   OH264645   0.232   5.862  12.799  0.1989  0.1183 -0.0319
14385TIP3    H164646   0.240   5.958  12.796 -2.1669  0.4463  1.6098
14385TIP3    H264647   0.313   5.833  12.840  0.3909  1.5567  0.6728
14386TIP3   OH264648   4.715   3.492  10.819 -0.0264  0.3132 -0.0080
14386TIP3    H164649   4.674   3.545  10.751 -1.8126  2.7682  2.7156
14386TIP3    H264650   4.774   3.434  10.772  0.7455  3.4711 -3.4619
14387TIP3   OH264651   5.763   2.779   1.304  0.0097 -0.0027 -0.1332
14387TIP3    H164652   5.840   2.776   1.248  1.2707  0.5908  1.5177
14387TIP3    H264653   5.761   2.694   1.347 -0.2867 -0.0343 -0.2062
14388TIP3   OH264654   6.337   3.200  14.974 -0.4291 -0.0328  0.0122
14388TIP3    H164655   6.423   3.219  14.935 -0.4939  0.9543  0.3510
14388TIP3    H264656   6.354   3.198  15.068 -0.9368  1.0485  0.1385
14389TIP3   OH264657   0.665   5.646   3.554  0.2695  0.1483 -1.1778
14389TIP3    H164658   0.667   5.741   3.562  2.1296  0.0776 -0.0856
14389TIP3    H264659   0.704   5.614   3.636 -1.8191 -1.6338 -0.7838
14390TIP3   OH264660   1.536   0.759   1.163 -0.1519 -0.3600  0.0637
14390TIP3    H164661   1.586   0.708   1.227  1.3143  1.4913  0.4761
14390TIP3    H264662   1.495   0.829   1.215  0.8619  1.0197 -0.9209
14391TIP3   OH264663   3.644   5.859  12.721  0.5685  0.2026  0.5009
14391TIP3    H164664   3.707   5.790  12.698 -1.9476 -1.8484 -0.7944
14391TIP3    H264665   3.642   5.915  12.644  0.2047 -0.2142  0.2052
14392TIP3   OH264666   1.385   3.122  14.780  0.8064  0.1158  0.0504
14392TIP3    H164667   1.368   3.095  14.690  0.2409 -0.2380  0.2608
14392TIP3    H264668   1.333   3.063  14.833 -0.1112  1.3278  0.5404
14393TIP3   OH264669   5.822   5.175   4.524  0.6626 -0.0904 -0.2474
14393TIP3    H164670   5.860   5.262   4.520  0.0480  0.2252  0.5177
14393TIP3    H264671   5.874   5.129   4.590  1.8841 -0.7744 -1.6414
14394TIP3   OH264672   1.045   4.237  13.722  0.1716 -0.3449  0.0489
14394TIP3    H164673   1.091   4.298  13.780  0.3564 -2.7027  2.5738
14394TIP3    H264674   0.952   4.256  13.737  0.2341 -0.2178  0.2877
14395TIP3   OH264675   0.358   0.417   0.119 -0.3770 -0.2017 -0.0655
14395TIP3    H164676   0.333   0.417   0.026  0.9017 -1.5122 -0.4515
14395TIP3    H264677   0.363   0.325   0.142  1.0341  0.0647  0.8108
14396TIP3   OH264678   2.788   5.931   1.508  0.5997 -0.2511 -0.6127
14396TIP3    H164679   2.848   5.857   1.518 -1.3571 -1.8060  0.4331
14396TIP3    H264680   2.825   5.999   1.564  1.7733 -0.8710 -0.5922
14397TIP3   OH264681   5.829   0.575  12.909  0.6056 -0.2190  0.0467
14397TIP3    H164682   5.850   0.669  12.905  0.0652 -0.1381 -2.9628
14397TIP3    H264683   5.787   0.556  12.825 -1.3302 -2.7251  1.4283
14398TIP3   OH264684   4.163   5.692  11.365 -0.1823 -0.1266  0.3862
14398TIP3    H164685   4.255   5.704  11.385  0.0004 -2.2575  1.1436
14398TIP3    H264686   4.120   5.689  11.450 -1.4852  3.6940  0.0382
14399TIP3   OH264687   3.802   1.192  14.351  0.3794  0.0280  0.3453
14399TIP3    H164688   3.881   1.232  14.315  0.4796  0.9205  1.4797
14399TIP3    H264689   3.730   1.243  14.315  0.3878 -0.1184  0.1246
14400TIP3   OH264690   1.866   3.812   2.438 -0.0443 -0.6581  0.3991
14400TIP3    H164691   1.794   3.767   2.482 -0.1862 -0.8946 -0.0609
14400TIP3    H264692   1.850   3.797   2.345  0.8690 -1.1230  0.3097
14401TIP3   OH264693   4.757   0.377   4.735 -0.4136  0.3042  0.0570
14401TIP3    H164694   4.695   0.305   4.719  0.1050 -0.0759 -0.2531
14401TIP3    H264695   4.704   0.444   4.780 -0.6005 -0.7653  1.5090
14402TIP3   OH264696   6.370   6.785  13.200  0.2168 -0.2566 -0.4280
14402TIP3    H164697   6.429   6.832  13.141  0.2048  0.1209 -0.1479
14402TIP3    H264698   6.322   6.855  13.245 -1.0431 -0.5716 -1.2492
14403TIP3   OH264699   3.911   5.133  14.880  0.3634 -0.3219 -0.4972
14403TIP3    H164700   3.874   5.075  14.946 -1.2707 -1.6629 -2.4333
14403TIP3    H264701   3.911   5.219  14.921  0.1981 -1.2105  1.5005
14404TIP3   OH264702   3.244   2.694  11.582  0.0536 -0.4410  0.1163
14404TIP3    H164703   3.284   2.674  11.667 -0.1741  1.1366  0.6282
14404TIP3    H264704   3.199   2.614  11.557  1.3549 -1.4238  0.7668
14405TIP3   OH264705   0.823   5.695  12.864 -0.3698  0.3380  0.1896
14405TIP3    H164706   0.915   5.703  12.837  1.1195  0.8795  4.7171
14405TIP3    H264707   0.813   5.603  12.889 -0.5898  0.6128  1.1329
14406TIP3   OH264708   5.466   6.418  14.521  0.2130  0.3150  0.3236
14406TIP3    H164709   5.482   6.496  14.575  0.7288  0.0813  0.5157
14406TIP3    H264710   5.542   6.412  14.464 -0.1687  0.3596 -0.1949
14407TIP3   OH264711   2.999   6.067  12.762  0.0223  0.4468  0.4289
14407TIP3    H164712   3.007   5.972  12.773 -2.1832  0.2794  1.1360
14407TIP3    H264713   3.058   6.104  12.828 -1.0485 -0.4891  1.9940
14408TIP3   OH264714   2.439   4.101  14.190 -0.5094 -0.0323  0.0831
14408TIP3    H164715   2.383   4.178  14.181 -0.0537  0.3905  0.7402
14408TIP3    H264716   2.487   4.097  14.107 -0.7407  0.2279 -0.0662
14409TIP3   OH264717   4.384   3.088  15.726  0.3601 -0.3210  0.1796
14409TIP3    H164718   4.451   3.046  15.781  0.6302  1.4017  1.2534
14409TIP3    H264719   4.304   3.083  15.778  0.5399  0.9989  0.6485
14410TIP3   OH264720   4.320   5.966  16.964  0.4669 -0.3185 -0.0552
14410TIP3    H164721   4.248   5.939  16.908  0.7320  0.2402 -0.6876
14410TIP3    H264722   4.314   5.910  17.041 -0.5636 -0.3577 -0.1565
14411TIP3   OH264723   0.705   6.692   2.215  0.1162 -0.8384 -0.0348
14411TIP3    H164724   0.613   6.690   2.188  0.0626 -0.4524  0.1120
14411TIP3    H264725   0.720   6.783   2.242  0.5300 -0.9088 -0.0212
14412TIP3   OH264726   5.174   3.780   2.794  0.2551  0.1335 -0.0414
14412TIP3    H164727   5.170   3.735   2.709 -1.5106  1.4630 -0.7259
14412TIP3    H264728   5.111   3.851   2.786  1.4506  1.4636  1.7481
14413TIP3   OH264729   3.417   4.398   6.255 -0.0843 -0.2202 -0.4524
14413TIP3    H164730   3.343   4.337   6.244 -1.4563  1.5647 -1.9713
14413TIP3    H264731   3.410   4.457   6.179  0.4522  2.4956  1.4360
14414TIP3   OH264732   0.748   4.038  11.282 -0.0246 -0.4961  0.5753
14414TIP3    H164733   0.826   4.072  11.326  0.8287 -1.7383  0.1125
14414TIP3    H264734   0.713   4.112  11.232  2.2986 -0.4543 -1.1625
14415TIP3   OH264735   2.222   0.359   2.732 -0.4647 -0.3156 -0.8285
14415TIP3    H164736   2.147   0.417   2.743 -0.1696 -0.0277 -0.3106
14415TIP3    H264737   2.184   0.272   2.719 -0.8781 -0.2783  0.0844
14416TIP3   OH264738   1.931   2.729   4.142  0.0068 -0.2328  0.3282
14416TIP3    H164739   2.005   2.708   4.085  0.3073 -1.8552  1.2265
14416TIP3    H264740   1.966   2.791   4.205 -0.6546  2.5904 -1.8787
14417TIP3   OH264741   1.740   2.127  13.076 -0.3489  0.7722 -0.1973
14417TIP3    H164742   1.801   2.110  13.148  0.4517 -3.4739 -1.6135
14417TIP3    H264743   1.659   2.085  13.103 -0.7775  1.1921 -0.8199
14418TIP3   OH264744   3.540   3.797   0.156  0.5246 -0.6776  0.6886
14418TIP3    H164745   3.582   3.854   0.220 -0.1806  1.8087 -0.9175
14418TIP3    H264746   3.462   3.764   0.201 -1.0870  2.6438  0.6167
14419TIP3   OH264747   2.888   4.373  16.843 -0.1551  0.1871  0.4585
14419TIP3    H164748   2.897   4.444  16.779 -0.6919  0.7949  1.0414
14419TIP3    H264749   2.871   4.418  16.926  0.4649 -0.5936  1.0174
14420TIP3   OH264750   4.786   5.427  15.577  0.2371 -0.6722  0.5429
14420TIP3    H164751   4.876   5.404  15.598  0.3825  1.5342  2.8085
14420TIP3    H264752   4.785   5.435  15.481  2.0284 -2.1379  0.3438
14421TIP3   OH264753   3.848   4.541   0.037 -0.5286  0.8114  0.0750
14421TIP3    H164754   3.924   4.577  -0.008  1.3195 -0.1155  2.2628
14421TIP3    H264755   3.850   4.448   0.018 -0.9688  0.7431  0.3438
14422TIP3   OH264756   0.387   1.112  12.305  0.6693  0.2185  0.4796
14422TIP3    H164757   0.299   1.073  12.307 -0.0262  1.5923 -1.1420
14422TIP3    H264758   0.409   1.125  12.397 -1.7525  1.7859  0.9332
14423TIP3   OH264759   4.817   2.758  15.139  0.2327  0.0593 -0.3048
14423TIP3    H164760   4.816   2.805  15.223  1.1459 -0.5874  0.0852
14423TIP3    H264761   4.783   2.671  15.161  1.8030 -0.5816 -0.2915
14424TIP3   OH264762   6.584   5.756  14.598  0.2722 -0.1700 -0.1684
14424TIP3    H164763   6.534   5.681  14.629  0.0484 -0.0641 -0.2682
14424TIP3    H264764   6.669   5.721  14.574 -0.2134 -0.6102 -1.3489
14425TIP3   OH264765   0.589   0.163   5.359 -0.1117  0.1942 -0.3009
14425TIP3    H164766   0.499   0.138   5.378  0.4103  0.4624  3.1240
14425TIP3    H264767   0.597   0.253   5.390  0.8052  1.0674 -2.7627
14426TIP3   OH264768   4.265   6.348   5.530  0.0951 -0.5078 -0.3456
14426TIP3    H164769   4.233   6.420   5.586 -0.3334  0.5718 -1.9103
14426TIP3    H264770   4.352   6.329   5.564  0.2359  0.7806  0.0922
14427TIP3   OH264771   4.560   3.408  12.138 -0.1105  0.4265  0.2699
14427TIP3    H164772   4.626   3.361  12.087  1.1886  0.5107  1.7842
14427TIP3    H264773   4.609   3.447  12.211 -1.6213  1.6801  0.6790
14428TIP3   OH264774   6.448   1.088   4.361 -0.3054  0.4007 -0.1038
14428TIP3    H164775   6.402   1.111   4.442 -0.2517  0.9432 -0.2272
14428TIP3    H264776   6.405   1.007   4.332  0.5618 -0.5590  1.1828
14429TIP3   OH264777   5.258   3.197   2.212 -0.2209  0.3025  0.1545
14429TIP3    H164778   5.176   3.163   2.177  0.2643 -0.6249 -0.1345
14429TIP3    H264779   5.300   3.121   2.253 -0.5257  1.2270  2.3473
14430TIP3   OH264780   1.457   6.042   1.042 -0.2007 -0.3926 -0.6774
14430TIP3    H164781   1.417   6.121   1.078  0.7239 -0.6988  1.1786
14430TIP3    H264782   1.544   6.069   1.014 -0.6121 -0.3452 -1.9529
14431TIP3   OH264783   5.705   5.304  10.417 -0.0454  0.8699 -0.0610
14431TIP3    H164784   5.666   5.266  10.338  2.8003  0.0639 -1.1926
14431TIP3    H264785   5.635   5.357  10.455 -1.8982  0.2922 -2.4325
14432TIP3   OH264786   3.174   1.205  16.751  0.3013  0.2682 -0.9140
14432TIP3    H164787   3.135   1.280  16.797  1.6097  0.3756  0.0836
14432TIP3    H264788   3.235   1.244  16.689  0.2338  0.0579 -1.1125
14433TIP3   OH264789   5.347   2.857  15.506  0.6767 -0.5808 -0.3343
14433TIP3    H164790   5.385   2.891  15.587  1.5215  0.9242 -1.3276
14433TIP3    H264791   5.391   2.773  15.492  1.6121 -0.1574  0.0085
14434TIP3   OH264792   4.408   6.551  13.655 -0.8004  0.5652 -0.1143
14434TIP3    H164793   4.395   6.457  13.663  0.4677  0.4368  0.6711
14434TIP3    H264794   4.501   6.564  13.671 -1.6398  2.4182  4.7914
14435TIP3   OH264795   5.926   3.567  14.687 -0.1313  0.1770  0.2610
14435TIP3    H164796   5.937   3.608  14.773 -2.3086  0.9858  0.2087
14435TIP3    H264797   5.842   3.599  14.655 -0.1144 -1.3386 -1.5026
14436TIP3   OH264798   1.861   6.826   4.402 -0.1983  1.0453  0.1743
14436TIP3    H164799   1.775   6.801   4.437  0.6151 -0.5976  1.1629
14436TIP3    H264800   1.888   6.750   4.350  1.4015  0.7495  1.3608
14437TIP3   OH264801   1.046   6.217  14.741  0.8702  0.3395 -0.0824
14437TIP3    H164802   0.971   6.274  14.756  0.5738  0.0758 -0.5782
14437TIP3    H264803   1.079   6.241  14.655  1.3440  0.4347  0.1175
14438TIP3   OH264804   0.907   6.740  11.631  0.1528 -0.1160 -0.8449
14438TIP3    H164805   0.877   6.827  11.658 -0.1086  0.2093 -2.1270
14438TIP3    H264806   0.888   6.684  11.706 -1.1757  0.6142 -0.6063
14439TIP3   OH264807   1.123   1.115   1.363  0.4828  0.4208  0.3034
14439TIP3    H164808   1.067   1.083   1.292 -1.0352  0.4952  1.4115
14439TIP3    H264809   1.108   1.210   1.364 -1.1295  0.2077  1.9750
14440TIP3   OH264810   2.088   6.346   3.287  0.4542  0.5173  0.1058
14440TIP3    H164811   2.141   6.267   3.298  0.8563  0.7924  0.1804
14440TIP3    H264812   2.003   6.324   3.326  0.5253  0.0829  0.0156
14441TIP3   OH264813   0.439   1.673  11.776 -0.2091 -0.2088  0.3596
14441TIP3    H164814   0.414   1.675  11.868  0.9726 -1.9892  0.7565
14441TIP3    H264815   0.498   1.748  11.766 -1.6841  1.0431  0.5846
14442TIP3   OH264816   6.280   6.495   3.798 -0.0345  0.4262 -0.0498
14442TIP3    H164817   6.274   6.569   3.738  0.4005 -0.1693 -0.8520
14442TIP3    H264818   6.369   6.499   3.832 -0.6066  1.3868  1.4079
14443TIP3   OH264819   3.283   6.569  12.405  0.0045  0.2791  0.3860
14443TIP3    H164820   3.375   6.545  12.411 -0.6415 -3.1493 -1.3271
14443TIP3    H264821   3.278   6.625  12.328  0.5558 -0.1173  0.0571
14444TIP3   OH264822   1.897   0.742  16.166 -0.1062 -0.8056  0.1829
14444TIP3    H164823   1.970   0.793  16.201 -1.1616 -0.2243  1.6626
14444TIP3    H264824   1.893   0.665  16.223 -0.4646 -0.9772 -0.0711
14445TIP3   OH264825   6.260   5.222   3.519 -0.2108  0.5122  0.0847
14445TIP3    H164826   6.345   5.196   3.486 -0.2255 -2.0519  1.8107
14445TIP3    H264827   6.265   5.318   3.525  2.5074  0.4443  0.0952
14446TIP3   OH264828   6.342   0.723  15.179 -0.0297 -0.4211 -0.6057
14446TIP3    H164829   6.342   0.816  15.199 -1.2236 -0.7475  1.1601
14446TIP3    H264830   6.312   0.681  15.259  1.5143 -2.4322 -0.9893
14447TIP3   OH264831   2.070   4.666   4.117  0.0789  0.2469  0.3127
14447TIP3    H164832   2.102   4.614   4.190  1.2529  0.0528 -0.3186
14447TIP3    H264833   2.057   4.754   4.153  0.3941  0.0883  0.8154
14448TIP3   OH264834   5.914   6.175   1.913  0.0468  0.4403  0.2717
14448TIP3    H164835   5.884   6.085   1.925  0.6574  0.0352 -1.0784
14448TIP3    H264836   6.001   6.177   1.953  0.2534  0.2845 -0.1680
14449TIP3   OH264837   2.650   2.053  10.830 -0.5579 -0.6746  0.1160
14449TIP3    H164838   2.650   1.959  10.809 -0.9832 -0.8005  0.6632
14449TIP3    H264839   2.724   2.063  10.890 -1.4362 -0.9479  1.2714
14450TIP3   OH264840   5.564   6.071  13.353  0.5748  0.5490 -0.5758
14450TIP3    H164841   5.499   6.130  13.391  2.0499  0.0019  3.3324
14450TIP3    H264842   5.518   5.988  13.343 -0.1278  0.9757 -0.9284
14451TIP3   OH264843   1.372   5.345  11.317 -0.3812 -0.4690 -0.0630
14451TIP3    H164844   1.310   5.274  11.334 -0.2027 -0.9545 -1.3152
14451TIP3    H264845   1.390   5.339  11.223  1.4836 -0.2775  0.2334
14452TIP3   OH264846   6.842   6.044   3.133 -0.0937  0.2291 -0.1653
14452TIP3    H164847   6.800   5.962   3.158 -0.5368  0.2087 -0.9488
14452TIP3    H264848   6.922   6.017   3.088 -0.6980  0.1704 -1.2676
14453TIP3   OH264849   5.125   5.777  11.114 -0.1041  0.1404 -0.0444
14453TIP3    H164850   5.119   5.720  11.037 -0.2266  0.6903 -0.4526
14453TIP3    H264851   5.052   5.839  11.103  2.2370  2.8571 -1.6781
14454TIP3   OH264852   0.318   6.367  16.083  0.0160  0.1202  0.7246
14454TIP3    H164853   0.280   6.302  16.024  0.5430  2.1239 -2.0709
14454TIP3    H264854   0.251   6.382  16.150 -1.4260 -0.9966 -0.4012
14455TIP3   OH264855   6.394   5.733   2.546 -0.0743  0.2168 -0.2557
14455TIP3    H164856   6.452   5.674   2.594  0.8676  1.0076 -0.3890
14455TIP3    H264857   6.314   5.682   2.532  0.1429 -0.4967  0.9488
14456TIP3   OH264858   1.545   0.420  13.755 -0.1122 -0.2305  0.6079
14456TIP3    H164859   1.546   0.457  13.844 -1.4285 -1.4356  1.1691
14456TIP3    H264860   1.633   0.436  13.721  0.2486  0.7474  1.9193
14457TIP3   OH264861   6.017   3.819  13.511 -0.9204 -0.1908  0.0013
14457TIP3    H164862   6.014   3.911  13.484 -0.3756  0.3782  1.7879
14457TIP3    H264863   6.057   3.821  13.598 -1.4077 -2.0760  0.2947
14458TIP3   OH264864   2.548   2.554   3.721 -0.0963  0.4116  0.2873
14458TIP3    H164865   2.641   2.560   3.702 -0.3366  1.5359 -0.6477
14458TIP3    H264866   2.504   2.578   3.639 -1.1864  1.1578  1.0471
14459TIP3   OH264867   4.026   4.737  10.860  0.0881 -0.6368 -0.2146
14459TIP3    H164868   4.120   4.727  10.878  0.7272  1.5619 -1.7472
14459TIP3    H264869   3.995   4.649  10.840  2.1179 -1.2822 -0.7779
14460TIP3   OH264870   4.189   4.782   0.589  0.4078  0.2695 -0.4506
14460TIP3    H164871   4.106   4.753   0.551 -0.1212  0.4503  0.5277
14460TIP3    H264872   4.165   4.816   0.675  1.3868  1.1052 -0.4867
14461TIP3   OH264873   1.026   2.501  14.255 -0.1973  0.0647 -0.0677
14461TIP3    H164874   0.981   2.583  14.237 -0.2498 -0.0482 -0.4710
14461TIP3    H264875   0.962   2.446  14.300 -0.1056  0.3071  0.3606
14462TIP3   OH264876   5.716   2.145   2.669  0.1576 -0.3735  0.0289
14462TIP3    H164877   5.625   2.121   2.683  0.1975 -0.9475 -0.6151
14462TIP3    H264878   5.717   2.184   2.581  0.1605  1.7218  0.8995
14463TIP3   OH264879   4.937   3.697  12.839 -0.2340 -0.2333 -0.2713
14463TIP3    H164880   4.950   3.610  12.877 -1.0152 -0.5321 -0.6526
14463TIP3    H264881   4.991   3.755  12.892 -0.9386 -0.7029  1.0146
14464TIP3   OH264882   4.566   4.938  17.061 -0.3292 -0.4255  0.2710
14464TIP3    H164883   4.612   4.933  17.144  0.5610 -1.7277 -0.2787
14464TIP3    H264884   4.632   4.917  16.995 -1.0116  0.5798 -0.7880
14465TIP3   OH264885   6.705   4.263  15.883 -0.0790  0.1174 -0.1335
14465TIP3    H164886   6.737   4.344  15.923  1.5024 -0.8217  0.6108
14465TIP3    H264887   6.778   4.234  15.828 -0.8071 -0.5637 -0.7527
14466TIP3   OH264888   1.518   4.119  11.240 -0.0484 -0.3634  0.2250
14466TIP3    H164889   1.444   4.104  11.182  0.8287  0.1803 -1.0966
14466TIP3    H264890   1.574   4.181  11.193  0.5914  0.3014  1.7721
14467TIP3   OH264891   2.830   2.382   1.525 -0.2992 -0.2207  0.5636
14467TIP3    H164892   2.902   2.408   1.582 -0.6542 -0.9457  1.3630
14467TIP3    H264893   2.805   2.294   1.556 -0.0416 -0.9346 -1.1574
14468TIP3   OH264894   1.512   1.630   3.566  0.6884 -0.6201  0.2568
14468TIP3    H164895   1.567   1.687   3.513 -2.3587  2.4547  0.0770
14468TIP3    H264896   1.475   1.688   3.632 -0.7562 -2.9654  1.6394
14469TIP3   OH264897   3.102   6.589  11.276  0.8126 -0.5109 -0.1925
14469TIP3    H164898   3.190   6.580  11.241  1.2194  1.1601  0.3188
14469TIP3    H264899   3.052   6.634  11.208  0.8287  0.1032  0.1896
14470TIP3   OH264900   1.304   0.699  12.410 -0.3191  0.0149  0.0126
14470TIP3    H164901   1.275   0.710  12.500  0.2026  1.6946  0.0043
14470TIP3    H264902   1.258   0.767  12.361  2.1317  1.5706 -0.3222
14471TIP3   OH264903   1.988   6.600  14.541 -0.2176  0.1594  0.0247
14471TIP3    H164904   1.904   6.610  14.495 -0.0718  1.6574  0.0233
14471TIP3    H264905   2.010   6.508  14.531  0.8259  0.6341 -4.7355
14472TIP3   OH264906   1.236   5.899  14.195  0.1226 -0.2036 -0.2476
14472TIP3    H164907   1.253   5.911  14.288 -0.3813 -0.7352 -0.0769
14472TIP3    H264908   1.321   5.880  14.157  0.4307  0.6649 -0.0108
14473TIP3   OH264909   4.245   5.924  12.584  0.1768 -0.3638  1.1362
14473TIP3    H164910   4.174   5.925  12.649  1.1464  0.8646  2.2432
14473TIP3    H264911   4.319   5.883  12.630  0.0283 -2.3462 -0.2517
14474TIP3   OH264912   5.851   6.000  14.639 -0.2415 -0.1767 -0.2006
14474TIP3    H164913   5.906   6.059  14.691 -1.9195 -0.9240  2.6593
14474TIP3    H264914   5.913   5.939  14.598  1.1755  0.1220  1.3910
14475TIP3   OH264915   1.935   1.955  14.802 -0.3169 -0.0520 -0.2550
14475TIP3    H164916   1.920   1.865  14.831 -0.1594 -0.1922 -0.6052
14475TIP3    H264917   1.847   1.989  14.785 -0.3307 -0.5597 -1.3621
14476TIP3   OH264918   1.629   0.573  14.630 -0.4693 -0.1078 -0.4540
14476TIP3    H164919   1.552   0.517  14.621 -0.5647 -0.5092  2.0191
14476TIP3    H264920   1.673   0.539  14.709  0.1569  2.4945  0.3953
14477TIP3   OH264921   0.848   6.396   0.741  1.0408  0.2302 -0.3003
14477TIP3    H164922   0.882   6.468   0.690  1.4148 -0.0626 -0.4655
14477TIP3    H264923   0.766   6.372   0.698  0.4389  1.1416  0.2857
14478TIP3   OH264924   4.191   3.273   0.178  0.5090 -0.5493 -0.0549
14478TIP3    H164925   4.170   3.188   0.137  1.3931 -0.6237 -0.3657
14478TIP3    H264926   4.281   3.264   0.207 -0.2619 -0.6984  2.4806
14479TIP3   OH264927   3.840   1.943   1.737 -0.3852  0.3045  0.8458
14479TIP3    H164928   3.852   1.921   1.829  0.9820  0.6761  0.7726
14479TIP3    H264929   3.829   2.038   1.736  0.0578  0.3550  0.5867
14480TIP3   OH264930   3.548   1.419  10.496 -0.2268  0.1755 -0.0715
14480TIP3    H164931   3.639   1.433  10.468 -0.3170 -0.7683 -0.8594
14480TIP3    H264932   3.552   1.423  10.592  0.5663  0.5577 -0.1110
14481TIP3   OH264933   4.843   2.203  13.208  0.1334  0.1644  0.0502
14481TIP3    H164934   4.844   2.215  13.302  0.5672 -2.8038  0.5242
14481TIP3    H264935   4.928   2.233  13.178  0.7130 -0.5971  0.9066
14482TIP3   OH264936   4.691   2.820   2.631 -0.0672  0.2812 -0.3102
14482TIP3    H164937   4.763   2.839   2.571  0.8946 -1.4309  0.2337
14482TIP3    H264938   4.722   2.853   2.716  1.2519 -2.5834  0.4590
14483TIP3   OH264939   5.988   2.605   6.567 -0.0754  0.7606  0.3310
14483TIP3    H164940   5.926   2.551   6.615  2.1489  0.7249  3.4523
14483TIP3    H264941   6.067   2.552   6.561  0.5035  1.7072 -1.3364
14484TIP3   OH264942   3.611   6.593   1.750  0.3598  0.2376  0.9016
14484TIP3    H164943   3.558   6.628   1.822  0.5668  1.9554  0.2795
14484TIP3    H264944   3.617   6.666   1.688 -0.4949 -1.4486 -1.2631
14485TIP3   OH264945   5.512   1.434   4.952 -0.7579  0.2651  0.1122
14485TIP3    H164946   5.554   1.352   4.926 -1.2179  0.1913 -0.4199
14485TIP3    H264947   5.566   1.467   5.024 -2.8757 -2.6207  3.3165
14486TIP3   OH264948   3.822   2.692   0.353  0.5496 -0.3464 -0.5469
14486TIP3    H164949   3.869   2.773   0.337  0.4503 -0.3462 -0.8385
14486TIP3    H264950   3.739   2.702   0.306  1.2008 -1.2630 -1.9334
14487TIP3   OH264951   1.238   1.419  15.033  0.4431 -1.1803  0.0219
14487TIP3    H164952   1.225   1.406  14.939  0.8196 -1.3015 -0.0166
14487TIP3    H264953   1.247   1.330  15.068 -1.5857 -1.2544  0.4708
14488TIP3   OH264954   0.984   2.814   4.745 -0.0254 -0.6711  0.0015
14488TIP3    H164955   0.957   2.807   4.837  1.2620 -1.8461  0.3348
14488TIP3    H264956   0.920   2.873   4.705 -0.4689  0.0684  1.7090
14489TIP3   OH264957   4.129   0.379   5.875 -0.2088 -0.2455  0.6634
14489TIP3    H164958   4.135   0.452   5.935  0.5790  0.1052  0.1723
14489TIP3    H264959   4.070   0.409   5.806 -0.1019 -0.1674  0.6047
14490TIP3   OH264960   3.227   0.982   1.147  0.1599 -0.2855 -0.0942
14490TIP3    H164961   3.285   0.955   1.077  0.1111  0.0917 -0.2805
14490TIP3    H264962   3.259   1.069   1.174  0.5003 -0.6444  0.7034
14491TIP3   OH264963   3.119   6.248   4.815  0.6668  0.2305 -0.5780
14491TIP3    H164964   3.076   6.325   4.779  1.9389  0.5928 -1.3822
14491TIP3    H264965   3.112   6.258   4.910 -1.3308  0.0682 -0.6750
14492TIP3   OH264966   5.478   5.094   1.308  0.2855 -0.2813 -0.1260
14492TIP3    H164967   5.485   5.150   1.231 -1.3920 -0.8860 -0.7758
14492TIP3    H264968   5.404   5.036   1.289  2.1204 -2.9981  0.3314
14493TIP3   OH264969   4.967   0.584  15.003  0.5414  0.6459  0.5270
14493TIP3    H164970   4.877   0.615  15.019  0.2723 -1.3378  3.6076
14493TIP3    H264971   4.962   0.539  14.919 -1.6157 -0.1396  1.0038
14494TIP3   OH264972   6.229   3.212  11.254 -0.4424 -0.6676 -0.0166
14494TIP3    H164973   6.296   3.252  11.310 -0.8533 -1.2538  0.9117
14494TIP3    H264974   6.162   3.279  11.245  0.4114  0.0735 -1.2752
14495TIP3   OH264975   0.679   5.002   3.244  0.6280  0.4104  0.4117
14495TIP3    H164976   0.700   5.066   3.176 -1.3888  1.5295  0.7824
14495TIP3    H264977   0.698   4.917   3.203  1.7987  1.1501 -0.6495
14496TIP3   OH264978   4.204   0.367   5.285  0.0783 -0.3768  0.3076
14496TIP3    H164979   4.130   0.309   5.266 -1.8086  1.9428  0.2083
14496TIP3    H264980   4.219   0.415   5.204 -0.1752  1.1553  1.1290
14497TIP3   OH264981   5.773   4.904  13.548 -0.4723 -0.3815 -0.0143
14497TIP3    H164982   5.865   4.930  13.548 -0.1574 -1.3531  1.7652
14497TIP3    H264983   5.727   4.978  13.588  0.0508 -1.2403  2.3625
14498TIP3   OH264984   5.581   0.234   0.176 -0.3909 -0.0519  0.4642
14498TIP3    H164985   5.649   0.232   0.109 -1.1957  1.0066 -0.4031
14498TIP3    H264986   5.550   0.143   0.181 -0.8929  0.0042 -1.1972
14499TIP3   OH264987   2.634   0.332  16.398  0.4772 -0.4991  0.3255
14499TIP3    H164988   2.699   0.365  16.336  0.1736 -0.9870 -0.2533
14499TIP3    H264989   2.676   0.255  16.437  0.4389 -0.5285  0.3073
14500TIP3   OH264990   4.485   4.213  12.914  0.3602  0.0925 -0.2614
14500TIP3    H164991   4.431   4.189  12.988 -0.0318 -1.1118 -0.9149
14500TIP3    H264992   4.563   4.158  12.921  1.6572  1.9451  0.7834
14501TIP3   OH264993   0.601   0.038  14.081 -0.6427 -0.0648 -0.0801
14501TIP3    H164994   0.661  -0.009  14.138  0.5901  0.1088 -1.1792
14501TIP3    H264995   0.526  -0.021  14.071 -1.3229  0.2838  2.3922
14502TIP3   OH264996   6.624   5.726  11.647 -0.3610 -0.4373 -0.4757
14502TIP3    H164997   6.551   5.703  11.590  0.1114 -1.4664 -0.6779
14502TIP3    H264998   6.694   5.665  11.623  0.7437  0.8403 -0.6329
14503TIP3   OH264999   2.852   5.828  13.238  0.2163  0.2829 -0.6896
14503TIP3    H165000   2.865   5.922  13.230  2.2883  0.0953 -0.0998
14503TIP3    H265001   2.763   5.819  13.272 -0.3846  1.9558 -1.6712
14504TIP3   OH265002   2.199   5.294  14.059  0.4376  0.1592  0.1090
14504TIP3    H165003   2.142   5.231  14.015 -0.5799  0.4894  0.9207
14504TIP3    H265004   2.206   5.367  13.996  1.4556 -0.6429 -0.7426
14505TIP3   OH265005   3.423   5.236   4.711 -0.3168  0.7409 -0.1728
14505TIP3    H165006   3.386   5.211   4.626 -1.2565 -1.5524  0.8332
14505TIP3    H265007   3.371   5.311   4.739 -1.4577  0.1403 -0.6419
14506TIP3   OH265008   4.181   2.540   6.132  0.0484  0.0787 -0.6042
14506TIP3    H165009   4.259   2.520   6.184 -0.3854  0.0586  0.0489
14506TIP3    H265010   4.112   2.486   6.171 -0.5804  1.0349 -0.3618
14507TIP3   OH265011   5.008   4.577  15.423 -0.6431  0.6676  0.0067
14507TIP3    H165012   5.077   4.525  15.381 -2.0044 -0.6867 -0.6570
14507TIP3    H265013   4.982   4.640  15.356 -0.8811  0.3644 -0.1901
14508TIP3   OH265014   4.274   2.541   5.179  0.5722  0.3108  0.5143
14508TIP3    H165015   4.225   2.463   5.204 -0.3887  0.3496 -1.1408
14508TIP3    H265016   4.322   2.515   5.100  1.2821  1.0247  0.6938
14509TIP3   OH265017   0.535   3.275  13.626  0.0928 -0.2941 -0.1580
14509TIP3    H165018   0.512   3.303  13.715 -0.3216 -0.2048 -0.2918
14509TIP3    H265019   0.625   3.242  13.634 -0.2510 -1.1154  0.4737
14510TIP3   OH265020   2.675   4.639   4.689  0.3335  0.8100 -0.5482
14510TIP3    H165021   2.690   4.545   4.684  0.0757  0.7811 -0.7664
14510TIP3    H265022   2.716   4.675   4.610 -1.1808  0.6718 -1.4279
14511TIP3   OH265023   6.437   6.328   3.227 -0.4831 -0.5846 -0.7534
14511TIP3    H165024   6.520   6.365   3.197 -0.2158  0.2942  0.9715
14511TIP3    H265025   6.371   6.388   3.191 -0.2567 -0.2663 -0.6465
14512TIP3   OH265026   2.950   6.797   2.850  0.4130  0.4523  0.0033
14512TIP3    H165027   2.962   6.828   2.760 -0.5353 -0.2711 -0.3985
14512TIP3    H265028   2.879   6.852   2.884 -0.0664 -0.0888 -0.1139
14513TIP3   OH265029   6.126   2.176  13.764  0.0865 -0.0947 -0.1129
14513TIP3    H165030   6.107   2.190  13.857 -0.0822 -1.5929  0.1003
14513TIP3    H265031   6.059   2.227  13.718 -0.4171 -0.1029  0.5966
14514TIP3   OH265032   3.570   5.029   2.103 -0.1560  0.1722 -0.1567
14514TIP3    H165033   3.490   4.978   2.089 -0.2173  0.4684 -0.9553
14514TIP3    H265034   3.626   5.006   2.028  0.7061 -0.4006  0.6456
14515TIP3   OH265035   1.954   1.408   4.782 -0.0937  0.6394  0.4803
14515TIP3    H165036   1.869   1.363   4.784  0.1183  0.1559 -0.5451
14515TIP3    H265037   1.961   1.441   4.692 -0.0068  2.2927  1.0654
14516TIP3   OH265038   1.596   1.889   1.123 -0.0657 -0.3460 -0.5883
14516TIP3    H165039   1.691   1.900   1.132  0.2769 -2.4390 -1.2232
14516TIP3    H265040   1.561   1.912   1.209  1.1636 -0.8927  0.0868
14517TIP3   OH265041   6.569   1.284   4.220 -0.5265  0.2514 -0.7621
14517TIP3    H165042   6.508   1.220   4.256  0.0614  0.0367 -0.1437
14517TIP3    H265043   6.567   1.357   4.282  0.1552  0.0678 -0.5245
14518TIP3   OH265044   5.273   4.680  13.245  0.6353  0.4153 -0.9809
14518TIP3    H165045   5.332   4.605  13.259 -0.3556 -0.4004 -1.0802
14518TIP3    H265046   5.267   4.722  13.331  0.7170  0.0215 -0.7791
14519TIP3   OH265047   5.762   4.255   3.163  0.0677  0.2043 -0.1264
14519TIP3    H165048   5.679   4.220   3.194  0.3273  0.4828  0.9135
14519TIP3    H265049   5.786   4.323   3.226  1.7237 -0.7688  0.3763
14520TIP3   OH265050   2.978   6.530   0.850 -0.0273  0.1722  0.2565
14520TIP3    H165051   2.895   6.577   0.847 -0.1597 -0.0100  0.8498
14520TIP3    H265052   2.959   6.450   0.899  0.9311  1.0791  2.2454
14521TIP3   OH265053   3.638   4.617   5.739  0.1074  0.2208  0.7258
14521TIP3    H165054   3.567   4.584   5.683 -0.1591 -1.8690  2.2021
14521TIP3    H265055   3.603   4.698   5.776 -1.1570 -0.2957  0.7151
14522TIP3   OH265056   2.454   4.691   5.308  0.5995 -0.3242  0.3909
14522TIP3    H165057   2.397   4.736   5.246  0.4339 -2.5644 -1.1961
14522TIP3    H265058   2.542   4.706   5.274  0.5502 -1.0842 -0.0883
14523TIP3   OH265059   2.217   5.134  13.656 -0.0592  0.0875 -0.3425
14523TIP3    H165060   2.188   5.109  13.744  2.5601 -2.2156 -0.0085
14523TIP3    H265061   2.242   5.226  13.664 -1.9007  0.5584  0.6824
14524TIP3   OH265062   3.236   6.329   0.352  0.2549  0.0471 -0.1267
14524TIP3    H165063   3.265   6.420   0.352 -1.8195  0.7541 -0.9833
14524TIP3    H265064   3.151   6.330   0.309 -0.0824 -2.2296  0.3402
14525TIP3   OH265065   4.706   3.309   0.479 -0.1931  0.2504 -0.3598
14525TIP3    H165066   4.691   3.272   0.566 -0.9882  0.4151 -0.4164
14525TIP3    H265067   4.778   3.257   0.442  0.7034  0.7076  0.7010
14526TIP3   OH265068   4.029   3.485  16.480  0.2959 -0.4562  0.2075
14526TIP3    H165069   4.009   3.410  16.424  0.8961  0.7933 -1.8112
14526TIP3    H265070   3.949   3.501  16.529 -0.2339 -1.6761 -0.2378
14527TIP3   OH265071   2.976   3.988   2.718 -0.7521 -0.0449 -0.2330
14527TIP3    H165072   2.913   3.986   2.646 -2.1620  1.9465  0.8696
14527TIP3    H265073   3.035   4.061   2.696  0.2413 -0.8876 -0.4621
14528TIP3   OH265074   0.119   5.584  16.026  1.1160 -0.2756 -0.7189
14528TIP3    H165075   0.119   5.597  15.931  2.0601  0.0146 -0.6931
14528TIP3    H265076   0.209   5.557  16.046  1.1944  0.6186  0.2132
14529TIP3   OH265077   0.019   0.070   3.669  0.0066 -0.1247 -0.1489
14529TIP3    H165078  -0.034   0.020   3.732  0.1519  1.4317  1.2830
14529TIP3    H265079  -0.040   0.135   3.633  0.8537  1.6537  1.4944
14530TIP3   OH265080   2.268   6.385  16.562  0.0144 -0.5251  0.3224
14530TIP3    H165081   2.240   6.295  16.580 -1.5905 -0.1259 -0.0545
14530TIP3    H265082   2.189   6.429  16.531  0.9550  0.8266 -0.2239
14531TIP3   OH265083   1.511   1.163   5.351 -0.1077 -0.3833  0.1314
14531TIP3    H165084   1.598   1.189   5.382  1.0014 -0.7424 -2.4313
14531TIP3    H265085   1.520   1.072   5.325 -1.6610 -0.8511  1.0776
14532TIP3   OH265086   4.560   0.260   1.771  0.0132 -0.7651 -0.0399
14532TIP3    H165087   4.585   0.286   1.860 -2.3637  2.6157 -0.1413
14532TIP3    H265088   4.521   0.173   1.781  0.9734 -1.0102  1.9765
14533TIP3   OH265089   3.681   4.146  15.024  0.1904 -0.2825  0.0943
14533TIP3    H165090   3.666   4.102  15.108  1.2633 -1.1394 -0.1397
14533TIP3    H265091   3.711   4.076  14.966  1.1124  0.6085 -0.5205
14534TIP3   OH265092   1.962   1.868   0.798  0.0738  0.2213  0.0187
14534TIP3    H165093   1.917   1.875   0.882 -0.0372  1.6521 -0.1322
14534TIP3    H265094   1.894   1.887   0.733  0.7839  2.1749 -0.2244
14535TIP3   OH265095   3.574   3.092  11.929 -0.5785  0.4491 -0.4166
14535TIP3    H165096   3.639   3.150  11.969 -1.0448  0.6202  0.1189
14535TIP3    H265097   3.515   3.151  11.881  0.6611  0.1417 -2.3980
14536TIP3   OH265098   4.593   1.393   5.872  0.4107  0.0368 -0.2936
14536TIP3    H165099   4.509   1.419   5.910 -0.7372 -1.7835 -1.4492
14536TIP3    H265100   4.571   1.351   5.789  2.6666  1.6474 -1.8393
14537TIP3   OH265101   0.357   1.321   1.955  0.0172 -0.5344 -0.0138
14537TIP3    H165102   0.269   1.358   1.951  0.2486 -0.1018 -1.5211
14537TIP3    H265103   0.405   1.382   2.012 -0.3192 -0.0463 -0.2391
14538TIP3   OH265104   1.290   3.044  17.106  0.3079  0.8851  0.5122
14538TIP3    H165105   1.368   2.988  17.103  0.3806  0.8750  1.8726
14538TIP3    H265106   1.236   3.005  17.175 -0.9315  0.8770 -0.4243
14539TIP3   OH265107   6.146   1.048  15.322 -0.1831 -0.6273 -0.3462
14539TIP3    H165108   6.168   1.067  15.231 -0.6753 -1.9291 -0.7703
14539TIP3    H265109   6.222   1.001  15.356  0.1443  0.1613  0.0310
14540TIP3   OH265110   6.700   4.363   4.799  0.0361 -0.1015 -0.5011
14540TIP3    H165111   6.769   4.389   4.860  1.0844  0.0880 -1.7178
14540TIP3    H265112   6.639   4.313   4.852  0.7863  0.2530  0.7475
14541TIP3   OH265113   6.574   3.370   1.212  0.0536 -0.0612  0.2227
14541TIP3    H165114   6.665   3.398   1.225  1.1640 -3.4291  0.5936
14541TIP3    H265115   6.563   3.374   1.117  1.2321 -1.2687  0.0007
14542TIP3   OH265116   3.363   0.660   5.708 -0.7951  0.2593  0.1117
14542TIP3    H165117   3.293   0.723   5.691 -1.5524 -0.7016 -0.4307
14542TIP3    H265118   3.329   0.603   5.776 -0.6538 -0.3710 -0.3343
14543TIP3   OH265119   3.944   1.134  13.142 -0.0360 -0.3261  0.1143
14543TIP3    H165120   3.852   1.121  13.119 -0.3263 -1.0561  1.5950
14543TIP3    H265121   3.985   1.049  13.129  0.1812 -0.2913  0.5473
14544TIP3   OH265122   6.264   5.592  12.376 -0.3200  0.1836 -0.2724
14544TIP3    H165123   6.250   5.588  12.470  3.1902 -0.5878  0.3297
14544TIP3    H265124   6.283   5.683  12.357  0.9239  0.0158  0.1297
14545TIP3   OH265125   5.087   2.835  13.128 -0.9151  0.2157  0.5661
14545TIP3    H165126   5.044   2.872  13.205 -1.7508 -0.8435  0.6363
14545TIP3    H265127   5.052   2.884  13.055 -0.4876  0.9012  0.8117
14546TIP3   OH265128   0.313   6.452  16.389 -0.6504  1.2293  0.3383
14546TIP3    H165129   0.343   6.543  16.376  0.0884  1.1421  1.3211
14546TIP3    H265130   0.394   6.402  16.403 -0.9578  0.2031 -1.2962
14547TIP3   OH265131   3.164   0.763  14.409  0.1029 -0.9660 -0.1968
14547TIP3    H165132   3.192   0.677  14.378  1.0870 -0.7447  0.0593
14547TIP3    H265133   3.124   0.805  14.333  3.4127 -0.0088 -1.5624
14548TIP3   OH265134   6.546   0.590   0.284 -0.0911 -0.1924 -0.3076
14548TIP3    H165135   6.615   0.621   0.343 -0.5898 -0.2905  0.3380
14548TIP3    H265136   6.547   0.653   0.212  0.1267  0.2886  0.1012
14549TIP3   OH265137   0.831   6.148  11.352  0.4449 -0.6302 -0.0604
14549TIP3    H165138   0.911   6.096  11.343 -0.1020 -1.7596  1.1505
14549TIP3    H265139   0.862   6.238  11.362  1.5149 -0.9387 -0.4361
14550TIP3   OH265140   0.867   2.354  16.478 -0.2746  0.4998  0.2899
14550TIP3    H165141   0.786   2.357  16.427  0.2930  0.4084 -0.6406
14550TIP3    H265142   0.916   2.431  16.449 -0.6850  1.4342  1.9983
14551TIP3   OH265143   4.056   6.167   5.866 -0.2937 -0.0353 -0.4396
14551TIP3    H165144   4.072   6.118   5.947 -1.3102  1.0752  0.4678
14551TIP3    H265145   4.142   6.175   5.826  0.1871 -0.8864  0.3599
14552TIP3   OH265146   5.187   5.078   5.160  0.3379  0.4294  0.3069
14552TIP3    H165147   5.158   5.167   5.182 -2.0106 -0.6787  2.2252
14552TIP3    H265148   5.206   5.038   5.245  2.0852 -0.7032 -0.5768
14553TIP3   OH265149   2.409   6.203   0.634 -0.6361  0.1493 -0.5411
14553TIP3    H165150   2.326   6.159   0.615 -1.1142  0.8116  0.0145
14553TIP3    H265151   2.472   6.131   0.642 -0.9339 -0.3080 -1.9918
14554TIP3   OH265152   2.142   0.545   3.044 -0.3987  0.3144 -0.2964
14554TIP3    H165153   2.225   0.512   3.078  0.3775  0.0904 -2.3223
14554TIP3    H265154   2.090   0.564   3.123  2.2368  2.3080  1.1244
14555TIP3   OH265155   0.831   0.524  13.757  0.1533 -0.1265  0.2764
14555TIP3    H165156   0.892   0.585  13.800  1.2728 -0.9399 -0.0985
14555TIP3    H265157   0.855   0.529  13.664 -0.5231 -0.2850  0.0932
14556TIP3   OH265158   4.538   5.054   2.086 -0.1745 -0.5454  0.0502
14556TIP3    H165159   4.542   4.981   2.148  0.4996 -0.9307 -0.4368
14556TIP3    H265160   4.477   5.116   2.126  1.0131 -0.3109  1.6125
14557TIP3   OH265161   5.122   5.394  15.866 -0.3282  0.0826  0.2922
14557TIP3    H165162   5.084   5.355  15.787  1.0641 -2.3459  0.7047
14557TIP3    H265163   5.151   5.481  15.838 -0.9971 -0.2280 -1.5295
14558TIP3   OH265164   2.482   0.733  12.269 -0.6220  0.1614  0.1094
14558TIP3    H165165   2.460   0.667  12.203 -1.4596  3.3431 -3.0979
14558TIP3    H265166   2.401   0.782  12.282  0.3214  1.5197  1.1903
14559TIP3   OH265167   0.258   3.770  13.439  0.0434 -0.2521 -0.5844
14559TIP3    H165168   0.170   3.777  13.476  0.6783  2.4913  0.7119
14559TIP3    H265169   0.262   3.682  13.402 -2.4436 -1.3175  1.3644
14560TIP3   OH265170   5.326   6.418   2.060 -0.0673 -0.1468  0.3573
14560TIP3    H165171   5.312   6.380   2.146  0.8304  1.8757  1.4736
14560TIP3    H265172   5.288   6.505   2.066 -2.7092 -0.9612 -2.3329
14561TIP3   OH265173   5.417   0.390   4.550 -0.0022 -0.6712 -0.2693
14561TIP3    H165174   5.449   0.386   4.640  0.1920 -3.3727 -0.3746
14561TIP3    H265175   5.324   0.412   4.559  0.4269  1.0584  0.4123
14562TIP3   OH265176   3.519   4.592  16.170 -0.4419  0.6674  0.5716
14562TIP3    H165177   3.467   4.516  16.197  0.8083 -0.2576  0.4523
14562TIP3    H265178   3.559   4.566  16.087  0.3615  1.2733  0.7540
14563TIP3   OH265179   5.340   5.618  13.073  0.3390 -0.1105  0.3221
14563TIP3    H165180   5.395   5.590  13.145  0.3342  0.1652  0.4325
14563TIP3    H265181   5.283   5.543  13.055  1.5069 -0.8176 -0.5371
14564TIP3   OH265182   4.268   2.026   4.850  0.0575 -0.3554  0.0526
14564TIP3    H165183   4.172   2.034   4.845  0.0084 -0.5037  0.6584
14564TIP3    H265184   4.284   1.932   4.845  0.1331 -0.3683  0.4971
14565TIP3   OH265185   4.643   5.479  14.262  0.0547 -0.2026  0.1451
14565TIP3    H165186   4.569   5.527  14.298  1.2027  0.2507  2.0486
14565TIP3    H265187   4.703   5.547  14.230  0.2900 -0.5081 -0.0737
14566TIP3   OH265188   3.768   1.233   4.042  0.3360 -0.0859  0.0917
14566TIP3    H165189   3.692   1.176   4.034 -0.5453  0.8645  1.4272
14566TIP3    H265190   3.739   1.318   4.008  0.2789  0.6981  1.9842
14567TIP3   OH265191   6.074   5.965  15.966  0.3269 -0.0138 -0.4386
14567TIP3    H165192   6.047   6.007  16.048  0.7351 -1.1786  0.3371
14567TIP3    H265193   5.997   5.914  15.939  0.5624 -0.5324 -0.1479
14568TIP3   OH265194   4.345   1.895   2.818 -0.2268  0.2747 -0.7668
14568TIP3    H165195   4.265   1.918   2.864  0.8678  0.9414  0.8927
14568TIP3    H265196   4.371   1.975   2.773 -0.9829 -0.2123 -2.1023
14569TIP3   OH265197   3.118   4.616  11.353  0.1621  0.0572  0.1302
14569TIP3    H165198   3.137   4.524  11.336  0.5195  0.1220  0.1657
14569TIP3    H265199   3.195   4.648  11.401 -0.0717  0.3091  0.3450
14570TIP3   OH265200   6.317   0.732   4.769 -0.1822  0.8664 -0.5843
14570TIP3    H165201   6.226   0.736   4.741 -0.1311 -0.4887 -1.0374
14570TIP3    H265202   6.322   0.653   4.822  1.0538 -0.0049 -1.9151
14571TIP3   OH265203   2.028   2.914  11.285  0.3736  0.1291 -0.0507
14571TIP3    H165204   2.037   2.921  11.190 -2.6312  1.2508 -0.3438
14571TIP3    H265205   2.065   2.995  11.319 -0.6778  0.8055 -0.4854
14572TIP3   OH265206   4.394   5.009  16.753  0.5284 -0.4027  0.4849
14572TIP3    H165207   4.403   5.055  16.836  2.1928 -0.8888  0.5953
14572TIP3    H265208   4.364   5.076  16.691 -2.1857 -0.3200  1.7111
14573TIP3   OH265209   1.519   3.890   5.489  1.1854 -0.5245  0.0486
14573TIP3    H165210   1.452   3.850   5.545  1.0376  1.1241  1.1069
14573TIP3    H265211   1.601   3.880   5.539  1.2532 -0.0718  0.0320
14574TIP3   OH265212   6.730   4.771   2.747  0.3607  0.0449 -0.3851
14574TIP3    H165213   6.741   4.679   2.721  1.2801 -0.0227  0.1722
14574TIP3    H265214   6.758   4.821   2.670 -1.1329 -0.1186 -1.0661
14575TIP3   OH265215   1.239   1.053  14.359  0.3075  0.3587 -0.2628
14575TIP3    H165216   1.149   1.033  14.334  0.3054  0.8639 -0.6508
14575TIP3    H265217   1.287   0.971  14.344 -0.4072 -0.4677  1.5793
14576TIP3   OH265218   4.882   0.174   0.673  0.2807 -0.5131 -0.3581
14576TIP3    H165219   4.797   0.199   0.710  1.3758  2.0501  0.6941
14576TIP3    H265220   4.946   0.214   0.731  2.2514 -2.3930 -1.1123
14577TIP3   OH265221   0.368   3.659   1.497  0.0814 -0.7297 -0.3052
14577TIP3    H165222   0.278   3.633   1.473 -0.3444 -0.5002  0.9657
14577TIP3    H265223   0.370   3.753   1.482  0.0343 -0.6993 -0.1253
14578TIP3   OH265224   2.000   6.013  13.989 -0.0007  0.4310 -0.0395
14578TIP3    H165225   2.055   5.938  13.966  1.3541  1.6285 -0.8422
14578TIP3    H265226   2.051   6.089  13.963 -1.2643  1.6586  0.9405
14579TIP3   OH265227   1.227   0.426   3.794 -0.0711 -0.6201  0.1135
14579TIP3    H165228   1.295   0.358   3.797 -1.1818 -1.7158  1.4859
14579TIP3    H265229   1.173   0.402   3.719  2.1071  1.4162 -2.3196
14580TIP3   OH265230   4.876   1.438   5.859 -0.2842 -0.1724 -0.3770
14580TIP3    H165231   4.785   1.418   5.881  0.4660 -0.4933  2.9693
14580TIP3    H265232   4.923   1.357   5.877  0.9289  0.5349 -0.2784
14581TIP3   OH265233   4.881   0.971   5.422 -0.0124  0.0626  0.5127
14581TIP3    H165234   4.795   1.010   5.437  0.0022  0.7424 -0.9880
14581TIP3    H265235   4.938   1.045   5.402  0.6249 -0.4955  0.2132
14582TIP3   OH265236   2.086   2.709   3.894  0.6430 -0.4778 -0.5434
14582TIP3    H165237   2.089   2.614   3.902  2.1489 -0.4124 -0.0135
14582TIP3    H265238   2.171   2.733   3.858  0.2083  0.6725 -0.8723
14583TIP3   OH265239   1.838   3.372  13.130 -0.3696 -0.4408 -0.3829
14583TIP3    H165240   1.835   3.418  13.214 -0.9699  0.2822 -0.7805
14583TIP3    H265241   1.931   3.374  13.106 -0.4672  1.4346 -0.8203
14584TIP3   OH265242   2.040   4.895   2.596 -0.1411  0.1050  0.0241
14584TIP3    H165243   2.039   4.956   2.670  1.1126 -0.3559  0.4463
14584TIP3    H265244   2.131   4.896   2.565 -0.8338  1.0461 -2.1793
14585TIP3   OH265245   1.684   6.615   2.675 -0.0504  0.8067 -0.4211
14585TIP3    H165246   1.748   6.544   2.679  0.3203  1.1301 -0.4913
14585TIP3    H265247   1.605   6.574   2.640  0.0434  0.3507 -0.1085
14586TIP3   OH265248   2.123   6.220  10.514  0.6400 -0.5697  0.0975
14586TIP3    H165249   2.126   6.169  10.434  0.8927 -1.3196  0.5715
14586TIP3    H265250   2.037   6.261  10.514 -0.1386 -2.1471  0.4008
14587TIP3   OH265251   0.883   3.352  14.652 -0.2881 -0.3713  0.5313
14587TIP3    H165252   0.858   3.319  14.566  0.9369 -1.4947  0.5677
14587TIP3    H265253   0.803   3.347  14.704 -0.3515 -2.6672  0.3188
14588TIP3   OH265254   4.077   2.763   1.034  0.0965  0.1590 -0.4306
14588TIP3    H165255   4.114   2.778   1.121  0.4022  3.0156 -0.9357
14588TIP3    H265256   4.153   2.762   0.976 -0.2435  0.4272 -0.8819
14589TIP3   OH265257   3.341   4.654  12.163 -0.2441  0.0534 -0.0588
14589TIP3    H165258   3.387   4.727  12.122  0.7717 -0.4757  0.0948
14589TIP3    H265259   3.277   4.626  12.098  0.1540  0.3437 -0.5810
14590TIP3   OH265260   0.397   2.018   0.988  1.1452  0.0748  0.0630
14590TIP3    H165261   0.356   2.086   0.935 -1.0205 -2.6963 -2.1704
14590TIP3    H265262   0.352   2.022   1.072  0.5094  0.8597 -0.2997
14591TIP3   OH265263   5.173   5.258  16.895 -0.2166 -0.2413  0.6893
14591TIP3    H165264   5.130   5.303  16.822  0.0174 -0.3381  0.4908
14591TIP3    H265265   5.253   5.309  16.910  1.2632 -1.9109 -1.0775
14592TIP3   OH265266   2.964   1.843   2.167 -0.1087  0.2200  0.5665
14592TIP3    H165267   3.054   1.809   2.168  0.5736  1.5886 -2.6314
14592TIP3    H265268   2.935   1.836   2.258  2.9473 -0.9430  1.5845
14593TIP3   OH265269   1.991   4.689  17.049  0.3990  0.4058  0.6791
14593TIP3    H165270   2.064   4.726  17.099  0.5377 -2.0413  2.4333
14593TIP3    H265271   1.935   4.647  17.115 -1.0002 -0.3846 -0.9352
14594TIP3   OH265272   0.639   5.625  14.035 -0.8332  0.5697  0.1195
14594TIP3    H165273   0.694   5.641  13.958 -1.1981  1.1657 -0.0208
14594TIP3    H265274   0.550   5.619  14.000 -1.0561  1.2810  0.5373
14595TIP3   OH265275   1.438   0.395   3.047  0.2638  0.4951 -1.0836
14595TIP3    H165276   1.487   0.365   2.971  2.3822  1.3168 -0.1173
14595TIP3    H265277   1.476   0.480   3.068 -0.9228  0.7219  0.3218
14596TIP3   OH265278   3.292   0.487  13.445 -0.4349  0.5950  0.2316
14596TIP3    H165279   3.320   0.569  13.404  0.0370 -0.5473 -1.8683
14596TIP3    H265280   3.313   0.420  13.380 -0.0417 -1.2993  2.2190
14597TIP3   OH265281   1.385   4.267   4.273 -0.0046  0.1108  0.3005
14597TIP3    H165282   1.367   4.257   4.366 -0.2504 -0.6191  0.1778
14597TIP3    H265283   1.362   4.182   4.234  2.2626 -0.3898 -0.0933
14598TIP3   OH265284   0.777   3.122  16.530 -0.3008 -0.2976  0.8703
14598TIP3    H165285   0.711   3.072  16.482  0.6058 -0.5426 -0.1731
14598TIP3    H265286   0.727   3.184  16.582 -1.3381  0.4765 -0.9478
14599TIP3   OH265287   0.677   3.548  14.931 -0.2133  0.0255  0.2295
14599TIP3    H165288   0.597   3.510  14.896 -0.9676  0.6515  1.2297
14599TIP3    H265289   0.650   3.632  14.968  0.6620 -0.2763  1.6466
14600TIP3   OH265290   3.819   4.395   0.713  0.0029  0.3453 -0.0410
14600TIP3    H165291   3.770   4.383   0.632  0.9364 -0.3938 -0.5053
14600TIP3    H265292   3.793   4.321   0.768 -0.5935  0.8197  0.3356
14601TIP3   OH265293   0.914   6.752  11.351  0.8147 -0.4924 -0.4797
14601TIP3    H165294   0.917   6.756  11.447  2.1451  1.7207 -0.5429
14601TIP3    H265295   0.829   6.711  11.331 -0.2941  0.6261  1.6271
14602TIP3   OH265296   4.384   0.653   1.091  0.2263 -0.2275 -0.4422
14602TIP3    H165297   4.293   0.624   1.077 -0.0163  0.4422 -0.2911
14602TIP3    H265298   4.437   0.575   1.072 -0.4245 -0.8469  0.1924
14603TIP3   OH265299   4.886   2.595  13.111  0.4953 -0.1827  0.7295
14603TIP3    H165300   4.851   2.606  13.023 -4.5152  2.1639  2.6252
14603TIP3    H265301   4.960   2.655  13.116 -1.0680  2.0298 -1.0848
14604TIP3   OH265302   3.754   1.810  12.245  0.0157  0.4984 -0.5468
14604TIP3    H165303   3.668   1.832  12.283 -0.2890 -0.4667 -0.6349
14604TIP3    H265304   3.743   1.720  12.214  1.8745 -0.7068  1.9646
14605TIP3   OH265305   6.598   1.184  15.377  0.6427 -0.1142 -0.1032
14605TIP3    H165306   6.541   1.240  15.324 -1.2461 -1.1704  0.7072
14605TIP3    H265307   6.668   1.242  15.406  0.8011  0.9017 -2.2880
14606TIP3   OH265308   4.811   4.922  13.007  0.3950 -0.1410  0.3289
14606TIP3    H165309   4.731   4.963  13.038 -0.4693 -1.8002  0.3527
14606TIP3    H265310   4.848   4.879  13.084  0.2278 -1.0930 -0.1124
14607TIP3   OH265311   3.727   2.018  13.310  0.2236 -0.1289  0.1748
14607TIP3    H165312   3.788   1.966  13.361  2.7248  2.3244 -0.0822
14607TIP3    H265313   3.736   1.986  13.220  0.6103 -0.2526  0.2570
14608TIP3   OH265314   2.641   0.495   3.332  0.3091 -0.4907 -0.4930
14608TIP3    H165315   2.661   0.563   3.397  0.9961 -2.4624  1.5150
14608TIP3    H265316   2.707   0.507   3.264  0.6960  0.5489  0.0369
14609TIP3   OH265317   0.824   5.081   6.040  0.0016  0.4326  0.1731
14609TIP3    H165318   0.919   5.079   6.029  0.2351  3.2161  0.8439
14609TIP3    H265319   0.809   5.042   6.126  0.6656  0.8416  0.4890
14610TIP3   OH265320   3.299   6.129   5.082  0.1658  0.1057  0.1611
14610TIP3    H165321   3.368   6.140   5.147  1.3158  3.1209 -1.3936
14610TIP3    H265322   3.276   6.218   5.056 -2.4977 -0.8952 -1.2921
14611TIP3   OH265323   5.558   6.463   3.697  0.3212 -0.6736  0.1433
14611TIP3    H165324   5.582   6.516   3.621 -0.4470 -2.9252 -1.8178
14611TIP3    H265325   5.462   6.466   3.698  0.3300 -0.1302  1.4898
14612TIP3   OH265326   5.877   3.342  15.260 -0.1283 -1.0037 -0.2877
14612TIP3    H165327   5.797   3.336  15.313  0.2887 -0.6129  0.4012
14612TIP3    H265328   5.886   3.256  15.219 -1.3834 -0.7764 -1.0890
14613TIP3   OH265329   5.850   2.441   2.149  0.1846  0.1328 -0.5782
14613TIP3    H165330   5.867   2.535   2.142 -1.7112  0.4964 -0.8451
14613TIP3    H265331   5.872   2.406   2.063 -0.0888  0.5111 -0.8026
14614TIP3   OH265332   4.764   5.216  14.904  0.6975 -0.3213 -0.1708
14614TIP3    H165333   4.808   5.159  14.840  0.9312 -0.2439 -0.0798
14614TIP3    H265334   4.671   5.204  14.887  0.7742  0.3665 -1.1029
14615TIP3   OH265335   2.414   4.625   4.785  0.3801 -0.4347  0.0264
14615TIP3    H165336   2.502   4.641   4.752 -0.1985 -0.4898 -1.6866
14615TIP3    H265337   2.404   4.530   4.781  0.5527 -0.5044  1.1080
14616TIP3   OH265338   2.007   1.468   5.421 -0.3014  0.2767 -0.6094
14616TIP3    H165339   2.078   1.406   5.437  0.2629  1.2022  0.7092
14616TIP3    H265340   2.002   1.474   5.326  1.7372  0.5293 -0.7604
14617TIP3   OH265341   0.270   6.827  11.361 -0.2709  0.5888 -0.6685
14617TIP3    H165342   0.215   6.897  11.396  0.8587  0.0386  2.4746
14617TIP3    H265343   0.356   6.842  11.399  0.5190 -1.3798 -1.5303
14618TIP3   OH265344   4.643   5.433  13.338  0.4850  0.1866  0.3734
14618TIP3    H165345   4.655   5.447  13.245 -0.8286 -1.2685 -0.0535
14618TIP3    H265346   4.590   5.507  13.367 -0.3886 -0.1394 -0.3595
14619TIP3   OH265347   6.470   2.313   1.360 -0.0671 -0.3080  0.0519
14619TIP3    H165348   6.532   2.292   1.290  0.7157  0.1793  0.5875
14619TIP3    H265349   6.439   2.228   1.390 -0.6693 -0.5171 -1.1009
14620TIP3   OH265350   3.730   5.569  17.145  0.1439 -0.3570 -0.0618
14620TIP3    H165351   3.639   5.601  17.141 -0.4695 -1.7910  1.1747
14620TIP3    H265352   3.764   5.606  17.227  0.3828 -0.5473 -0.0760
14621TIP3   OH265353   3.567   6.572  10.326 -0.1575 -0.5070  0.2670
14621TIP3    H165354   3.603   6.658  10.346 -0.7626 -0.1710 -0.0574
14621TIP3    H265355   3.553   6.573  10.231  1.4718 -1.6145 -0.0257
14622TIP3   OH265356   6.617   5.357   3.358 -0.6957  0.5185 -0.3628
14622TIP3    H165357   6.698   5.386   3.315 -0.5419  2.2910  1.0140
14622TIP3    H265358   6.551   5.418   3.328 -0.5122  2.0348  2.1008
14623TIP3   OH265359   2.730   3.482   2.413  0.5284 -0.0436  0.2284
14623TIP3    H165360   2.797   3.428   2.455  1.1251  1.1112  0.8003
14623TIP3    H265361   2.774   3.565   2.396 -0.9877  1.0658  1.4394
14624TIP3   OH265362   4.559   1.168  14.844 -0.2691 -0.3498 -0.0829
14624TIP3    H165363   4.616   1.150  14.919 -1.4868 -2.0122  0.4907
14624TIP3    H265364   4.498   1.234  14.877 -0.6214 -0.8656  0.3078
14625TIP3   OH265365   4.599   3.182  14.808  0.1380 -0.0561  0.0955
14625TIP3    H165366   4.556   3.221  14.883  1.1196 -1.6910  1.5887
14625TIP3    H265367   4.689   3.216  14.811  0.2146 -0.2198 -0.2590
14626TIP3   OH265368   5.412   5.482  12.793  0.1638 -0.1500  0.0442
14626TIP3    H165369   5.367   5.488  12.709 -1.1698 -3.2066  0.4010
14626TIP3    H265370   5.347   5.511  12.857  0.6098  0.5976  0.1675
14627TIP3   OH265371   2.065   1.412  12.994 -0.2485 -0.3895 -0.5858
14627TIP3    H165372   2.112   1.495  13.008 -2.4928  0.9728 -0.6522
14627TIP3    H265373   2.134   1.349  12.976  1.5252  1.5710 -1.1197
14628TIP3   OH265374   1.458   2.919   2.689 -0.0532 -0.4959  0.6490
14628TIP3    H165375   1.451   2.829   2.656  0.8092 -0.4128  0.2212
14628TIP3    H265376   1.526   2.915   2.755  1.6385  0.2691 -0.9659
14629TIP3   OH265377   4.289   1.313  12.263  0.0866  0.7382 -0.2105
14629TIP3    H165378   4.212   1.264  12.290  1.3442 -1.5366 -0.4890
14629TIP3    H265379   4.345   1.316  12.342  0.7659  0.1663 -0.6556
14630TIP3   OH265380   4.442   1.116  16.558 -0.5574 -0.0993  0.4159
14630TIP3    H165381   4.483   1.156  16.482 -0.8085  0.5351  0.6058
14630TIP3    H265382   4.443   1.022  16.540 -0.1491  0.0092 -0.1327
14631TIP3   OH265383   1.586   1.926   2.341  0.4692 -0.1728 -0.3800
14631TIP3    H165384   1.575   1.848   2.287 -1.8264  0.6913 -1.3051
14631TIP3    H265385   1.681   1.936   2.350  0.8423 -3.0764 -0.1307
14632TIP3   OH265386   2.367   2.673   5.370 -0.8396  0.0177 -0.0901
14632TIP3    H165387   2.336   2.736   5.435 -3.0372 -1.1287  0.0585
14632TIP3    H265388   2.291   2.657   5.314  0.5056 -0.3314 -1.9189
14633TIP3   OH265389   4.664   0.495   3.271 -0.4284 -0.4284  0.0542
14633TIP3    H165390   4.717   0.484   3.192  1.4148 -0.5674  1.2370
14633TIP3    H265391   4.674   0.587   3.294 -1.0587 -0.3604  0.0609
14634TIP3   OH265392   1.614   6.586  13.409 -0.0190  0.6719 -0.4646
14634TIP3    H165393   1.554   6.614  13.478  0.7905 -1.1526  1.0921
14634TIP3    H265394   1.700   6.613  13.439  0.3083  0.2327 -0.9813
14635TIP3   OH265395   4.622   3.306   4.148  0.7098  0.2257  0.5502
14635TIP3    H165396   4.659   3.251   4.216  1.3200 -0.2601 -0.1544
14635TIP3    H265397   4.697   3.355   4.113  0.3917  0.5341  0.2900
14636TIP3   OH265398   6.451   1.243  11.796  0.1443  0.2114 -0.2591
14636TIP3    H165399   6.385   1.312  11.793  0.8347  0.8566 -0.7828
14636TIP3    H265400   6.425   1.182  11.727 -0.7211 -0.3202  0.4982
14637TIP3   OH265401   2.489   4.802  12.472 -0.0384 -0.6999 -0.0952
14637TIP3    H165402   2.574   4.814  12.429 -0.2438  0.2449 -0.2701
14637TIP3    H265403   2.425   4.817  12.402 -0.3556 -1.2933  0.0612
14638TIP3   OH265404   2.785   1.426   0.875  0.7334 -0.0927  0.2489
14638TIP3    H165405   2.741   1.396   0.795 -0.0150  0.9385  0.2458
14638TIP3    H265406   2.820   1.346   0.915  0.2355 -0.7473 -0.5876
14639TIP3   OH265407   0.726   1.551   5.882 -0.0864 -0.2544 -0.4489
14639TIP3    H165408   0.760   1.462   5.884 -1.3649 -0.8243 -2.2726
14639TIP3    H265409   0.631   1.541   5.877 -0.2103  1.1527 -1.8792
14640TIP3   OH265410   3.848   2.580  15.750  0.4477 -0.0079  0.6249
14640TIP3    H165411   3.901   2.555  15.674  0.2319 -0.5267  0.6341
14640TIP3    H265412   3.830   2.497  15.794 -1.3516 -0.0370 -0.0358
14641TIP3   OH265413   3.271   0.474  10.791  0.0684  0.1722  0.3512
14641TIP3    H165414   3.262   0.488  10.886 -1.1762  0.5918  0.1974
14641TIP3    H265415   3.219   0.545  10.752 -0.0971 -0.4727 -0.6253
14642TIP3   OH265416   3.913   1.616  11.691 -0.6121 -0.3237  0.1888
14642TIP3    H165417   3.917   1.586  11.600  1.9927  3.1769 -1.1364
14642TIP3    H265418   3.853   1.691  11.688 -0.8390 -0.4436  1.4710
14643TIP3   OH265419   2.945   5.592  14.746  0.3929 -0.1633 -0.4711
14643TIP3    H165420   2.854   5.614  14.728  0.7660  1.1873 -0.7821
14643TIP3    H265421   2.978   5.664  14.800  0.0972 -2.6911  3.4876
14644TIP3   OH265422   0.475   6.636   2.035  0.2993  0.5234  0.3935
14644TIP3    H165423   0.410   6.568   2.054  0.7647  0.1254  0.5855
14644TIP3    H265424   0.449   6.671   1.950 -0.7490  1.0609  0.9097
14645TIP3   OH265425   3.107   2.537   0.308 -0.1671  0.3121 -0.2637
14645TIP3    H165426   3.108   2.567   0.399  2.0368  0.3372 -0.2363
14645TIP3    H265427   3.199   2.519   0.288 -0.8792 -2.1148 -1.7128
14646TIP3   OH265428   0.458   0.876   3.744 -0.4023  0.3358 -0.4770
14646TIP3    H165429   0.491   0.812   3.807  0.1093 -1.1828 -2.2033
14646TIP3    H265430   0.393   0.828   3.693  0.0300  1.1660 -1.8636
14647TIP3   OH265431   6.478   2.710  10.743 -0.2498  0.5833 -0.3323
14647TIP3    H165432   6.561   2.670  10.769 -0.5477  0.4318  0.4082
14647TIP3    H265433   6.489   2.731  10.650  0.3747 -0.0379 -0.4012
14648TIP3   OH265434   0.933   4.972   6.547 -0.1397 -0.0068 -0.1592
14648TIP3    H165435   0.946   4.946   6.638  0.1861  2.4389  0.5784
14648TIP3    H265436   0.944   4.891   6.497 -1.5118 -1.6649  2.0229
14649TIP3   OH265437   5.762   5.566   3.260 -0.3121 -0.2910 -0.5508
14649TIP3    H165438   5.677   5.542   3.296  0.4130 -0.6146  1.0088
14649TIP3    H265439   5.790   5.641   3.312  0.2764 -0.0550 -1.1965
14650TIP3   OH265440   6.056   0.193   3.521  0.0796  0.3409 -0.1992
14650TIP3    H165441   5.987   0.237   3.471  0.2072 -0.1321 -0.8018
14650TIP3    H265442   6.102   0.140   3.456  2.9066  2.8655 -0.5211
14651TIP3   OH265443   3.625   3.776  10.699 -0.8945 -0.1447 -0.0837
14651TIP3    H165444   3.552   3.730  10.657 -0.3257 -1.6006  0.4603
14651TIP3    H265445   3.699   3.761  10.640 -0.8459  0.6559 -0.2359
14652TIP3   OH265446   6.043   5.015  10.690 -0.2196 -0.3847 -0.0212
14652TIP3    H165447   5.987   5.059  10.626 -1.3818 -1.2094  0.3789
14652TIP3    H265448   6.098   5.084  10.726 -1.8280  0.7241  0.4367
14653TIP3   OH265449   6.585   1.073  15.990  0.2892 -0.0379  0.5027
14653TIP3    H165450   6.550   0.989  16.018  1.3658 -0.4578  0.6264
14653TIP3    H265451   6.633   1.054  15.910  2.0803  0.1062  1.5011
14654TIP3   OH265452   0.079   1.087  15.534  0.0048  0.3592  0.3096
14654TIP3    H165453   0.155   1.029  15.535 -0.5921 -0.4348  1.1718
14654TIP3    H265454   0.107   1.165  15.582  0.6098  0.5280 -0.3072
14655TIP3   OH265455   6.480   1.043  13.648  0.5539  0.5135 -0.4565
14655TIP3    H165456   6.384   1.039  13.653  0.5119  0.9123 -0.8437
14655TIP3    H265457   6.497   1.111  13.583  1.1061  0.6352 -0.1839
14656TIP3   OH265458   0.431   4.036  14.988  0.3748 -0.1730  0.2197
14656TIP3    H165459   0.422   4.097  15.061 -1.1164 -0.5524  0.3820
14656TIP3    H265460   0.370   3.965  15.008 -0.5808  0.0379 -1.7116
14657TIP3   OH265461   0.458   4.390  10.987 -0.0379  0.4800 -0.2006
14657TIP3    H165462   0.367   4.397  11.016  0.2647  2.5082  0.3917
14657TIP3    H265463   0.453   4.396  10.892 -0.5764 -0.1862 -0.2227
14658TIP3   OH265464   1.545   4.121   2.931  0.4940 -0.6345  0.1766
14658TIP3    H165465   1.636   4.095   2.919  0.0551 -1.7199 -1.0615
14658TIP3    H265466   1.504   4.043   2.969  0.0270 -0.2474  0.4661
14659TIP3   OH265467   4.570   2.483  14.491  0.0221 -0.2840  0.2779
14659TIP3    H165468   4.616   2.453  14.412 -1.8988 -1.7934 -0.3547
14659TIP3    H265469   4.601   2.425  14.560  0.6343  0.0851  0.3131
14660TIP3   OH265470   3.137   3.361   6.543  0.0896 -0.5508 -0.3990
14660TIP3    H165471   3.221   3.397   6.571  1.0152 -2.8521  0.0743
14660TIP3    H265472   3.159   3.274   6.510 -1.9785 -0.7231 -1.4461
14661TIP3   OH265473   2.761   6.592   5.506  0.1289  0.0588 -0.2500
14661TIP3    H165474   2.768   6.666   5.567  1.2605 -0.3580  0.1597
14661TIP3    H265475   2.711   6.526   5.554 -0.8331  0.5315 -0.5944
14662TIP3   OH265476   0.121   5.577   3.372 -0.1034  0.5785 -0.0438
14662TIP3    H165477   0.212   5.549   3.383 -0.7618 -1.1692  1.5777
14662TIP3    H265478   0.120   5.669   3.397  1.3254  0.8259 -0.8151
14663TIP3   OH265479   1.603   6.042  16.127 -0.2316  0.0028 -0.2694
14663TIP3    H165480   1.578   6.021  16.217 -1.7832  0.0245 -0.6748
14663TIP3    H265481   1.643   6.129  16.133 -0.9425  0.3013  0.3111
14664TIP3   OH265482   3.285   3.623  14.334  0.0727  0.0110 -0.1034
14664TIP3    H165483   3.250   3.534  14.324  1.2241 -0.3558 -1.0965
14664TIP3    H265484   3.309   3.649  14.245  1.8846  0.4111  0.4788
14665TIP3   OH265485   4.211   5.473  11.197 -0.1326  0.1296 -0.7410
14665TIP3    H165486   4.146   5.538  11.225 -0.6603  0.2328 -2.1335
14665TIP3    H265487   4.294   5.509  11.227 -0.6263  0.3879  0.3740
14666TIP3   OH265488   0.451   5.639  10.465 -0.7084 -0.0912  0.4415
14666TIP3    H165489   0.478   5.550  10.442  0.7866  0.1447  1.1134
14666TIP3    H265490   0.359   5.645  10.439  0.3742 -0.2149 -4.3296
14667TIP3   OH265491   5.810   5.806   3.656 -0.8137 -0.4287  0.0427
14667TIP3    H165492   5.870   5.824   3.584 -1.7874 -1.7985 -1.1727
14667TIP3    H265493   5.851   5.734   3.704 -0.6341 -0.1690  0.2812
14668TIP3   OH265494   0.098   6.742   1.045 -0.1150  0.6519 -0.4843
14668TIP3    H165495   0.088   6.761   0.951  1.3598 -1.7651 -1.2211
14668TIP3    H265496   0.056   6.656   1.056 -0.0276  0.7902  1.0346
14669TIP3   OH265497   5.111   5.729  15.233  0.2599  0.5313  0.2898
14669TIP3    H165498   5.055   5.767  15.301  0.7748  1.2107  0.3396
14669TIP3    H265499   5.200   5.742  15.265  0.5305  1.1532 -0.6539
14670TIP3   OH265500   4.787   4.866   0.550 -0.1304  0.1204  1.1069
14670TIP3    H165501   4.744   4.796   0.600 -0.0497 -0.6315  0.1634
14670TIP3    H265502   4.815   4.929   0.616  0.2304 -0.9830  2.0383
14671TIP3   OH265503   4.669   6.576  13.641  0.3506  1.0314 -0.3953
14671TIP3    H165504   4.722   6.656  13.643  3.1624 -0.6832 -0.6747
14671TIP3    H265505   4.700   6.529  13.564 -0.8163 -0.5840  0.0784
14672TIP3   OH265506   4.456   6.232  16.512 -0.0967  0.0230  0.1781
14672TIP3    H165507   4.529   6.271  16.464 -0.5776  1.9409  0.8932
14672TIP3    H265508   4.468   6.137  16.503  0.7144  0.2970 -2.3339
14673TIP3   OH265509   3.018   0.187  13.845  0.6090  0.1155 -0.2230
14673TIP3    H165510   2.993   0.224  13.760  0.2657 -1.3974 -0.8116
14673TIP3    H265511   3.059   0.103  13.823  2.5421  0.6686  0.9890
14674TIP3   OH265512   4.432   1.379  14.942 -0.1469  0.1721 -0.3346
14674TIP3    H165513   4.416   1.388  15.036  0.6200 -1.3642 -0.0267
14674TIP3    H265514   4.346   1.359  14.905 -0.2988 -0.1561  0.1824
14675TIP3   OH265515   0.766   4.169  16.761  0.2996 -0.0540  0.6787
14675TIP3    H165516   0.728   4.180  16.848  0.4474  2.3815  0.5180
14675TIP3    H265517   0.748   4.252  16.717  1.2432 -0.8043 -1.2201
14676TIP3   OH265518   0.309   3.379  11.887  0.0249  0.4051 -0.9280
14676TIP3    H165519   0.241   3.346  11.946  0.6320  2.0539  0.7966
14676TIP3    H265520   0.274   3.364  11.799 -1.8445 -0.2216 -0.1228
14677TIP3   OH265521   2.004   6.374  15.592 -0.0657  0.3406  0.1960
14677TIP3    H165522   1.936   6.439  15.573  1.6116  2.4797  0.9664
14677TIP3    H265523   1.971   6.326  15.668 -1.4882  0.0456 -0.5870
14678TIP3   OH265524   6.495   2.114   1.069  0.5189 -0.2820 -0.8294
14678TIP3    H165525   6.405   2.079   1.066  0.9485 -1.4644 -0.4712
14678TIP3    H265526   6.486   2.198   1.114 -0.4546 -0.2327 -1.0833
14679TIP3   OH265527   4.959   5.332   1.359 -0.3734 -0.2783 -0.1415
14679TIP3    H165528   4.883   5.281   1.388  0.5177 -1.0486  0.9785
14679TIP3    H265529   4.970   5.310   1.267 -1.7436  0.1710 -0.4247
14680TIP3   OH265530   5.463   6.493   0.555  0.1420 -0.2315  0.1695
14680TIP3    H165531   5.505   6.577   0.534  1.0691 -1.0193 -1.2904
14680TIP3    H265532   5.371   6.506   0.531  0.1552  0.5388  0.4954
14681TIP3   OH265533   1.962   4.583   5.355  0.1453  0.6143  0.0200
14681TIP3    H165534   1.979   4.529   5.432  1.3833  2.1029  0.8508
14681TIP3    H265535   1.938   4.669   5.390  0.7046  1.3190 -1.2362
14682TIP3   OH265536   3.826   5.363  14.673 -0.3596  0.4072 -0.8161
14682TIP3    H165537   3.901   5.382  14.730 -0.1970  0.4943 -1.0586
14682TIP3    H265538   3.813   5.268  14.683  0.2671  0.2525 -1.3530
14683TIP3   OH265539   6.778   0.785  17.195  0.3905  0.0362  0.3821
14683TIP3    H165540   6.682   0.784  17.204  0.4200  0.1158  0.7019
14683TIP3    H265541   6.804   0.871  17.227  0.4318  0.6201 -1.1297
14684TIP3   OH265542   4.771   5.867   1.316 -0.0008  0.4431 -0.1050
14684TIP3    H165543   4.866   5.872   1.300  0.1561  0.7074  0.8538
14684TIP3    H265544   4.744   5.958   1.324  0.2262  0.3360  2.6649
14685TIP3   OH265545   2.558   1.648   5.799 -0.2671 -0.3753  0.0927
14685TIP3    H165546   2.556   1.706   5.876  1.6712  1.8142 -1.3560
14685TIP3    H265547   2.479   1.595   5.807 -0.0958 -0.3618  3.6399
14686TIP3   OH265548   1.536   2.083   2.930 -0.1718 -0.0372 -0.8974
14686TIP3    H165549   1.458   2.092   2.875  0.5493  1.0198 -1.7887
14686TIP3    H265550   1.608   2.070   2.868  0.5861  0.6685 -0.1812
14687TIP3   OH265551   6.349   6.558   1.129 -0.1420 -0.1715  0.3894
14687TIP3    H165552   6.381   6.477   1.168 -0.8805 -0.2464  0.8676
14687TIP3    H265553   6.320   6.534   1.042  0.2124 -0.2918  0.3031
14688TIP3   OH265554   2.902   2.349  13.267 -0.0705  0.1178 -0.4906
14688TIP3    H165555   2.896   2.254  13.259  0.3322  0.0645 -0.2239
14688TIP3    H265556   2.913   2.364  13.361 -1.4019  0.5077 -0.3810
14689TIP3   OH265557   4.225   6.540   2.221 -0.0452  0.3632  0.0389
14689TIP3    H165558   4.159   6.600   2.256 -2.0695 -1.5383 -0.2657
14689TIP3    H265559   4.238   6.570   2.131  0.5181  1.5208  0.4800
14690TIP3   OH265560   6.657   4.096  12.297 -0.1716 -0.1367  0.0082
14690TIP3    H165561   6.639   4.189  12.302 -0.1729 -0.1477  0.2279
14690TIP3    H265562   6.599   4.056  12.362  0.9675 -0.1178  1.0881
14691TIP3   OH265563   2.053   1.473  14.503  0.2281 -0.1744 -0.3431
14691TIP3    H165564   2.003   1.493  14.583 -1.6007 -4.1698 -0.2543
14691TIP3    H265565   2.144   1.471  14.532 -0.2835 -0.2426  1.3702
14692TIP3   OH265566   4.075   2.060   0.162 -0.2427 -0.4629 -0.0992
14692TIP3    H165567   4.008   1.992   0.156 -0.6162 -0.2845  1.5579
14692TIP3    H265568   4.078   2.084   0.255  1.8236 -0.1572 -0.1817
14693TIP3   OH265569   0.687   2.554   2.521  0.3746  0.0584 -0.1903
14693TIP3    H165570   0.734   2.538   2.603 -0.5302  0.5647  0.4302
14693TIP3    H265571   0.673   2.466   2.485 -1.4688 -0.3878  1.4599
14694TIP3   OH265572   0.110   3.904  13.843  0.5798  0.1097 -0.1008
14694TIP3    H165573   0.057   3.968  13.796  0.1675 -1.1278 -1.3390
14694TIP3    H265574   0.156   3.957  13.909  1.5898  2.0136 -2.1780
14695TIP3   OH265575   2.580   1.013  13.272  0.0009 -0.3062  0.2470
14695TIP3    H165576   2.639   0.939  13.289 -0.0726 -0.7145 -1.1001
14695TIP3    H265577   2.496   0.972  13.252  0.5230 -0.0995 -2.9610
14696TIP3   OH265578   0.348   1.557   2.110  0.4128  0.4594 -0.0567
14696TIP3    H165579   0.415   1.624   2.099 -1.0173  1.7859 -1.1320
14696TIP3    H265580   0.283   1.598   2.167 -0.8971  0.3547 -1.4185
14697TIP3   OH265581   2.520   3.812   6.421  0.0671 -0.0262  0.6544
14697TIP3    H165582   2.456   3.872   6.383  0.6687  0.8789  1.0449
14697TIP3    H265583   2.596   3.866   6.440  1.1432 -1.1678 -0.2218
14698TIP3   OH265584   3.762   5.675   0.654 -0.4380  0.1830  0.5109
14698TIP3    H165585   3.769   5.586   0.619 -3.2362 -0.0439  0.3077
14698TIP3    H265586   3.771   5.731   0.578 -0.6072 -0.0231  0.3365
14699TIP3   OH265587   4.617   4.717  16.595  0.7792  0.2047 -0.4661
14699TIP3    H165588   4.625   4.781  16.666 -0.6863 -0.8783  0.7224
14699TIP3    H265589   4.523   4.710  16.580  1.0329 -0.1385 -2.0406
14700TIP3   OH265590   6.674   0.570  12.907 -0.0378 -0.0348 -0.1276
14700TIP3    H165591   6.755   0.570  12.856  1.3532  1.2808  1.8892
14700TIP3    H265592   6.623   0.642  12.870  0.4176  0.1367 -0.4369
14701TIP3   OH265593   0.324   2.824  14.933  0.0438  0.2508 -0.2639
14701TIP3    H165594   0.255   2.779  14.885 -0.9660  1.8762 -0.3920
14701TIP3    H265595   0.301   2.917  14.928  0.3547  0.5669  2.6628
14702TIP3   OH265596   1.623   0.430   1.171 -0.6929 -0.3292  0.3890
14702TIP3    H165597   1.650   0.356   1.225 -0.8902 -0.5089  0.2420
14702TIP3    H265598   1.609   0.501   1.233  1.4669  0.1895  0.3709
14703TIP3   OH265599   5.465   3.454  12.754 -0.2314  0.0362 -0.6315
14703TIP3    H165600   5.507   3.420  12.675 -0.0527  1.4922 -1.1935
14703TIP3    H265601   5.372   3.461  12.731 -0.8614 -3.0021  0.5484
14704TIP3   OH265602   1.965   1.088   5.000 -0.6930 -0.3174  0.1773
14704TIP3    H165603   1.976   1.060   4.909 -2.9731  1.5657 -0.7968
14704TIP3    H265604   2.052   1.117   5.027 -0.0859 -0.3606 -1.5861
14705TIP3   OH265605   0.509   5.881  12.479 -0.1213 -0.1143  0.3451
14705TIP3    H165606   0.570   5.876  12.553  0.5382 -0.0092 -0.1850
14705TIP3    H265607   0.494   5.975  12.467  0.4752 -0.0850 -0.2173
14706TIP3   OH265608   0.096   5.090   3.708 -0.0165  0.2046  0.6414
14706TIP3    H165609   0.175   5.077   3.761  0.5822 -0.5292 -0.4019
14706TIP3    H265610   0.111   5.173   3.663  0.6813 -0.4625 -0.4019
14707TIP3   OH265611   5.851   5.705   1.537  0.2314  0.6912 -0.3238
14707TIP3    H165612   5.875   5.648   1.610 -1.6694  2.6552  2.0214
14707TIP3    H265613   5.918   5.689   1.470  1.2303 -2.2900  1.2095
14708TIP3   OH265614   5.866   4.062   5.464  0.3001 -0.7729 -0.8832
14708TIP3    H165615   5.929   3.991   5.478  1.3559  0.4277  0.7683
14708TIP3    H265616   5.878   4.120   5.539 -2.1540 -0.0135 -1.0138
14709TIP3   OH265617   0.607   6.191  11.203 -0.0241  0.5578  0.5603
14709TIP3    H165618   0.523   6.158  11.237  1.1243 -1.3180  1.8019
14709TIP3    H265619   0.672   6.160  11.267  1.6821  1.5125 -0.6360
14710TIP3   OH265620   4.615   3.638  13.751 -0.0698  0.1488  0.0916
14710TIP3    H165621   4.666   3.650  13.831 -1.8629 -0.9054  1.4928
14710TIP3    H265622   4.667   3.678  13.682  0.5201  3.2732  2.1403
14711TIP3   OH265623   4.392   0.008  13.052  0.5933  0.1401  0.0397
14711TIP3    H165624   4.309   0.055  13.067  0.2994 -0.5433  0.6206
14711TIP3    H265625   4.446   0.032  13.127  0.7498  0.2242 -0.1018
14712TIP3   OH265626   0.190   0.543   2.375  0.5411  0.1835  0.1619
14712TIP3    H165627   0.201   0.636   2.396  0.3405  0.4628 -0.9053
14712TIP3    H265628   0.157   0.504   2.456  0.2018  1.1282  0.4969
14713TIP3   OH265629   5.150   6.214  15.208 -0.0925 -0.1141 -0.5953
14713TIP3    H165630   5.129   6.245  15.120 -0.3065 -0.6207 -0.7256
14713TIP3    H265631   5.189   6.290  15.252  3.5259 -0.7994 -2.2707
14714TIP3   OH265632   2.536   3.570  15.285 -0.0918  0.1636  0.0879
14714TIP3    H165633   2.451   3.591  15.247  0.3361  2.0358  0.1116
14714TIP3    H265634   2.514   3.521  15.365 -1.0265 -2.1992 -1.5118
14715TIP3   OH265635   4.327   4.767   4.119 -0.0467  1.0197  0.3560
14715TIP3    H165636   4.269   4.694   4.099  0.0272  0.9271  0.4774
14715TIP3    H265637   4.385   4.734   4.187  1.4224  0.4899 -1.1056
14716TIP3   OH265638   3.450   2.737  16.278 -0.0388  0.2299  0.6302
14716TIP3    H165639   3.408   2.820  16.258  0.2469  0.2312  0.0234
14716TIP3    H265640   3.541   2.760  16.297  0.7750 -0.2006 -2.2920
14717TIP3   OH265641   2.344   5.115  15.030  0.2961 -0.2535  0.0890
14717TIP3    H165642   2.433   5.128  14.998  0.0001  3.9444  0.4359
14717TIP3    H265643   2.298   5.076  14.955  1.7692  0.2074 -1.1177
14718TIP3   OH265644   4.018   5.511  11.855 -0.1790 -0.2666  0.0376
14718TIP3    H165645   3.996   5.506  11.762 -0.6814  1.0019  0.0576
14718TIP3    H265646   4.104   5.552  11.858 -0.4359  0.2794  0.1371
14719TIP3   OH265647   3.878   3.692  14.200 -0.7310 -0.3646 -0.0734
14719TIP3    H165648   3.788   3.723  14.192 -0.3142  0.4755 -2.1457
14719TIP3    H265649   3.871   3.597  14.207 -1.8522 -0.1914  2.4808
14720TIP3   OH265650   6.272   0.926   0.355  0.2230 -0.2287  0.8210
14720TIP3    H165651   6.236   1.005   0.313 -1.0046 -1.9161 -1.5878
14720TIP3    H265652   6.200   0.892   0.408  0.0774 -0.7260  0.3160
14721TIP3   OH265653   1.405   2.833   5.232 -0.2131  0.4459  0.3120
14721TIP3    H165654   1.471   2.776   5.270 -1.8782 -0.2805  2.3412
14721TIP3    H265655   1.343   2.773   5.189  0.0344  1.0538 -0.9523
14722TIP3   OH265656   0.509   3.150   0.508 -0.8704  0.0282  0.7919
14722TIP3    H165657   0.428   3.187   0.473  0.3243  1.3106 -0.7164
14722TIP3    H265658   0.480   3.072   0.555 -2.9103  0.0215 -0.3396
14723TIP3   OH265659   4.221   5.448  11.553  0.1463  0.2465  0.0524
14723TIP3    H165660   4.180   5.366  11.525 -2.3198  1.1841  0.6311
14723TIP3    H265661   4.252   5.430  11.642 -1.7090  0.2759  0.7607
14724TIP3   OH265662   4.253   5.784  17.172  0.0024  0.8500 -0.0369
14724TIP3    H165663   4.308   5.751  17.242 -0.3307 -0.5195 -0.4057
14724TIP3    H265664   4.183   5.720  17.164 -0.0803  1.0949 -1.4703
14725TIP3   OH265665   5.579   5.798  12.687 -0.2290  0.6432 -0.1296
14725TIP3    H165666   5.487   5.771  12.685  0.6444 -2.8794  1.1119
14725TIP3    H265667   5.591   5.837  12.774 -0.1636 -0.6069  0.4362
14726TIP3   OH265668   2.634   1.538   4.809 -0.5813 -0.3158 -0.2414
14726TIP3    H165669   2.657   1.553   4.718 -1.0926  0.2400 -0.2848
14726TIP3    H265670   2.605   1.623   4.841 -4.5607 -1.2820 -0.7626
14727TIP3   OH265671   4.663   3.416   3.217 -0.2307  0.2979 -0.1073
14727TIP3    H165672   4.639   3.468   3.294  1.5039 -0.0962  0.7713
14727TIP3    H265673   4.669   3.479   3.146  0.2267  1.0560  0.5805
14728TIP3   OH265674   0.439   6.310   1.749  0.0684  0.4293 -0.3277
14728TIP3    H165675   0.379   6.348   1.684  0.0792  2.3852  0.7385
14728TIP3    H265676   0.382   6.270   1.814  0.0300 -0.2507 -0.7607
14729TIP3   OH265677   1.255   0.929  15.056 -0.0395  0.1114  0.1321
14729TIP3    H165678   1.172   0.967  15.084  0.5232  0.7996  0.9272
14729TIP3    H265679   1.318   1.000  15.067  0.7368 -0.5497 -0.0027
14730TIP3   OH265680   6.280   1.708  10.861 -0.2575  0.2171  0.2812
14730TIP3    H165681   6.357   1.750  10.901 -0.8323  0.4766  1.1315
14730TIP3    H265682   6.294   1.719  10.767 -0.6698  2.8937  0.4621
14731TIP3   OH265683   4.056   0.082  14.502 -0.1172  0.2312 -0.0054
14731TIP3    H165684   4.120   0.137  14.456 -0.2646 -0.9067 -1.6565
14731TIP3    H265685   4.064   0.108  14.594  1.0133  1.7876 -0.4969
14732TIP3   OH265686   6.632   2.221   2.950  0.1356 -0.5234 -0.2112
14732TIP3    H165687   6.583   2.248   2.873  0.0396 -0.3929 -0.1046
14732TIP3    H265688   6.626   2.125   2.950 -0.6011 -0.4862  0.1087
14733TIP3   OH265689   4.817   1.829   4.099  0.1833  0.3760 -0.2296
14733TIP3    H165690   4.786   1.767   4.166  0.8095 -0.7099 -0.9130
14733TIP3    H265691   4.874   1.888   4.147  0.5693 -0.3427  0.2266
14734TIP3   OH265692   5.189   6.204   1.442 -0.0384  0.2118  0.4720
14734TIP3    H165693   5.110   6.150   1.446  0.1701 -0.0332  2.4707
14734TIP3    H265694   5.171   6.277   1.502  1.5028 -0.2307  1.5180
14735TIP3   OH265695   2.600   1.626   3.685  0.5986 -0.0247  0.7141
14735TIP3    H165696   2.550   1.544   3.690  0.0932  0.3148  1.5233
14735TIP3    H265697   2.675   1.612   3.743  1.3461 -0.4457 -0.3148
14736TIP3   OH265698   4.401   1.114  12.464 -0.4002 -0.2078 -0.1725
14736TIP3    H165699   4.471   1.143  12.522  0.3147 -0.8232 -0.7032
14736TIP3    H265700   4.327   1.173  12.483  0.4787  0.8913 -0.0915
14737TIP3   OH265701   2.026   5.095  15.766  0.0783  0.2264 -0.2590
14737TIP3    H165702   1.952   5.048  15.803 -1.5243  2.2474 -0.7035
14737TIP3    H265703   2.089   5.027  15.744 -2.6855 -1.9198 -2.3106
14738TIP3   OH265704   0.101   5.482  14.138 -0.0746  0.0715  0.4867
14738TIP3    H165705   0.034   5.422  14.105  0.2261  0.1249 -0.2395
14738TIP3    H265706   0.054   5.564  14.155 -0.2203  0.0773  0.0822
14739TIP3   OH265707   3.517   1.465   1.504  0.0135  0.1258 -0.2475
14739TIP3    H165708   3.530   1.444   1.411  2.4435 -0.8237  0.2112
14739TIP3    H265709   3.423   1.453   1.519 -0.0932 -2.1174 -2.0765
14740TIP3   OH265710   0.113   3.840  15.283  0.3607 -0.3727  0.3707
14740TIP3    H165711   0.072   3.926  15.285 -0.0717 -0.5813  1.4151
14740TIP3    H265712   0.111   3.811  15.374  3.8862  0.0732  0.7204
14741TIP3   OH265713   4.946   4.686   4.770 -0.0792  0.4980 -0.0841
14741TIP3    H165714   4.921   4.665   4.861 -1.4101 -0.7853 -0.7035
14741TIP3    H265715   5.015   4.751   4.779  0.3623 -0.1675  1.8777
14742TIP3   OH265716   1.079   6.385  12.594  0.2834  0.3623  0.3914
14742TIP3    H165717   1.043   6.413  12.509  0.3953  2.0929  0.8690
14742TIP3    H265718   1.030   6.306  12.616 -1.1491  0.9897 -0.3723
14743TIP3   OH265719   3.590   0.852  17.068  0.2181 -0.2357  0.0566
14743TIP3    H165720   3.658   0.883  17.008 -0.0808 -0.1474 -0.2350
14743TIP3    H265721   3.622   0.877  17.155  0.5832 -0.2385 -0.0750
14744TIP3   OH265722   1.686   1.538  11.147  0.0735  0.5253 -0.5785
14744TIP3    H165723   1.677   1.495  11.062  0.3588 -2.1183  0.6335
14744TIP3    H265724   1.779   1.556  11.155 -0.1225  1.9907 -1.3369
14745TIP3   OH265725   3.902   1.566   2.780 -0.5172 -0.3735 -0.0296
14745TIP3    H165726   3.819   1.581   2.825 -0.1053  0.6888  0.3944
14745TIP3    H265727   3.878   1.554   2.688 -1.0013  1.8868 -0.2550
14746TIP3   OH265728   2.754   2.679   3.031 -0.7706  0.3938 -0.0082
14746TIP3    H165729   2.664   2.650   3.045 -1.2829  1.3119 -1.2457
14746TIP3    H265730   2.763   2.758   3.086 -0.5500  0.0277  0.4930
14747TIP3   OH265731   4.005   6.724  16.638  0.1528  0.1342  0.1131
14747TIP3    H165732   3.987   6.749  16.548  1.3741 -0.1844 -0.2328
14747TIP3    H265733   4.021   6.807  16.684  0.6892  0.2211 -0.2283
14748TIP3   OH265734   6.294   1.236  13.984  0.2619 -0.1035 -0.2753
14748TIP3    H165735   6.253   1.287  14.054  0.5800  0.4449 -0.4831
14748TIP3    H265736   6.388   1.240  14.002  0.5247  1.5464 -1.6779
14749TIP3   OH265737   1.767   4.117   3.731 -0.3549  0.1287 -0.3092
14749TIP3    H165738   1.764   4.115   3.635 -1.7660 -2.0319 -0.3099
14749TIP3    H265739   1.786   4.026   3.756 -3.7684 -0.2886  1.4172
14750TIP3   OH265740   1.331   6.212  10.759  0.1676  0.2816  0.1839
14750TIP3    H165741   1.405   6.235  10.703 -0.4517  0.4663 -0.5701
14750TIP3    H265742   1.292   6.135  10.717 -0.4571  0.5787  0.2051
14751TIP3   OH265743   5.593   5.536  16.777  0.0160 -0.2332 -0.5820
14751TIP3    H165744   5.630   5.622  16.756 -0.1714 -0.0870 -0.3137
14751TIP3    H265745   5.528   5.521  16.708 -0.1886 -0.0091 -0.4402
14752TIP3   OH265746   3.195   4.986  12.705 -0.3949  0.4452 -0.0111
14752TIP3    H165747   3.125   4.923  12.690  0.3326 -0.3694 -0.0864
14752TIP3    H265748   3.270   4.951  12.658 -0.6467  2.7553 -2.3571
14753TIP3   OH265749   2.100   3.041   0.245 -0.1913  0.2072  0.1960
14753TIP3    H165750   2.155   2.978   0.291 -1.6962 -0.7953  0.7349
14753TIP3    H265751   2.156   3.077   0.177  1.0968 -0.7850  0.6872
14754TIP3   OH265752   3.363   5.513   3.025  0.4546  0.1352  0.2118
14754TIP3    H165753   3.435   5.533   3.085 -0.9780  2.0192  1.4036
14754TIP3    H265754   3.353   5.593   2.973 -0.6038 -0.2037 -0.1207
14755TIP3   OH265755   4.016   2.515   1.299  0.4617 -0.2442  0.0510
14755TIP3    H165756   4.065   2.452   1.353 -1.3677 -2.0005 -0.1989
14755TIP3    H265757   3.926   2.509   1.331  0.1804  2.2238 -0.0879
14756TIP3   OH265758   1.926   0.090   0.418  0.6926 -0.0412  0.3677
14756TIP3    H165759   1.836   0.060   0.406  0.9034 -0.3474 -0.5481
14756TIP3    H265760   1.919   0.185   0.430  0.2841  0.0292 -0.3623
14757TIP3   OH265761   2.223   6.556  15.121 -0.2553  0.1290 -0.9671
14757TIP3    H165762   2.257   6.599  15.042  2.6168 -0.2963 -0.0482
14757TIP3    H265763   2.265   6.470  15.122  0.8034  0.5830  1.6265
14758TIP3   OH265764   1.636   3.044   1.851 -0.1103  0.1768 -0.2863
14758TIP3    H165765   1.601   3.007   1.932 -1.8803 -2.3481 -2.0745
14758TIP3    H265766   1.705   2.983   1.825 -0.6213  0.0886 -1.4775
14759TIP3   OH265767   5.789   6.215  13.429 -0.0553  0.0117  0.7892
14759TIP3    H165768   5.857   6.148  13.435 -0.2985 -0.2532  0.5763
14759TIP3    H265769   5.711   6.169  13.397  0.3712  0.7795 -1.6255
14760TIP3   OH265770   3.759   6.632  13.409  0.1705  0.3908 -0.2442
14760TIP3    H165771   3.841   6.597  13.375 -1.1648 -2.9677 -0.3577
14760TIP3    H265772   3.763   6.617  13.503  0.4577  2.0990  0.0519
14761TIP3   OH265773   2.537   2.309  16.012  0.5417 -0.4014 -0.4379
14761TIP3    H165774   2.626   2.330  15.985 -0.2660  0.2559 -2.8783
14761TIP3    H265775   2.542   2.220  16.046  2.4505  0.3799  1.5358
14762TIP3   OH265776   6.814   2.843   1.100 -0.2906 -0.1604  0.1382
14762TIP3    H165777   6.889   2.868   1.045 -0.9764  0.6258 -0.4665
14762TIP3    H265778   6.752   2.916   1.090 -2.0875 -1.7581 -1.1145
14763TIP3   OH265779   4.868   5.744   4.757 -0.1285  0.1682 -0.1187
14763TIP3    H165780   4.937   5.689   4.794  1.1659  1.5490 -0.3766
14763TIP3    H265781   4.795   5.737   4.818  0.7086 -0.3331  0.8385
14764TIP3   OH265782   2.237   2.639  14.263 -0.3047 -0.0722 -0.1961
14764TIP3    H165783   2.154   2.678  14.238  1.1733  2.1469 -2.0859
14764TIP3    H265784   2.249   2.565  14.204 -0.0326  0.8903 -1.3883
14765TIP3   OH265785   4.676   0.049   3.488  0.3235 -0.1141 -0.4281
14765TIP3    H165786   4.626   0.127   3.514  2.5033  0.6803  1.7793
14765TIP3    H265787   4.743   0.082   3.428  0.0746 -0.6447 -1.0062
14766TIP3   OH265788   0.364   0.437  13.575 -0.1164  0.3477 -0.7832
14766TIP3    H165789   0.378   0.343  13.562  0.3081  0.1873  0.6646
14766TIP3    H265790   0.427   0.479  13.517 -0.7199 -0.2389 -1.9003
14767TIP3   OH265791   2.093   4.555  16.407 -0.4804 -0.2275 -0.5780
14767TIP3    H165792   2.109   4.483  16.467  1.0978  1.7721  1.6165
14767TIP3    H265793   2.060   4.626  16.462 -0.7647  1.1583 -2.3997
14768TIP3   OH265794   6.683   0.123   6.598 -0.5246  0.4277  0.0098
14768TIP3    H165795   6.758   0.091   6.547 -0.3860 -1.2640  1.1769
14768TIP3    H265796   6.714   0.203   6.640 -0.1006  0.9253 -1.2084
14769TIP3   OH265797   1.269   5.010   3.483 -0.3924  0.2925  0.3233
14769TIP3    H165798   1.208   4.999   3.556 -1.9653  0.0718 -0.9747
14769TIP3    H265799   1.261   4.929   3.433 -0.3438  0.9764 -0.8115
14770TIP3   OH265800   3.194   0.626   0.123  0.3265  0.5267  0.1472
14770TIP3    H165801   3.111   0.602   0.083  0.0176 -0.0315  1.0823
14770TIP3    H265802   3.253   0.644   0.050  0.4356 -2.5479 -0.6344
14771TIP3   OH265803   5.950   3.054  16.849 -0.0012  0.3413 -0.2288
14771TIP3    H165804   5.924   3.129  16.902 -0.3649  0.2863 -0.3257
14771TIP3    H265805   6.043   3.041  16.869 -0.6465 -1.1284  2.1923
14772TIP3   OH265806   4.008   0.917   3.237 -0.1731  0.1451  0.1602
14772TIP3    H165807   3.927   0.962   3.260  0.5007  0.9292  1.0955
14772TIP3    H265808   4.067   0.987   3.208 -0.2132 -0.5502 -1.7607
14773TIP3   OH265809   6.036   6.083   2.594 -0.3512 -0.5218  0.8080
14773TIP3    H165810   6.090   6.099   2.671 -1.1346 -2.2099  1.7647
14773TIP3    H265811   6.027   6.169   2.553  3.2079 -0.1958  0.4238
14774TIP3   OH265812   4.888   4.000  12.402  0.2553 -0.0651  0.5198
14774TIP3    H165813   4.922   4.033  12.319 -0.1854  1.8739  1.0660
14774TIP3    H265814   4.961   3.952  12.441  1.1988  0.9319  0.0316
14775TIP3   OH265815   1.584   1.276  10.694  0.0519 -0.7712  0.0050
14775TIP3    H165816   1.659   1.286  10.636  1.1871  0.5793  1.6047
14775TIP3    H265817   1.566   1.182  10.695  0.3386 -0.8758 -2.0514
14776TIP3   OH265818   3.683   2.340   0.592  0.2212 -0.2764 -0.4666
14776TIP3    H165819   3.726   2.258   0.616 -0.4889 -0.6551 -0.4765
14776TIP3    H265820   3.707   2.400   0.663  0.0627 -0.7309 -0.0166
14777TIP3   OH265821   2.344   4.841   2.078 -0.4550  0.0400 -0.4420
14777TIP3    H165822   2.397   4.921   2.083 -0.1424 -0.2160  0.7972
14777TIP3    H265823   2.405   4.773   2.050 -0.9339  0.3906 -2.4439
14778TIP3   OH265824   2.565   2.765   1.787  0.3032 -0.6416  0.4363
14778TIP3    H165825   2.607   2.738   1.706 -0.8776  0.2376 -0.5028
14778TIP3    H265826   2.612   2.718   1.855  1.7156 -0.9316 -0.6983
14779TIP3   OH265827   1.401   5.956  15.506 -0.4538  0.4447  0.2516
14779TIP3    H165828   1.455   5.933  15.430 -0.6308 -0.9333  0.5300
14779TIP3    H265829   1.414   5.884  15.568 -1.9779  0.4866  0.6544
14780TIP3   OH265830   1.321   5.181  11.677 -0.4975 -0.0084 -0.4701
14780TIP3    H165831   1.304   5.086  11.681 -1.8862  0.1204 -1.8417
14780TIP3    H265832   1.287   5.215  11.759  1.4289 -0.8543  0.7258
14781TIP3   OH265833   1.754   4.065  16.104  0.4939 -0.4150 -0.2492
14781TIP3    H165834   1.734   4.115  16.025  0.1253  0.4626  0.3815
14781TIP3    H265835   1.832   4.106  16.140 -0.9684  1.1298  1.3908
14782TIP3   OH265836   6.258   5.976   5.607  0.3137 -0.4582 -0.0303
14782TIP3    H165837   6.194   6.047   5.609  1.1690  0.3495 -0.3205
14782TIP3    H265838   6.206   5.896   5.613 -0.8375  0.1089 -1.7138
14783TIP3   OH265839   5.390   2.438  14.395 -0.3161  0.4901  0.4224
14783TIP3    H165840   5.394   2.533  14.407  3.6609  0.4283  0.9835
14783TIP3    H265841   5.429   2.423  14.309  2.0632 -0.6747  1.6208
14784TIP3   OH265842   6.500   3.864  13.301 -0.1911 -0.3189 -0.6853
14784TIP3    H165843   6.578   3.915  13.281 -0.3078 -0.5502 -1.7620
14784TIP3    H265844   6.513   3.835  13.392 -0.4796  2.2322  0.2458
14785TIP3   OH265845   5.884   6.300  17.034  0.2713 -0.1888  0.3727
14785TIP3    H165846   5.797   6.329  17.008  0.4540  1.4290  1.4562
14785TIP3    H265847   5.875   6.275  17.126  0.9366 -0.0785  0.4701
14786TIP3   OH265848   3.061   4.587   3.694 -0.2823  0.1171  0.6434
14786TIP3    H165849   3.028   4.661   3.644 -1.1257 -2.1775 -2.4940
14786TIP3    H265850   3.077   4.519   3.629  0.9356 -2.3317  3.2738
14787TIP3   OH265851   4.866   3.338   5.173 -0.1238  0.6474 -0.3070
14787TIP3    H165852   4.857   3.255   5.219  1.5320  1.5524  1.7853
14787TIP3    H265853   4.910   3.315   5.091 -1.2320 -0.7117 -0.5727
14788TIP3   OH265854   0.919   0.620   4.053  0.1559  0.1442 -0.1889
14788TIP3    H165855   0.985   0.561   4.016 -2.6058 -1.9180 -2.2407
14788TIP3    H265856   0.841   0.604   4.001 -2.1798  2.0420  2.4511
14789TIP3   OH265857   2.792   1.370   3.264 -0.1730  0.2013  0.2178
14789TIP3    H165858   2.847   1.437   3.226 -0.3949  0.5136  0.4433
14789TIP3    H265859   2.704   1.389   3.232 -0.2781  0.1668  0.4796
14790TIP3   OH265860   3.493   2.913  14.536 -0.0074 -0.6463 -0.2451
14790TIP3    H165861   3.449   2.933  14.618  0.8145 -0.8602  0.2536
14790TIP3    H265862   3.554   2.843  14.557  0.4296 -0.4986 -0.9693
14791TIP3   OH265863   3.886   5.804  15.447 -0.0744  0.3768 -0.2315
14791TIP3    H165864   3.889   5.725  15.394 -0.1098 -0.5808  1.1285
14791TIP3    H265865   3.797   5.837  15.436 -1.5193 -2.1667  2.3904
14792TIP3   OH265866   0.823   1.625  16.719  0.3641 -0.3323  0.0876
14792TIP3    H165867   0.869   1.700  16.680 -1.0201  1.8163  2.2871
14792TIP3    H265868   0.766   1.593  16.650 -0.2223  1.7519 -0.4658
14793TIP3   OH265869   1.860   2.408   2.631  0.1035  0.4769  0.5382
14793TIP3    H165870   1.919   2.385   2.703 -1.1441  0.2742  1.5240
14793TIP3    H265871   1.841   2.501   2.645 -0.5531  0.3093  0.7895
14794TIP3   OH265872   0.459   1.518   5.883 -0.9002  0.1078  0.0122
14794TIP3    H165873   0.375   1.540   5.841 -1.6014  0.2378  1.4282
14794TIP3    H265874   0.461   1.422   5.883 -1.1685  0.1011  0.2063
14795TIP3   OH265875   3.031   4.514   2.054 -0.3806  0.1043  0.1099
14795TIP3    H165876   3.029   4.563   2.135 -1.2407  1.0077 -0.4323
14795TIP3    H265877   3.022   4.580   1.985  0.9881 -0.5740 -0.7629
14796TIP3   OH265878   1.331   6.691   4.138  0.5139 -0.5621  0.3800
14796TIP3    H165879   1.304   6.599   4.133 -1.6715  0.0778 -0.8718
14796TIP3    H265880   1.317   6.715   4.229 -2.0752 -0.6627  0.0950
14797TIP3   OH265881   4.183   1.663  11.555  0.0071 -0.0264  0.0937
14797TIP3    H165882   4.137   1.647  11.473  0.7410 -0.7490 -0.1916
14797TIP3    H265883   4.119   1.640  11.623 -1.2591  2.3494 -0.2030
14798TIP3   OH265884   6.745   5.257  15.558 -0.3198  0.1625 -0.1187
14798TIP3    H165885   6.693   5.225  15.632  0.7452 -1.3944  0.0213
14798TIP3    H265886   6.681   5.290  15.496 -1.3979 -0.5789  0.5641
14799TIP3   OH265887   1.021   4.820  11.707 -0.1953  0.4687  0.1754
14799TIP3    H165888   0.946   4.779  11.751 -1.5239  1.0847 -1.4162
14799TIP3    H265889   1.006   4.914  11.718  0.5554  0.5940  0.1644
14800TIP3   OH265890   2.907   5.164   1.135  0.3511 -0.2335  0.3843
14800TIP3    H165891   2.961   5.230   1.093 -0.4369 -0.8417 -1.6814
14800TIP3    H265892   2.929   5.171   1.228  0.5748  2.6365  0.2030
14801TIP3   OH265893   0.629   0.216  16.605 -0.0696  0.0497  0.5823
14801TIP3    H165894   0.669   0.131  16.587 -1.1172 -0.3406 -0.0041
14801TIP3    H265895   0.635   0.264  16.523 -1.1278 -0.1593  0.3691
14802TIP3   OH265896   2.628   2.999   4.217 -0.2627  0.6544 -0.0691
14802TIP3    H165897   2.535   2.998   4.239 -0.1731  1.3291  0.3617
14802TIP3    H265898   2.665   2.926   4.266 -0.8542 -0.7209 -1.5993
14803TIP3   OH265899   3.320   4.250  14.092  0.5859  0.3874  0.3065
14803TIP3    H165900   3.344   4.334  14.131 -1.0426 -0.1805  2.6839
14803TIP3    H265901   3.262   4.273  14.019  0.0519  1.3474  1.0140
14804TIP3   OH265902   5.567   6.252  12.301  0.1012  0.7313  0.8728
14804TIP3    H165903   5.661   6.267  12.307 -0.0632  1.1913  3.2377
14804TIP3    H265904   5.532   6.333  12.262  0.8036 -0.2197 -1.9641
14805TIP3   OH265905   5.705   0.947  11.379  0.5466  0.3040  0.4968
14805TIP3    H165906   5.776   0.897  11.420  0.7313  0.1183 -0.0405
14805TIP3    H265907   5.669   0.887  11.314  1.3960  1.1797 -0.8381
14806TIP3   OH265908   5.804   0.231  14.681 -0.1649 -0.4111  0.3720
14806TIP3    H165909   5.874   0.220  14.746  0.6764  1.3465 -0.1847
14806TIP3    H265910   5.796   0.326  14.669 -1.9596 -0.6082 -0.3402
14807TIP3   OH265911   6.600   3.688  11.430 -0.4331  0.2978 -0.5070
14807TIP3    H165912   6.535   3.629  11.391 -0.0297  0.5037 -1.5129
14807TIP3    H265913   6.641   3.732  11.356  0.2912  0.7809  0.1583
14808TIP3   OH265914   6.274   5.069  11.445 -0.3181  0.2972  0.3830
14808TIP3    H165915   6.340   5.002  11.429 -0.0907  0.7413 -0.6655
14808TIP3    H265916   6.323   5.145  11.477 -0.8033 -0.6828  3.8634
14809TIP3   OH265917   6.795   4.876  14.549 -0.5504  0.3944  0.1881
14809TIP3    H165918   6.844   4.839  14.623 -1.3048 -1.9672 -0.4171
14809TIP3    H265919   6.860   4.929  14.502  1.4080 -2.3405 -0.4079
14810TIP3   OH265920   0.189   6.704   3.754 -0.0192 -0.3653  0.2764
14810TIP3    H165921   0.135   6.776   3.723  0.7090 -0.3031 -0.8978
14810TIP3    H265922   0.160   6.689   3.844 -1.0034  0.5885  0.1323
14811TIP3   OH265923   3.206   1.866   0.420  0.3324  0.1334 -0.1650
14811TIP3    H165924   3.119   1.825   0.422 -0.4389  1.6697 -0.6175
14811TIP3    H265925   3.249   1.826   0.344 -0.6298  0.5982 -0.9673
14812TIP3   OH265926   2.704   1.512   1.129 -0.4147 -0.5209  0.3033
14812TIP3    H165927   2.625   1.461   1.110 -1.1430  1.1453 -1.3823
14812TIP3    H265928   2.767   1.485   1.062  0.9434 -2.6285  2.2554
14813TIP3   OH265929   4.306   4.645   1.469 -0.2025 -0.4310  0.0417
14813TIP3    H165930   4.322   4.704   1.542  0.8787  0.8592 -1.1865
14813TIP3    H265931   4.379   4.659   1.409 -1.0551 -1.4254 -1.3103
14814TIP3   OH265932   2.722   5.591  14.398 -0.1934 -0.0072 -0.1196
14814TIP3    H165933   2.800   5.548  14.434 -1.6691 -0.1614  3.1982
14814TIP3    H265934   2.754   5.634  14.318  2.9567 -1.1748  0.3486
14815TIP3   OH265935   3.390   2.604  11.806  0.8122  0.2011 -0.6414
14815TIP3    H165936   3.340   2.543  11.860 -0.5078  2.1915  0.5109
14815TIP3    H265937   3.454   2.641  11.867  0.8351  0.7989 -1.0292
14816TIP3   OH265938   4.288   0.558  17.036  0.0524  0.0946  0.3998
14816TIP3    H165939   4.198   0.572  17.005  0.6329  1.4975 -0.7106
14816TIP3    H265940   4.312   0.472  17.003  0.3727  1.2088 -2.5154
14817TIP3   OH265941   4.258   2.860   2.688 -0.4950  0.1514 -0.7372
14817TIP3    H165942   4.311   2.829   2.615 -1.2150 -0.1088 -1.1545
14817TIP3    H265943   4.218   2.781   2.724  1.7125 -0.1066  1.5039
14818TIP3   OH265944   6.518   0.677   0.619  0.3194  0.1584  0.4071
14818TIP3    H165945   6.539   0.672   0.712  0.0935  1.3590  0.5386
14818TIP3    H265946   6.437   0.627   0.610 -0.3009  1.0043  1.0801
14819TIP3   OH265947   0.027   2.339  10.568 -0.4186  0.1755 -0.0589
14819TIP3    H165948   0.044   2.431  10.546  0.2806  0.1831  0.4750
14819TIP3    H265949  -0.002   2.300  10.486 -2.3933  1.2468  0.0839
14820TIP3   OH265950   2.034   2.144   2.548  0.2339  0.0744 -0.2502
14820TIP3    H165951   2.044   2.191   2.632 -0.6994  0.7383 -0.4963
14820TIP3    H265952   2.048   2.212   2.482 -0.8273 -0.0497 -0.6130
14821TIP3   OH265953   4.789   0.006  15.449 -0.0833 -0.3554  0.0457
14821TIP3    H165954   4.733  -0.041  15.511 -2.2889  0.8974 -0.8961
14821TIP3    H265955   4.788   0.096  15.480  0.4157 -0.0832 -0.7211
14822TIP3   OH265956   2.533   6.423   5.379 -0.3265  0.4644 -0.3608
14822TIP3    H165957   2.534   6.424   5.474 -0.5183 -1.0108 -0.3228
14822TIP3    H265958   2.623   6.402   5.355 -0.5142 -0.2231 -0.4719
14823TIP3   OH265959   5.136   0.413   4.529  0.2722  0.0821 -0.0550
14823TIP3    H165960   5.157   0.475   4.599  1.8050 -0.0819 -0.3516
14823TIP3    H265961   5.041   0.400   4.537 -0.3313  3.2562 -0.6332
14824TIP3   OH265962   5.926   4.501   6.553  0.0346 -0.0604  0.2197
14824TIP3    H165963   5.848   4.527   6.602  0.3812  2.5756 -0.4442
14824TIP3    H265964   5.904   4.415   6.517 -2.5217  0.5186  0.1746
14825TIP3   OH265965   6.166   5.873  14.924  0.5651  0.0005  0.2690
14825TIP3    H165966   6.123   5.946  14.880  1.2331 -0.1015 -0.5827
14825TIP3    H265967   6.164   5.802  14.860 -1.2408 -1.1879  1.5419
14826TIP3   OH265968   0.348   4.521   3.560 -0.0028 -0.9661  0.4603
14826TIP3    H165969   0.368   4.610   3.531  1.0562 -1.8483 -1.6706
14826TIP3    H265970   0.257   4.526   3.591 -0.3811  0.5807 -0.7938
14827TIP3   OH265971   5.547   1.221  16.076  0.0540 -0.1820  0.2754
14827TIP3    H165972   5.581   1.267  15.999 -0.3426  0.1433  0.2959
14827TIP3    H265973   5.618   1.226  16.140 -0.0606  0.5753  0.3479
14828TIP3   OH265974   3.993   2.164  12.402  0.1135  0.3565  0.4787
14828TIP3    H165975   4.043   2.237  12.439  0.4176  0.7709 -0.7009
14828TIP3    H265976   3.904   2.178  12.434  0.3543  0.7265  1.0038
14829TIP3   OH265977   2.048   4.282   1.517  0.2205  0.0384 -0.2396
14829TIP3    H165978   1.976   4.295   1.455 -0.0862  0.5076  0.1957
14829TIP3    H265979   2.074   4.191   1.506  1.4255  0.5816 -2.3508
14830TIP3   OH265980   0.666   4.612  16.319 -0.3662  0.4774  0.0106
14830TIP3    H165981   0.757   4.630  16.292 -0.8435  3.5388  0.0966
14830TIP3    H265982   0.614   4.676  16.270 -2.3740 -0.4081  0.8885
14831TIP3   OH265983   1.978   6.637   0.446  0.0254  0.0585 -0.7181
14831TIP3    H165984   2.020   6.581   0.511  1.0191  1.0858 -0.4345
14831TIP3    H265985   1.965   6.720   0.491 -1.4079  0.0725 -1.1290
14832TIP3   OH265986   3.219   4.115  15.539  0.3229 -0.7097 -0.3676
14832TIP3    H165987   3.134   4.131  15.499  0.5102  1.5568  0.0093
14832TIP3    H265988   3.205   4.131  15.632  1.0678 -0.6309 -0.2621
14833TIP3   OH265989   2.049   5.472   1.149  0.7261  0.0978 -0.5086
14833TIP3    H165990   2.074   5.405   1.213  0.3689 -0.8299 -1.3236
14833TIP3    H265991   2.036   5.424   1.067  0.4803  1.1675 -1.1138
14834TIP3   OH265992   4.085   5.472  12.791  0.2574  1.3154  0.1346
14834TIP3    H165993   4.032   5.551  12.780  1.4321  1.9785 -1.0177
14834TIP3    H265994   4.049   5.409  12.729 -1.2524  0.5892  1.6783
14835TIP3   OH265995   2.923   4.121   1.661 -0.4689 -0.1653 -0.9801
14835TIP3    H165996   2.990   4.055   1.643  0.5545  0.5428  0.0967
14835TIP3    H265997   2.874   4.129   1.579  0.1905 -1.3432 -1.5126
14836TIP3   OH265998   6.359   0.323  11.112  0.3438  0.1581 -0.6735
14836TIP3    H165999   6.422   0.392  11.089  1.2354 -0.5815 -0.4774
14836TIP3    H266000   6.288   0.335  11.049  0.6912  0.9865 -0.9247
14837TIP3   OH266001   0.490   3.306  14.601  0.2653 -0.5808 -0.5124
14837TIP3    H166002   0.506   3.224  14.648 -1.0189 -0.0276  1.0080
14837TIP3    H266003   0.426   3.283  14.533 -0.3534 -0.8126  0.1244
14838TIP3   OH266004   2.190   1.907  11.261  0.3280  0.2700 -0.0506
14838TIP3    H166005   2.154   1.832  11.215  0.9241 -0.7953  1.1582
14838TIP3    H266006   2.138   1.913  11.341  1.9946 -0.5496  1.1429
14839TIP3   OH266007   0.094   6.411   3.956  0.1289  0.4259 -0.8948
14839TIP3    H166008   0.073   6.502   3.977  0.6747  0.8032 -1.8943
14839TIP3    H266009   0.190   6.410   3.951  0.0871 -0.0234 -1.6438
14840TIP3   OH266010   0.000   5.557   4.519  0.2929 -0.3937  0.3830
14840TIP3    H166011  -0.029   5.629   4.574 -2.6037  0.1134 -1.6053
14840TIP3    H266012  -0.004   5.480   4.576  0.3802  0.5280  1.6753
14841TIP3   OH266013   0.284   2.570  15.494  0.0458  0.0242  0.2740
14841TIP3    H166014   0.313   2.522  15.416  0.5454  0.4741  0.1753
14841TIP3    H266015   0.328   2.526  15.567  1.2896  0.9112  0.0953
14842TIP3   OH266016   5.797   0.070  11.588 -0.2522 -0.2741 -0.1471
14842TIP3    H166017   5.885   0.098  11.564 -0.2902 -0.5082 -0.5691
14842TIP3    H266018   5.773   0.127  11.662  0.4254 -0.5193  0.2690
14843TIP3   OH266019   3.781   4.958  15.534  0.2676  0.2435 -0.0928
14843TIP3    H166020   3.801   5.026  15.470 -1.1496  0.0810 -0.7526
14843TIP3    H266021   3.825   4.987  15.614 -1.7283  2.9454  0.1876
14844TIP3   OH266022   5.990   1.285   4.791  0.1051 -0.2492  0.5071
14844TIP3    H166023   6.005   1.191   4.787 -0.9199 -0.4036  0.1412
14844TIP3    H266024   5.993   1.314   4.700  0.8395  0.1504  0.6476
14845TIP3   OH266025   6.496   6.407   4.189  0.1997  0.3157  0.2845
14845TIP3    H166026   6.425   6.358   4.231 -0.4263  0.9440 -0.0262
14845TIP3    H266027   6.463   6.497   4.184  0.3210  0.2970 -1.3933
14846TIP3   OH266028   6.314   5.208   2.516  0.3635  0.2207 -0.4086
14846TIP3    H166029   6.294   5.185   2.425  0.4372  0.9340 -0.6176
14846TIP3    H266030   6.353   5.130   2.554 -0.5031 -0.3788 -0.7299
14847TIP3   OH266031   3.635   1.776  16.969 -0.1466 -0.0998  0.0622
14847TIP3    H166032   3.674   1.706  16.917 -0.7379 -1.8456  1.8855
14847TIP3    H266033   3.706   1.806  17.026  0.1463  0.9437 -0.8100
14848TIP3   OH266034   0.918   3.355  13.279 -0.1762  0.4993 -0.6089
14848TIP3    H166035   0.824   3.364  13.262  0.2040  3.1618 -1.8118
14848TIP3    H266036   0.925   3.356  13.375 -1.4634 -2.2436 -0.3859
14849TIP3   OH266037   4.321   6.587  12.966 -0.7221 -0.0920  0.1879
14849TIP3    H166038   4.232   6.572  12.998 -0.4511 -1.2887  0.4092
14849TIP3    H266039   4.367   6.624  13.042  0.1394 -3.6779  1.5934
14850TIP3   OH266040   3.259   2.384  13.990 -0.1167 -0.3480  0.0813
14850TIP3    H166041   3.166   2.391  14.013 -0.2050 -0.0580 -0.3486
14850TIP3    H266042   3.260   2.387  13.894  0.5306  2.3856  0.0849
14851TIP3   OH266043   2.186   4.187  13.695  0.4914  0.2179  0.0457
14851TIP3    H166044   2.141   4.120  13.748  2.5896 -2.8067 -1.6498
14851TIP3    H266045   2.263   4.210  13.746  1.2237 -0.8462 -0.5336
14852TIP3   OH266046   4.450   5.111   4.214 -0.1839 -0.3490 -0.3648
14852TIP3    H166047   4.356   5.128   4.206 -0.1993  0.3973  1.0806
14852TIP3    H266048   4.471   5.054   4.140 -2.3832 -3.0580  0.9355
14853TIP3   OH266049   1.777   5.154   1.948 -0.1372 -0.2353  0.1086
14853TIP3    H166050   1.745   5.244   1.947  0.3413 -0.0105  1.9866
14853TIP3    H266051   1.872   5.162   1.940 -0.0868 -0.5710  0.3572
14854TIP3   OH266052   6.350   2.013  15.255 -0.4821  0.1053 -0.2285
14854TIP3    H166053   6.425   1.954  15.261 -0.4886  0.1931  3.6606
14854TIP3    H266054   6.384   2.099  15.281 -1.3252  0.9202 -1.6568
14855TIP3   OH266055   1.509   5.552  16.521 -0.5419 -0.5123 -0.3624
14855TIP3    H166056   1.570   5.538  16.594  1.6312  0.0516 -1.9426
14855TIP3    H266057   1.461   5.470  16.514  0.7395 -1.3705  0.4067
14856TIP3   OH266058   3.387   1.118  16.375  0.1263  0.8089 -0.2786
14856TIP3    H166059   3.429   1.193  16.417 -0.7991  0.6622  0.9754
14856TIP3    H266060   3.338   1.155  16.302 -0.2144  1.4044  0.2456
14857TIP3   OH266061   1.594   4.759  16.094 -0.4113  0.0272 -0.1791
14857TIP3    H166062   1.509   4.717  16.102  0.3037 -1.2048  1.6365
14857TIP3    H266063   1.624   4.737  16.005 -1.4890 -0.4754 -0.4260
14858TIP3   OH266064   4.128   2.148  16.963 -0.3039  0.2030 -0.3205
14858TIP3    H166065   4.033   2.154  16.974 -0.1073  2.4125  0.6478
14858TIP3    H266066   4.163   2.217  17.020  1.7966  0.6712 -2.0708
14859TIP3   OH266067   1.011   6.145   4.618  0.1676 -0.7942  0.0952
14859TIP3    H166068   0.980   6.111   4.534  0.7502 -0.2824 -0.3299
14859TIP3    H266069   0.991   6.076   4.681 -1.9220 -0.4639 -0.1375
14860TIP3   OH266070   4.973   3.258  11.532  0.0334 -0.5174  0.5713
14860TIP3    H166071   5.025   3.250  11.452 -0.8883 -1.0222  0.0100
14860TIP3    H266072   5.038   3.262  11.602  0.8492 -0.3444 -0.1722
14861TIP3   OH266073   1.453   6.452  12.761  0.0537  0.4691  0.8445
14861TIP3    H166074   1.407   6.411  12.834 -1.6492  2.4906  0.9948
14861TIP3    H266075   1.536   6.404  12.754 -1.6644 -2.7636  1.1145
14862TIP3   OH266076   5.476   6.714  11.197 -0.1495 -0.0629 -0.0403
14862TIP3    H166077   5.527   6.697  11.276  1.0749 -1.7472 -1.1018
14862TIP3    H266078   5.385   6.697  11.222 -0.2141  2.4863  1.7636
14863TIP3   OH266079   6.004   4.984  11.447 -0.1449  0.1471  0.1030
14863TIP3    H166080   6.011   4.933  11.528 -0.2115  0.5018  0.3340
14863TIP3    H266081   6.083   5.038  11.445  1.7380 -2.4184 -1.8849
14864TIP3   OH266082   5.486   5.765  15.954  0.5243  0.1236  0.6250
14864TIP3    H166083   5.455   5.750  16.044 -0.4097 -0.8154  0.1740
14864TIP3    H266084   5.562   5.707  15.945  0.4461  0.0035  0.7278
14865TIP3   OH266085   2.080   5.206   1.212  0.1038  0.2234  0.0272
14865TIP3    H166086   2.133   5.161   1.147  0.4750 -0.7219  0.9548
14865TIP3    H266087   2.042   5.136   1.265  0.3397  0.9636  1.2227
14866TIP3   OH266088   4.761   0.625   0.505  0.2482  0.3570  0.2062
14866TIP3    H166089   4.844   0.672   0.510 -0.6291  1.8779  1.3204
14866TIP3    H266090   4.726   0.648   0.419  0.0959  1.2808  0.5110
14867TIP3   OH266091   1.468   1.409  16.907 -0.3216 -0.4586 -0.0483
14867TIP3    H166092   1.394   1.386  16.850  1.8417 -1.5584 -2.6805
14867TIP3    H266093   1.519   1.328  16.914  1.2348  0.5290  0.7035
14868TIP3   OH266094   0.732   4.827   1.082  0.5194 -0.3341 -0.1426
14868TIP3    H166095   0.813   4.811   1.132  0.0587  0.7332  1.0101
14868TIP3    H266096   0.681   4.746   1.093  0.3865 -0.0940  1.2508
14869TIP3   OH266097   1.657   3.038   5.639  0.8133  0.0989  0.3587
14869TIP3    H166098   1.659   2.944   5.617 -0.2258  0.0172  0.5734
14869TIP3    H266099   1.599   3.043   5.715  1.1746  0.8816  0.5886
14870TIP3   OH266100   3.164   3.725  13.604 -0.7546 -0.3716  0.6168
14870TIP3    H166101   3.238   3.682  13.561 -3.0589 -2.5791 -1.5241
14870TIP3    H266102   3.156   3.680  13.688  0.0427 -0.3812  0.7009
14871TIP3   OH266103   4.138   3.005  11.616 -0.3991 -0.1169 -0.3340
14871TIP3    H166104   4.061   2.948  11.612 -0.4343 -0.0167 -1.7111
14871TIP3    H266105   4.189   2.982  11.538  1.5038 -0.8938  1.0897
14872TIP3   OH266106   5.094   4.554   0.843 -0.4119 -0.4070 -0.5562
14872TIP3    H166107   5.122   4.541   0.934  0.0210  0.7398 -0.5229
14872TIP3    H266108   5.035   4.629   0.847  0.6783  0.5303 -1.4119
14873TIP3   OH266109   0.681   3.740   6.240  0.2068 -0.5396 -0.2984
14873TIP3    H166110   0.684   3.823   6.192  0.7582 -1.0969 -1.2504
14873TIP3    H266111   0.589   3.716   6.242  0.0798 -0.0539 -0.2754
14874TIP3   OH266112   1.246   3.103  14.218 -0.1022 -0.6328 -0.1173
14874TIP3    H166113   1.242   3.018  14.263  0.9032  0.0221  1.2785
14874TIP3    H266114   1.183   3.158  14.264  0.9012  0.0326  0.4974
14875TIP3   OH266115   4.185   6.120  17.194 -0.5493  0.3578 -0.2544
14875TIP3    H166116   4.140   6.036  17.198  0.4214 -0.1443  2.4403
14875TIP3    H266117   4.137   6.176  17.255  0.9981  0.5218  0.8853
14876TIP3   OH266118   4.202   2.814   1.273 -0.3346  0.3436 -0.4330
14876TIP3    H166119   4.157   2.895   1.248 -0.6736  0.0913 -0.6625
14876TIP3    H266120   4.144   2.774   1.338 -0.4099  0.0471 -0.6817
14877TIP3   OH266121   6.222   5.633  15.220 -0.4467  0.4002  0.2121
14877TIP3    H166122   6.188   5.684  15.293  1.2370  2.5594 -0.3904
14877TIP3    H266123   6.196   5.683  15.142  3.3303  1.9311 -0.3076
14878TIP3   OH266124   5.669   1.890  13.027 -0.2660  0.3239 -0.2314
14878TIP3    H166125   5.600   1.825  13.019  0.7887 -0.8705  0.0509
14878TIP3    H266126   5.625   1.968  13.061 -1.5663 -0.1952 -0.6552
14879TIP3   OH266127   2.033   5.377   2.059 -0.1902 -0.3625  0.4884
14879TIP3    H166128   1.938   5.371   2.071 -0.2203 -0.2256  0.3196
14879TIP3    H266129   2.045   5.450   1.999 -0.0445 -1.1891 -0.5004
14880TIP3   OH266130   0.492   5.557  15.012  0.2544  0.2447  0.1546
14880TIP3    H166131   0.559   5.601  15.064 -2.0539  2.5474  1.3899
14880TIP3    H266132   0.471   5.618  14.942  0.3490 -1.0454 -1.0460
14881TIP3   OH266133   2.189   5.836  16.920 -0.0801 -0.4195 -0.1665
14881TIP3    H166134   2.160   5.848  16.830 -0.2841  1.8652  0.1500
14881TIP3    H266135   2.110   5.815  16.968 -0.5049  1.2944 -0.0638
14882TIP3   OH266136   2.789   1.169  11.303 -0.3565  0.2676 -0.3708
14882TIP3    H166137   2.800   1.098  11.240 -1.6907 -0.2637 -0.0400
14882TIP3    H266138   2.694   1.183  11.307 -0.1647  1.6006  0.0896
14883TIP3   OH266139   4.494   2.477  10.307 -0.6192  0.3397 -0.0385
14883TIP3    H166140   4.463   2.563  10.335  2.2430  0.3120  4.0041
14883TIP3    H266141   4.433   2.415  10.347 -0.1196  0.4488  0.9179
14884TIP3   OH266142   0.223   1.404   2.277 -0.6584  0.4169 -0.2607
14884TIP3    H166143   0.238   1.467   2.348 -0.0429  0.9195 -0.8199
14884TIP3    H266144   0.267   1.442   2.201 -0.5916 -0.5092 -0.7102
14885TIP3   OH266145   5.805   6.332   2.099 -0.0391 -0.3170  0.0250
14885TIP3    H166146   5.837   6.271   2.032  1.8012  0.0317  0.5351
14885TIP3    H266147   5.842   6.416   2.074 -0.5643  0.1119  0.6729
14886TIP3   OH266148   3.043   5.142  12.862  0.4616  0.2869 -0.3142
14886TIP3    H166149   3.095   5.088  12.803 -0.0628  1.2359 -1.7054
14886TIP3    H266150   3.011   5.081  12.929  1.2495 -0.7837 -0.8935
14887TIP3   OH266151   2.501   0.067   0.413  0.6062  0.2160 -0.1375
14887TIP3    H166152   2.466   0.152   0.385 -0.6734 -0.2060  0.1508
14887TIP3    H266153   2.590   0.066   0.378  0.1299  1.0412 -1.4387
14888TIP3   OH266154   1.722   0.448   4.966 -0.2949 -0.4665  0.0423
14888TIP3    H166155   1.644   0.467   5.018 -0.8725  1.1207 -1.3187
14888TIP3    H266156   1.774   0.528   4.972  1.3668 -1.5658  1.0686
14889TIP3   OH266157   4.302   3.039   3.848 -0.7341  0.2572 -0.0889
14889TIP3    H166158   4.397   3.034   3.852 -0.7834  0.1594  1.6510
14889TIP3    H266159   4.280   3.000   3.763  0.7166 -0.6109 -0.1082
14890TIP3   OH266160   0.688   5.300  12.366 -0.4150 -0.6566 -0.7100
14890TIP3    H166161   0.637   5.236  12.415 -0.4317 -0.2107 -0.1261
14890TIP3    H266162   0.626   5.336  12.302 -0.7980 -0.2416 -0.1200
14891TIP3   OH266163   2.486   5.837  15.106  0.4446 -0.2869  0.2783
14891TIP3    H166164   2.440   5.770  15.054  0.9451 -0.4558  0.0514
14891TIP3    H266165   2.489   5.800  15.194  0.3287 -0.3678  0.2494
14892TIP3   OH266166   3.993   5.807   4.308 -0.5885  0.3811 -0.5348
14892TIP3    H166167   3.935   5.840   4.239 -0.0200  0.4202 -0.9932
14892TIP3    H266168   4.075   5.785   4.264 -0.3725 -0.0371  0.0474
14893TIP3   OH266169   4.448   1.461  10.821  0.2595  0.1836 -0.1034
14893TIP3    H166170   4.513   1.527  10.847  2.1637 -0.6768 -2.2572
14893TIP3    H266171   4.386   1.509  10.766  0.7431  0.5013 -0.3843
14894TIP3   OH266172   6.278   6.095   0.395 -0.3626 -0.4697 -0.1322
14894TIP3    H166173   6.304   6.134   0.311 -0.8130  0.5457  0.1758
14894TIP3    H266174   6.360   6.087   0.443 -0.1349 -0.8154 -0.5676
14895TIP3   OH266175   6.140   0.426   6.505  0.3330  0.8833 -0.4970
14895TIP3    H166176   6.234   0.406   6.509 -0.1013 -1.4404  0.1834
14895TIP3    H266177   6.127   0.492   6.573  1.3792  0.7652 -0.1531
14896TIP3   OH266178   1.974   6.698  11.160 -1.0130 -0.0082 -0.2296
14896TIP3    H166179   1.887   6.658  11.163 -1.5930  1.2542  0.6548
14896TIP3    H266180   2.020   6.651  11.090 -2.1492 -1.1888 -0.2167
14897TIP3   OH266181   3.786   0.311  11.876 -0.3300 -0.0328  0.3557
14897TIP3    H166182   3.848   0.268  11.935 -0.4415 -0.6533  0.0328
14897TIP3    H266183   3.838   0.378  11.831  0.3901 -1.2588 -0.7019
14898TIP3   OH266184   0.570   1.615   1.832  0.1972 -0.2901 -0.3114
14898TIP3    H166185   0.569   1.521   1.813  3.1437 -0.4098 -0.3551
14898TIP3    H266186   0.480   1.644   1.817 -1.4632 -3.5276  2.0967
14899TIP3   OH266187   0.934   2.538   4.453  0.4662 -0.1199  0.5234
14899TIP3    H166188   0.871   2.468   4.435  0.5130 -0.0114 -0.0674
14899TIP3    H266189   0.942   2.585   4.371  1.0110  0.1229  0.7126
14900TIP3   OH266190   1.461   2.492   5.409 -0.0342 -0.0901  0.0341
14900TIP3    H166191   1.522   2.535   5.349  0.1930  1.4886  1.3304
14900TIP3    H266192   1.517   2.452   5.475 -0.1990 -2.9966 -1.4016
14901TIP3   OH266193   3.429   2.900   3.426  0.3448 -0.3546  0.3352
14901TIP3    H166194   3.498   2.903   3.493 -1.2519  0.0146  2.0451
14901TIP3    H266195   3.412   2.806   3.414  0.0694 -0.4043  1.0732
14902TIP3   OH266196   0.363   3.843   0.983 -0.2951  0.0927  0.2883
14902TIP3    H166197   0.440   3.824   1.038  1.0968  1.8035 -0.9519
14902TIP3    H266198   0.363   3.938   0.975 -1.1179 -0.0419 -1.7460
14903TIP3   OH266199   1.262   2.403   3.572 -0.2436 -0.2117 -0.1443
14903TIP3    H166200   1.352   2.436   3.570 -0.4979  0.4513 -0.9655
14903TIP3    H266201   1.243   2.393   3.665  0.0740  1.3483  0.1230
14904TIP3   OH266202   6.659   5.940   5.038 -0.5523 -0.3422  0.4011
14904TIP3    H166203   6.579   5.913   4.993 -0.0952  1.0079 -1.3192
14904TIP3    H266204   6.633   6.018   5.087 -1.0001 -1.6962  2.4282
14905TIP3   OH266205   4.940   3.198   2.141 -0.3883 -0.1739  0.1078
14905TIP3    H166206   4.870   3.262   2.130 -2.2526 -2.3333 -1.4268
14905TIP3    H266207   4.900   3.127   2.190  1.7760 -0.0647  2.2424
14906TIP3   OH266208   2.608   1.704   3.398 -0.5669  0.0423 -0.3632
14906TIP3    H166209   2.609   1.690   3.493 -0.8957 -0.3573 -0.4161
14906TIP3    H266210   2.581   1.795   3.388 -0.8148  0.0043 -0.0788
14907TIP3   OH266211   6.200   6.785  16.104  0.3711 -0.4121 -0.3155
14907TIP3    H166212   6.123   6.833  16.135  0.0286 -0.6337 -0.7965
14907TIP3    H266213   6.164   6.719  16.044  0.6974 -2.0272  1.1862
14908TIP3   OH266214   5.109   5.644   2.451 -0.0037 -0.2653  0.0772
14908TIP3    H166215   5.153   5.730   2.453  1.0529 -0.7740 -0.4408
14908TIP3    H266216   5.163   5.591   2.392  0.0405 -1.6466  1.3065
14909TIP3   OH266217   6.785   5.511   0.667  0.0691 -0.5409  0.2646
14909TIP3    H166218   6.802   5.501   0.574  0.5113 -0.9165  0.3828
14909TIP3    H266219   6.843   5.582   0.695 -0.7252  0.2020  0.0780
14910TIP3   OH266220   3.359   1.339  16.619  0.2885  0.0573 -0.2189
14910TIP3    H166221   3.366   1.401  16.692 -0.0943  0.7241 -0.7451
14910TIP3    H266222   3.409   1.379  16.548  0.0350 -0.2336 -0.5656
14911TIP3   OH266223   2.149   4.566   3.448  0.1256  0.1782  0.0840
14911TIP3    H166224   2.135   4.640   3.507 -0.6756  0.7299 -0.7728
14911TIP3    H266225   2.195   4.603   3.373 -0.7891 -0.0533 -0.6152
14912TIP3   OH266226   1.501   1.077  16.111 -0.2466 -0.3201 -0.0662
14912TIP3    H166227   1.447   1.026  16.051 -2.1128  0.4841  0.8404
14912TIP3    H266228   1.476   1.168  16.094  1.0744  0.1028  0.1651
14913TIP3   OH266229   4.594   6.505   4.724 -0.9824 -0.4134  0.5827
14913TIP3    H166230   4.632   6.574   4.779  3.4180 -1.0422 -1.2217
14913TIP3    H266231   4.602   6.426   4.776  0.9948 -0.6333  0.0273
14914TIP3   OH266232   1.765   4.741   1.937 -0.6372 -0.3591 -0.2511
14914TIP3    H166233   1.847   4.763   1.893 -1.2431 -0.7612 -1.6317
14914TIP3    H266234   1.722   4.679   1.878 -1.4020 -1.0683  1.0099
14915TIP3   OH266235   5.403   3.919  15.684  0.3262  0.4047 -0.3237
14915TIP3    H166236   5.451   3.837  15.677  0.8942  0.7157 -0.0627
14915TIP3    H266237   5.321   3.894  15.728  1.3885  0.3305  1.6925
14916TIP3   OH266238   4.571   2.855  16.730  0.0792  0.4965  0.3984
14916TIP3    H166239   4.522   2.811  16.660 -1.2664  0.6885  1.2028
14916TIP3    H266240   4.625   2.786  16.769  0.4334  0.2757 -0.4566
14917TIP3   OH266241   3.894   1.109   0.685 -0.0559 -0.4295 -0.2081
14917TIP3    H166242   3.852   1.168   0.748  0.5978  0.5225 -0.6357
14917TIP3    H266243   3.932   1.167   0.620  0.0229 -1.3705 -1.0225
14918TIP3   OH266244   2.837   0.681  14.884  0.3662  0.4738  0.1384
14918TIP3    H166245   2.852   0.681  14.979 -3.8812  0.5444  1.0233
14918TIP3    H266246   2.796   0.596  14.866  0.1367  0.8878 -1.4269
14919TIP3   OH266247   3.892   0.889  16.451  0.2645 -0.8428  0.0834
14919TIP3    H166248   3.924   0.824  16.389 -3.6562 -0.8443 -2.2933
14919TIP3    H266249   3.961   0.955  16.454  1.7771 -2.1682 -2.2117
14920TIP3   OH266250   4.385   2.406   1.648 -0.2054 -0.1479 -0.2553
14920TIP3    H166251   4.302   2.366   1.673 -0.2823 -0.7257 -1.3533
14920TIP3    H266252   4.424   2.436   1.730 -1.5839  0.3140  0.2569
14921TIP3   OH266253   2.430   5.856  17.043  0.0679  0.1542 -0.2663
14921TIP3    H166254   2.351   5.828  16.998  1.2569  1.1494 -3.1805
14921TIP3    H266255   2.402   5.932  17.095 -0.8097  0.9807 -1.8660
14922TIP3   OH266256   5.872   4.413  14.784  0.4105 -0.2429 -0.6548
14922TIP3    H166257   5.844   4.404  14.693  1.7824 -3.4771 -0.8875
14922TIP3    H266258   5.913   4.500  14.788 -0.8280  0.5048 -2.7327
14923TIP3   OH266259   5.182   5.567   5.357  0.3915  0.2700  0.1629
14923TIP3    H166260   5.127   5.521   5.421  0.3634  1.3622  0.9558
14923TIP3    H266261   5.247   5.614   5.410 -0.9890  3.0099 -0.3776
14924TIP3   OH266262   1.371   0.303   5.467 -0.5943 -0.0421 -0.4927
14924TIP3    H166263   1.457   0.335   5.439 -1.1024  2.2100  0.3126
14924TIP3    H266264   1.389   0.247   5.542  0.3358 -1.7795 -1.9328
14925TIP3   OH266265   4.116   1.666   3.327 -0.1487 -0.1043 -0.0104
14925TIP3    H166266   4.059   1.719   3.270 -0.0557  0.4317  0.3803
14925TIP3    H266267   4.200   1.665   3.282 -0.4613 -0.9267 -0.6077
14926TIP3   OH266268   6.239   4.180   1.441  0.4500  0.6122 -0.1379
14926TIP3    H166269   6.251   4.259   1.388 -1.0013  0.1605 -1.2016
14926TIP3    H266270   6.173   4.129   1.394  0.1180 -0.4630  1.3969
14927TIP3   OH266271   3.493   0.137   2.338  0.0046  0.2747  0.1429
14927TIP3    H166272   3.440   0.217   2.330 -0.1562  0.3911  2.0188
14927TIP3    H266273   3.573   0.165   2.382  0.4131 -0.4104 -0.1484
14928TIP3   OH266274   4.860   3.808  15.510  0.4831 -0.0732  0.1080
14928TIP3    H166275   4.775   3.849  15.494 -1.4424 -3.1900  1.3302
14928TIP3    H266276   4.892   3.852  15.589 -1.0794 -0.2808  0.9041
14929TIP3   OH266277   0.392   4.558   5.305 -0.3233  0.1576  0.6985
14929TIP3    H166278   0.463   4.531   5.362 -0.3595  0.1714  0.7509
14929TIP3    H266279   0.398   4.653   5.302 -0.3762  0.1629  0.7521
14930TIP3   OH266280   3.218   5.489   3.515 -0.1395  0.0030 -0.7726
14930TIP3    H166281   3.308   5.462   3.495 -0.6612 -1.8533 -0.8410
14930TIP3    H266282   3.200   5.450   3.601 -0.9799  0.0988 -0.8971
14931TIP3   OH266283   3.848   1.113   0.287 -0.0653 -0.0377  0.0565
14931TIP3    H166284   3.828   1.021   0.267 -0.3785 -0.1803  0.9764
14931TIP3    H266285   3.942   1.120   0.271 -0.3501 -0.0433 -1.7536
14932TIP3   OH266286   1.603   1.539   1.988  0.3340  0.2022  0.0638
14932TIP3    H166287   1.623   1.468   2.050  0.0303  0.6402  0.6780
14932TIP3    H266288   1.565   1.495   1.912 -1.6552 -0.1603  1.2104
14933TIP3   OH266289   4.299   4.997  12.428  0.7064  0.3948  0.0215
14933TIP3    H166290   4.209   5.017  12.402  0.4833 -0.9868 -0.3692
14933TIP3    H266291   4.346   4.983  12.346  0.6955 -1.1562  0.2409
14934TIP3   OH266292   0.676   5.926   0.215  0.1628  0.1326 -0.0889
14934TIP3    H166293   0.661   5.852   0.157 -0.0357  1.3769 -1.6835
14934TIP3    H266294   0.603   5.923   0.277  1.4473 -2.3822  1.4587
14935TIP3   OH266295   4.088   4.490  15.044 -0.2565 -0.5369  0.3398
14935TIP3    H166296   4.168   4.461  14.999  0.9561 -1.7968  3.0517
14935TIP3    H266297   4.017   4.461  14.988  1.1527 -0.4684 -1.5805
14936TIP3   OH266298   3.809   3.202   0.453 -0.5464 -0.4684  0.4278
14936TIP3    H166299   3.778   3.151   0.528  0.4710 -1.5383  0.1547
14936TIP3    H266300   3.780   3.152   0.377  0.6101 -0.7654  0.1565
14937TIP3   OH266301   2.002   1.977   0.156  0.5798 -0.2114  0.1893
14937TIP3    H166302   2.093   2.002   0.167  0.6813 -0.4259 -0.1532
14937TIP3    H266303   1.957   2.058   0.131  1.0907 -0.5378 -1.9715
14938TIP3   OH266304   5.924   0.002  13.657 -0.0006  0.0773  0.5921
14938TIP3    H166305   5.843   0.040  13.623 -1.3333 -0.8601  2.5596
14938TIP3    H266306   5.971  -0.027  13.579 -1.4719  0.7624 -0.6127
14939TIP3   OH266307   5.346   4.543   5.150  0.2383  0.3869 -0.6501
14939TIP3    H166308   5.295   4.481   5.099 -0.7132 -0.1654  0.9284
14939TIP3    H266309   5.423   4.494   5.179 -0.6859 -0.2136  0.8920
14940TIP3   OH266310   0.114   6.382   4.880 -0.5130 -0.2585  0.4995
14940TIP3    H166311   0.060   6.306   4.860  1.3367 -1.9601  1.5394
14940TIP3    H266312   0.204   6.352   4.865  0.2265  2.5159 -1.4266
14941TIP3   OH266313   5.219   0.502   0.866 -0.2177  0.6797  0.2128
14941TIP3    H166314   5.132   0.531   0.892 -1.2445 -2.3498  0.5888
14941TIP3    H266315   5.212   0.487   0.772  0.0203  0.8880  0.1641
14942TIP3   OH266316   6.081   3.223   4.787 -0.1344 -0.1932 -0.4222
14942TIP3    H166317   6.130   3.219   4.869 -0.1001  0.2028 -0.4207
14942TIP3    H266318   6.096   3.138   4.746  0.7923  0.0305 -0.5568
14943TIP3   OH266319   3.864   4.931  15.954 -0.0553 -0.2240  0.4929
14943TIP3    H166320   3.867   4.835  15.953 -0.4850 -0.2325  0.2026
14943TIP3    H266321   3.786   4.954  15.905  2.2624  0.4151 -3.2683
14944TIP3   OH266322   2.550   0.789   3.883 -0.5105 -0.6089  0.0760
14944TIP3    H166323   2.489   0.843   3.833  0.8995  1.0107  0.0074
14944TIP3    H266324   2.552   0.829   3.969 -1.2580 -2.0580  0.7986
14945TIP3   OH266325   0.796   2.596  11.979  0.2422 -0.6780  0.5555
14945TIP3    H166326   0.751   2.666  11.931  0.5261 -0.2717  0.8732
14945TIP3    H266327   0.887   2.601  11.949  0.1764 -1.1963  0.2575
14946TIP3   OH266328   4.199   6.523   4.105 -0.2948  0.2101 -0.3927
14946TIP3    H166329   4.131   6.480   4.052 -1.1039  0.2210  0.5987
14946TIP3    H266330   4.277   6.469   4.092 -0.9142 -0.7362 -0.2954
14947TIP3   OH266331   2.538   2.742   0.585 -0.2783 -0.2560 -0.0876
14947TIP3    H166332   2.621   2.746   0.538 -0.8384  0.2415 -1.0741
14947TIP3    H266333   2.551   2.796   0.662  0.6013 -0.9269  0.2536
14948TIP3   OH266334   4.814   3.212   3.621 -0.7052  0.6609 -0.0065
14948TIP3    H166335   4.843   3.275   3.555 -0.1894  2.4913  1.8840
14948TIP3    H266336   4.722   3.234   3.636 -1.1287 -0.4458 -0.8131
14949TIP3   OH266337   0.319   4.588  16.666  0.8789 -0.4612  0.4088
14949TIP3    H166338   0.413   4.588  16.646  0.6373  0.2939 -0.8482
14949TIP3    H266339   0.289   4.502  16.637  0.4165  0.8263 -3.4380
14950TIP3   OH266340   5.569   6.288  15.770 -0.1002  0.5263  0.9401
14950TIP3    H166341   5.511   6.352  15.728 -0.7743  0.6527  2.0142
14950TIP3    H266342   5.513   6.243  15.833  0.4696 -0.8483  0.4900
14951TIP3   OH266343   3.081   3.471  13.846 -0.5829 -1.0095  0.1502
14951TIP3    H166344   3.093   3.499  13.937  0.8365 -0.8238 -0.0796
14951TIP3    H266345   3.028   3.391  13.853  2.1265 -2.8474  1.4265
14952TIP3   OH266346   3.704   5.586   4.048  0.3129  0.3150  0.0931
14952TIP3    H166347   3.611   5.575   4.030  0.3607 -0.4046  0.2595
14952TIP3    H266348   3.711   5.676   4.081  0.2885  1.9404 -3.7349
14953TIP3   OH266349   6.619   5.914  12.251  0.1974 -0.2221  0.1770
14953TIP3    H166350   6.609   5.950  12.163  1.6644 -2.9041 -1.2120
14953TIP3    H266351   6.713   5.898  12.260  0.4103  1.9270  3.1358
14954TIP3   OH266352   2.260   0.701  14.387  0.0673  0.4208 -0.2435
14954TIP3    H166353   2.246   0.795  14.401  2.0500  1.0841 -2.1933
14954TIP3    H266354   2.312   0.696  14.307 -0.6228 -2.4153 -0.6166
14955TIP3   OH266355   1.475   2.783  12.139  0.1605  0.2656 -0.1555
14955TIP3    H166356   1.512   2.814  12.056  0.4989  0.1029 -0.0687
14955TIP3    H266357   1.414   2.851  12.165 -0.1499  0.1961 -0.6766
14956TIP3   OH266358   1.401   5.567  12.589  0.2093  0.2864  0.5451
14956TIP3    H166359   1.470   5.632  12.600  0.0459  0.2645  1.8372
14956TIP3    H266360   1.334   5.612  12.537  0.7083  0.6709  0.2234
14957TIP3   OH266361   0.639   1.077  15.551 -0.1074  0.1809 -0.3719
14957TIP3    H166362   0.679   1.163  15.563 -0.0367 -0.1725  2.7864
14957TIP3    H266363   0.567   1.075  15.614 -0.8680 -1.6503 -1.2266
14958TIP3   OH266364   3.763   3.539  15.323 -0.4929 -0.5457 -0.1321
14958TIP3    H166365   3.831   3.474  15.306 -0.8377 -0.8650 -0.2875
14958TIP3    H266366   3.688   3.510  15.271 -0.4903  0.2417 -0.5960
14959TIP3   OH266367   5.748   0.045  15.423  0.4456  0.1009  0.2368
14959TIP3    H166368   5.790   0.128  15.446  1.0461 -0.0832 -0.1652
14959TIP3    H266369   5.816  -0.021  15.440 -0.1014 -0.3345  0.7674
14960TIP3   OH266370   1.889   3.117  16.005 -0.0115  0.7696 -0.2602
14960TIP3    H166371   1.923   3.126  15.916 -1.1798  0.8270 -0.7106
14960TIP3    H266372   1.843   3.199  16.023 -0.1658  0.5843  0.2303
14961TIP3   OH266373   2.933   2.782   1.141  0.1922 -1.2796  0.3019
14961TIP3    H166374   2.929   2.853   1.077 -2.1882 -1.3360  0.3351
14961TIP3    H266375   3.019   2.793   1.182  1.1616 -0.3394 -1.8215
14962TIP3   OH266376   4.895   4.377   3.938 -0.1025 -0.2521  0.1313
14962TIP3    H166377   4.815   4.348   3.982 -0.8858  2.4675  0.7054
14962TIP3    H266378   4.865   4.419   3.858  0.8128  0.0946 -0.0435
14963TIP3   OH266379   1.065   3.158   4.622  0.0739  0.3635 -0.6049
14963TIP3    H166380   0.979   3.118   4.635  0.5422 -1.0623 -1.6519
14963TIP3    H266381   1.052   3.251   4.640 -1.1599 -0.1601  1.5720
14964TIP3   OH266382   4.609   0.000   2.634 -0.3138  0.0684  0.6042
14964TIP3    H166383   4.531   0.054   2.621 -1.4664 -1.6319  0.2327
14964TIP3    H266384   4.576  -0.083   2.669  1.3246 -0.7066  0.4136
14965TIP3   OH266385   4.582   2.142   5.784  0.8135 -0.5605 -0.1862
14965TIP3    H166386   4.582   2.149   5.879 -0.0371  0.4071 -0.2375
14965TIP3    H266387   4.536   2.059   5.766 -0.0351 -0.1931  0.2305
14966TIP3   OH266388   3.582   2.875   1.732 -0.5537  0.1339  0.4337
14966TIP3    H166389   3.521   2.826   1.676 -3.1537  1.1011  2.1835
14966TIP3    H266390   3.668   2.858   1.695 -1.5818 -3.4290 -0.7127
14967TIP3   OH266391   6.117   2.093   3.742 -0.2554 -0.8033  0.7776
14967TIP3    H166392   6.164   2.176   3.750 -1.3877 -0.2972  2.8059
14967TIP3    H266393   6.043   2.113   3.685  0.7780 -1.0672 -0.6987
14968TIP3   OH266394   0.105   4.112   1.293  0.0538  0.3476  0.8099
14968TIP3    H166395   0.116   4.045   1.361 -0.8933  0.6971  1.3205
14968TIP3    H266396   0.010   4.121   1.284  0.1637  0.2116 -0.6634
14969TIP3   OH266397   0.807   4.555   3.591  0.6332  0.3298  0.2052
14969TIP3    H166398   0.797   4.647   3.613  1.4943  0.7265 -0.9509
14969TIP3    H266399   0.747   4.540   3.518 -1.1560 -0.6100  1.8012
14970TIP3   OH266400   1.807   4.258   4.945 -0.2154 -0.0732 -0.6318
14970TIP3    H166401   1.853   4.336   4.912  1.6979 -0.5707  0.7322
14970TIP3    H266402   1.760   4.289   5.022 -1.6900  0.2690 -1.6133
14971TIP3   OH266403   5.914   2.748   0.214 -0.0179  0.6906 -0.1988
14971TIP3    H166404   5.859   2.730   0.138  0.1127  0.7453 -0.3067
14971TIP3    H266405   5.963   2.667   0.228 -0.1536  0.6297 -0.0803
14972TIP3   OH266406   3.672   4.203  16.408  0.4613 -0.3205  0.0174
14972TIP3    H166407   3.619   4.139  16.359 -0.1493  0.3717 -0.2331
14972TIP3    H266408   3.742   4.227  16.347 -0.3291  0.5822 -0.5614
14973TIP3   OH266409   2.626   5.584  16.202 -0.2355  0.5148  0.3789
14973TIP3    H166410   2.670   5.603  16.285  0.1791  0.4519  0.1797
14973TIP3    H266411   2.591   5.668  16.173  1.6756  1.0598 -0.5531
14974TIP3   OH266412   4.112   4.586   2.799 -0.5314 -0.2508  0.0237
14974TIP3    H166413   4.049   4.527   2.757 -0.8064 -0.2364  0.4111
14974TIP3    H266414   4.059   4.655   2.837 -0.1495  0.7144 -1.1452
14975TIP3   OH266415   6.078   3.447   0.981 -0.2862  0.1079  0.0696
14975TIP3    H166416   6.118   3.367   1.014  1.1439  0.7557 -0.0038
14975TIP3    H266417   5.986   3.425   0.969  0.0514 -1.4698  0.1851
14976TIP3   OH266418   2.387   0.883   3.443 -0.2406 -0.1620 -0.4560
14976TIP3    H166419   2.471   0.930   3.435  0.4509 -1.5026 -1.4069
14976TIP3    H266420   2.335   0.914   3.370  0.3788 -1.1588 -1.3413
14977TIP3   OH266421   3.903   3.682  15.985 -0.0326 -0.3271 -0.1645
14977TIP3    H166422   3.937   3.594  16.003  2.2464  0.7516  1.2333
14977TIP3    H266423   3.926   3.733  16.063 -0.5968  1.7178 -1.2591
14978TIP3   OH266424   1.164   0.924  12.356  0.3184 -0.7591  0.6235
14978TIP3    H166425   1.077   0.965  12.360  0.4598 -0.3602 -0.1669
14978TIP3    H266426   1.224   0.995  12.377  0.4695 -0.9844  0.9571
14979TIP3   OH266427   5.885   0.414   0.728 -0.2370 -0.2677 -0.0317
14979TIP3    H166428   5.870   0.390   0.820 -2.1465  1.1979  0.1172
14979TIP3    H266429   5.801   0.398   0.686  0.8971 -1.9368 -1.8417
14980TIP3   OH266430   0.927   0.780  13.629  0.1751  0.1165 -0.3445
14980TIP3    H166431   0.928   0.694  13.588 -0.1817 -0.7990  1.4545
14980TIP3    H266432   1.017   0.796  13.656  0.3069  0.4786 -0.9749
14981TIP3   OH266433   1.828   0.390   1.742  0.2617  0.1683  0.0293
14981TIP3    H166434   1.856   0.438   1.820 -1.1255 -0.5348  1.0083
14981TIP3    H266435   1.733   0.407   1.736 -0.2100 -2.1231  0.2271
14982TIP3   OH266436   4.333   2.188  11.835 -0.3160 -0.1763 -0.1650
14982TIP3    H166437   4.391   2.251  11.879 -0.0334  0.5651 -1.5638
14982TIP3    H266438   4.268   2.166  11.902  1.3449 -0.7815  1.3501
14983TIP3   OH266439   1.743   0.367  16.034 -0.1776  0.0038 -0.6847
14983TIP3    H166440   1.812   0.420  15.994 -0.4490 -0.7299 -2.2052
14983TIP3    H266441   1.663   0.394  15.989 -0.7189  0.0646  0.2857
14984TIP3   OH266442   5.868   2.464  15.990  0.2333  0.4010  0.5788
14984TIP3    H166443   5.930   2.394  16.008 -0.2087 -0.4087 -0.8777
14984TIP3    H266444   5.922   2.534  15.952  0.3259 -0.2152 -0.4818
14985TIP3   OH266445   4.499   3.144  16.532 -0.2614 -0.1698 -0.1396
14985TIP3    H166446   4.539   3.155  16.618  1.1593  1.8841 -0.9924
14985TIP3    H266447   4.419   3.094  16.549 -0.4491  0.8652  2.4792
14986TIP3   OH266448   5.566   4.135   5.801  0.2108  0.1389  0.1698
14986TIP3    H166449   5.573   4.067   5.734 -1.3682  1.1530 -1.0971
14986TIP3    H266450   5.620   4.103   5.874  0.7174 -1.7295 -0.9667
14987TIP3   OH266451   6.387   5.175  12.887 -0.5751  0.4049  0.0163
14987TIP3    H166452   6.418   5.210  12.971 -0.8494 -0.0175  0.2976
14987TIP3    H266453   6.294   5.160  12.901 -0.3090 -1.2414  0.1912
14988TIP3   OH266454   0.079   2.343  13.444  0.4674 -0.0168  0.2082
14988TIP3    H166455   0.014   2.298  13.390  1.4845 -1.3968  0.0758
14988TIP3    H266456   0.088   2.287  13.522  0.0204  1.2261  1.1766
14989TIP3   OH266457   5.900   3.267   2.272  0.1163 -0.4356  0.2727
14989TIP3    H166458   5.965   3.234   2.209  0.4858  2.2161 -0.8356
14989TIP3    H266459   5.952   3.314   2.337 -0.4208 -1.7045  1.6722
14990TIP3   OH266460   3.274   4.581  15.146 -0.4296 -0.5035 -0.8002
14990TIP3    H166461   3.266   4.508  15.207 -1.4385 -0.0236 -0.3185
14990TIP3    H266462   3.229   4.653  15.190  0.0798  0.2610 -1.4959
14991TIP3   OH266463   0.541   0.058   1.746 -0.3593  0.0311 -0.0527
14991TIP3    H166464   0.538   0.098   1.833  1.7356  0.2184 -0.0184
14991TIP3    H266465   0.563   0.130   1.687  1.7163 -0.6788 -0.2249
14992TIP3   OH266466   0.630   4.005   3.484  0.7289 -0.9464  0.4573
14992TIP3    H166467   0.616   3.925   3.434 -0.1049 -0.2054 -0.5446
14992TIP3    H266468   0.553   4.011   3.542 -0.0646 -0.0692 -0.6298
14993TIP3   OH266469   5.864   1.618  13.146 -0.0382  0.1128 -0.2452
14993TIP3    H166470   5.876   1.656  13.059 -2.2413 -1.4765 -1.3504
14993TIP3    H266471   5.906   1.680  13.205  1.3274  1.3759 -2.4026
14994TIP3   OH266472   3.539   2.517   3.916 -0.0075  0.2237  0.1135
14994TIP3    H166473   3.446   2.498   3.930 -0.2791  0.5066 -1.1856
14994TIP3    H266474   3.558   2.483   3.829  0.2884  2.8915 -0.9756
14995TIP3   OH266475   0.689   2.202   4.956  0.1041 -0.0743  0.1575
14995TIP3    H166476   0.721   2.263   5.022  0.5727 -0.8395  0.6476
14995TIP3    H266477   0.752   2.210   4.884  0.9451 -0.9844  0.7878
14996TIP3   OH266478   4.748   3.175  12.933 -0.3242 -0.3601  0.6646
14996TIP3    H166479   4.693   3.114  12.883  0.4050 -1.4097  1.0907
14996TIP3    H266480   4.704   3.182  13.018  0.3585 -1.4935  1.1374
14997TIP3   OH266481   4.992   2.793  16.053 -0.2896 -0.5649  0.0589
14997TIP3    H166482   4.899   2.796  16.031  0.1227 -2.5529 -2.3432
14997TIP3    H266483   5.000   2.849  16.131 -3.3160  0.3250 -0.1520
14998TIP3   OH266484   6.502   4.429  11.030  0.0530  0.8547 -0.7310
14998TIP3    H166485   6.448   4.350  11.027  1.3130 -0.0112 -1.5697
14998TIP3    H266486   6.507   4.459  10.939  0.0217  1.5987 -0.4958
14999TIP3   OH266487   5.754   3.334  15.773 -0.3144  0.4299  0.2502
14999TIP3    H166488   5.796   3.261  15.729 -0.0126  0.0053  1.2177
14999TIP3    H266489   5.811   3.353  15.848 -0.0938  2.0240 -0.2969
15000TIP3   OH266490   5.331   1.428   3.056 -0.5358  0.2163  0.1395
15000TIP3    H166491   5.258   1.489   3.064  0.3618  1.6194 -1.6139
15000TIP3    H266492   5.372   1.427   3.143 -2.1446  0.0077  0.9221
15001TIP3   OH266493   5.004   2.893  14.349 -0.3281 -0.4494 -0.2580
15001TIP3    H166494   4.920   2.852  14.371 -1.2046  0.8667 -1.0472
15001TIP3    H266495   4.993   2.984  14.376  1.7392 -0.7482  1.8849
15002TIP3   OH266496   1.838   0.476  15.468 -0.2165  0.2349 -0.0418
15002TIP3    H166497   1.834   0.405  15.533  0.5267  2.1875  2.2964
15002TIP3    H266498   1.916   0.458  15.417 -0.7378 -1.2859 -0.3561
15003TIP3   OH266499   1.148   4.150   2.680 -0.6632  0.5581 -0.1213
15003TIP3    H166500   1.216   4.141   2.747  0.0004  1.6536 -0.6234
15003TIP3    H266501   1.189   4.202   2.611 -2.3691  2.2813  0.0838
15004TIP3   OH266502   3.627   3.399  11.583  0.0525  0.6038  0.3042
15004TIP3    H166503   3.671   3.412  11.667  0.4431  2.9742 -0.1941
15004TIP3    H266504   3.544   3.447  11.592 -1.0669 -1.2054  0.1557
15005TIP3   OH266505   2.542   5.832  13.780  0.1081 -0.3735 -0.5566
15005TIP3    H166506   2.634   5.820  13.803 -0.0843 -0.6656  0.0867
15005TIP3    H266507   2.503   5.745  13.788 -0.8312  0.1939  2.0488
15006TIP3   OH266508   6.616   2.813   4.581  0.0542  0.3336  0.4634
15006TIP3    H166509   6.575   2.741   4.631  1.9084 -0.2829  1.1687
15006TIP3    H266510   6.564   2.890   4.605 -1.0943 -0.5086  0.8122
15007TIP3   OH266511   3.604   2.665   0.133 -0.0240  0.2710  0.0229
15007TIP3    H166512   3.633   2.574   0.138  0.9023  0.4177 -1.9362
15007TIP3    H266513   3.614   2.689   0.041 -0.7734  2.1989  0.3903
15008TIP3   OH266514   0.187   4.651   1.967 -1.0971  0.2485 -0.0030
15008TIP3    H166515   0.133   4.584   1.926 -1.0907 -0.2946  0.8514
15008TIP3    H266516   0.125   4.722   1.987 -1.3028  0.0572  0.0407
15009TIP3   OH266517   1.910   1.730  12.666  0.5184 -0.4210  0.5185
15009TIP3    H166518   1.931   1.787  12.740  0.9014  1.8702 -1.2433
15009TIP3    H266519   1.995   1.714  12.623  0.1633 -0.7335 -0.0873
15010TIP3   OH266520   2.344   2.416  17.043  0.5467  0.2783 -0.6597
15010TIP3    H166521   2.252   2.408  17.018 -0.5749  2.0703  2.3000
15010TIP3    H266522   2.371   2.326  17.065 -0.2690 -0.3517 -2.1051
15011TIP3   OH266523   1.533   2.634   3.061  0.8870  0.1301  0.6221
15011TIP3    H166524   1.510   2.687   3.138  1.7538 -0.1528  1.0843
15011TIP3    H266525   1.559   2.699   2.995  0.5002  0.3534  0.6833
15012TIP3   OH266526   4.502   1.250   6.360 -0.0754  0.1563  0.3894
15012TIP3    H166527   4.549   1.253   6.444 -1.1093 -0.2272  1.0054
15012TIP3    H266528   4.411   1.233   6.385 -0.0914 -1.9046 -0.9217
15013TIP3   OH266529   2.174   5.612  15.708 -0.3188 -0.0376 -0.7813
15013TIP3    H166530   2.177   5.554  15.632  0.3972 -1.2737  0.1584
15013TIP3    H266531   2.082   5.612  15.735  0.0027 -2.8288  0.7043
15014TIP3   OH266532   2.651   0.441  14.803  0.2831 -0.1168 -0.4148
15014TIP3    H166533   2.562   0.472  14.789  0.8335  2.9215  1.6054
15014TIP3    H266534   2.642   0.368  14.864 -0.9049 -1.3628 -2.0311
15015TIP3   OH266535   2.387   3.960   1.024 -0.0938  0.7158  0.6596
15015TIP3    H166536   2.331   4.037   1.020 -0.5287  0.3805 -0.2374
15015TIP3    H266537   2.332   3.889   0.990  0.2047 -0.0494  1.7145
15016TIP3   OH266538   1.950   2.434  15.664  0.1874  0.4085  0.5399
15016TIP3    H166539   1.985   2.463  15.748 -0.3129  0.7275  0.6431
15016TIP3    H266540   2.011   2.468  15.599  0.8479 -0.2669  0.8025
15017TIP3   OH266541   2.488   4.262   5.563  0.0223  0.2515  0.7959
15017TIP3    H166542   2.396   4.269   5.540 -0.1017 -0.5873  1.0210
15017TIP3    H266543   2.490   4.206   5.640  0.5925  1.5283  1.7624
15018TIP3   OH266544   4.030   1.773  16.046 -1.1153  0.2000  0.7316
15018TIP3    H166545   3.940   1.791  16.020 -0.7278 -0.5947 -1.3732
15018TIP3    H266546   4.083   1.805  15.973  0.3507  0.9729  2.0813
15019TIP3   OH266547   4.603   5.842  15.548  0.4035  0.0228  0.2931
15019TIP3    H166548   4.543   5.792  15.602  0.0270 -0.1015 -0.2252
15019TIP3    H266549   4.602   5.797  15.463 -1.6950  2.1105 -0.9330
15020TIP3   OH266550   4.009   6.539   3.614 -0.3027  0.1039  0.8352
15020TIP3    H166551   3.949   6.569   3.546 -0.0133  1.5869  1.1936
15020TIP3    H266552   4.007   6.444   3.608  3.3899 -0.0699 -4.6008
15021TIP3   OH266553   1.790   5.936  16.520 -0.1043  0.6464 -0.0826
15021TIP3    H166554   1.733   5.881  16.467 -1.4633  2.8953 -1.0862
15021TIP3    H266555   1.731   5.985  16.578  0.9959  1.4304  0.4277
15022TIP3   OH266556   4.880   4.038   0.496 -0.2212  0.6141 -0.1146
15022TIP3    H166557   4.886   3.971   0.427 -1.4552  0.6797 -0.3070
15022TIP3    H266558   4.970   4.068   0.508  0.4859 -1.5970  0.4956
15023TIP3   OH266559   5.504   5.958  11.425 -0.4744  0.0248  0.2096
15023TIP3    H166560   5.490   5.890  11.490 -1.1146 -0.9617 -0.9294
15023TIP3    H266561   5.443   6.028  11.449 -0.2755 -0.0700  1.0014
15024TIP3   OH266562   1.698   2.031  11.541 -0.1397 -0.2668  0.4171
15024TIP3    H166563   1.753   1.954  11.524 -0.9080 -0.1526 -3.2734
15024TIP3    H266564   1.609   2.000  11.527 -0.4961  1.1109 -0.5443
15025TIP3   OH266565   3.967   0.474  10.567 -0.3235  0.4884  0.3341
15025TIP3    H166566   3.954   0.452  10.475 -0.3509 -1.0705  0.6804
15025TIP3    H266567   3.943   0.566  10.574 -1.4268  0.3227 -1.0000
15026TIP3   OH266568   3.739   5.994   4.468  0.3905 -0.2960  0.1556
15026TIP3    H166569   3.743   5.957   4.556  3.6973  0.0225  0.2462
15026TIP3    H266570   3.819   6.045   4.459  0.7467 -1.1890 -3.4017
15027TIP3   OH266571   3.996   6.265   6.166  0.1535  0.3061 -0.1120
15027TIP3    H166572   3.900   6.255   6.168  0.0615  0.9810  2.0853
15027TIP3    H266573   4.027   6.183   6.127 -1.2509 -1.0424  1.3959
15028TIP3   OH266574   3.220   3.761   0.281 -0.1170  0.3093 -0.1127
15028TIP3    H166575   3.272   3.736   0.358 -1.0935  0.0791  0.4872
15028TIP3    H266576   3.228   3.686   0.222  0.6780  0.5059 -0.2699
15029TIP3   OH266577   1.332   1.855   3.426  0.1050  0.3273 -0.4121
15029TIP3    H166578   1.240   1.879   3.410 -0.6864 -1.1956  1.4340
15029TIP3    H266579   1.354   1.899   3.508  1.3802  1.4462 -1.3169
15030TIP3   OH266580   1.343   4.566  13.268 -0.0781  0.1156 -0.0187
15030TIP3    H166581   1.432   4.532  13.255  1.1667  3.6701 -2.3741
15030TIP3    H266582   1.341   4.591  13.361  1.0467 -0.7957  0.2822
15031TIP3   OH266583   3.849   5.635   1.176  0.2256 -0.2159  0.4496
15031TIP3    H166584   3.931   5.610   1.218 -0.3807 -1.4085  0.9766
15031TIP3    H266585   3.785   5.573   1.211 -0.6650 -0.0440 -0.8280
15032TIP3   OH266586   1.478   5.751  15.715 -0.4774 -0.2627 -0.3012
15032TIP3    H166587   1.468   5.824  15.775  1.1505  1.3047 -1.8454
15032TIP3    H266588   1.513   5.680  15.769  2.9680  1.7205  0.3106
15033TIP3   OH266589   5.961   5.108  14.711  0.7821  0.0527  0.7797
15033TIP3    H166590   6.006   5.183  14.673 -1.0714  0.6562 -0.3767
15033TIP3    H266591   5.996   5.101  14.800  1.6171  1.7495  0.6215
15034TIP3   OH266592   1.716   6.192  11.425 -0.1165 -0.2131  0.5082
15034TIP3    H166593   1.710   6.227  11.336  0.3877  0.1941  0.6264
15034TIP3    H266594   1.785   6.245  11.467 -0.4758 -0.2721  1.1952
15035TIP3   OH266595   3.399   4.350  16.236 -0.0358  0.3849 -0.3433
15035TIP3    H166596   3.464   4.285  16.208 -0.4390 -0.5363  0.7820
15035TIP3    H266597   3.344   4.303  16.298 -2.4487  0.8401 -2.0233
15036TIP3   OH266598   2.271   0.585   5.569  0.5871 -0.2207  0.9793
15036TIP3    H166599   2.365   0.595   5.585  0.7926  0.9683 -0.7087
15036TIP3    H266600   2.241   0.673   5.549 -0.5141 -0.8714 -0.3713
15037TIP3   OH266601   4.324   4.163   2.957  0.2386 -0.4710  0.2100
15037TIP3    H166602   4.249   4.122   3.000 -0.1516  0.2573  0.2268
15037TIP3    H266603   4.318   4.133   2.866 -0.5589  0.2438  0.0156
15038TIP3   OH266604   2.237   0.554  11.103  0.0207 -0.4253  0.0992
15038TIP3    H166605   2.284   0.493  11.046  0.3564 -0.4952  0.4432
15038TIP3    H266606   2.191   0.498  11.165 -1.3455 -0.3902 -0.8595
15039TIP3   OH266607   1.225   4.445  15.671  0.2530 -0.5537  0.0925
15039TIP3    H166608   1.263   4.533  15.681 -1.0534  0.0734 -0.1808
15039TIP3    H266609   1.295   4.392  15.633  0.7570  0.6412 -0.7135
15040TIP3   OH266610   6.579   2.480  15.059  0.2174 -0.3064  0.0318
15040TIP3    H166611   6.521   2.547  15.095 -2.2002 -1.4049 -1.5086
15040TIP3    H266612   6.585   2.501  14.966  0.1838 -1.6426 -0.2975
15041TIP3   OH266613   0.441   3.398   1.828  0.0490 -0.7628  0.1321
15041TIP3    H166614   0.447   3.325   1.766 -0.1621  0.2234 -1.1065
15041TIP3    H266615   0.479   3.472   1.780 -0.7498  0.1901  0.9387
15042TIP3   OH266616   5.985   0.689   5.753  0.2206 -0.2922 -0.3288
15042TIP3    H166617   5.917   0.670   5.687 -0.7080  0.9596  0.2246
15042TIP3    H266618   5.967   0.627   5.824  0.3695 -0.7189 -0.6569
15043TIP3   OH266619   4.794   0.281  14.762  0.1557 -0.1004  0.5242
15043TIP3    H166620   4.741   0.201  14.768 -0.6466  0.2892 -0.8725
15043TIP3    H266621   4.771   0.331  14.840 -0.9774 -0.2956  0.3339
15044TIP3   OH266622   3.021   4.709   5.202  0.1953 -0.0118 -1.0187
15044TIP3    H166623   3.025   4.629   5.149 -1.8304 -1.7404  1.2229
15044TIP3    H266624   2.942   4.754   5.172 -0.5869 -0.6557  0.0299
15045TIP3   OH266625   1.227   1.029  14.771 -0.5247 -0.5909 -0.1232
15045TIP3    H166626   1.244   0.946  14.726  1.8419 -0.4154  0.3175
15045TIP3    H266627   1.242   1.010  14.863 -1.3068  0.0177  0.1331
15046TIP3   OH266628   5.111   6.242  15.717 -0.2862  0.6658 -0.0946
15046TIP3    H166629   5.127   6.299  15.791 -0.3179 -0.1863  0.5879
15046TIP3    H266630   5.092   6.301  15.644  1.4520  1.5732  0.1450
15047TIP3   OH266631   3.435   0.816  13.451  0.0942 -0.4358 -0.1598
15047TIP3    H166632   3.459   0.909  13.450 -0.6334 -0.2082 -2.6625
15047TIP3    H266633   3.363   0.811  13.514  0.3882  0.6006  0.2841
15048TIP3   OH266634   0.037   4.554  13.161 -0.0744  0.1548  0.3144
15048TIP3    H166635   0.016   4.545  13.254 -0.1586  1.3808  0.4219
15048TIP3    H266636  -0.026   4.496  13.117 -0.6274  0.2528  0.9570
15049TIP3   OH266637   4.414   5.717  14.012  0.1828  0.1313 -0.4078
15049TIP3    H166638   4.448   5.722  14.101  0.6027 -0.7870 -0.5029
15049TIP3    H266639   4.332   5.669  14.019 -0.3354  1.0084 -0.3810
15050TIP3   OH266640   2.076   4.696  14.573 -0.9718 -0.3600 -0.5462
15050TIP3    H166641   2.009   4.635  14.544  2.0294 -3.6361 -1.3554
15050TIP3    H266642   2.147   4.640  14.606  1.0680  2.8301  1.0214
15051TIP3   OH266643   3.694   3.060  15.087  0.1713  0.5369  0.0467
15051TIP3    H166644   3.666   2.976  15.124 -1.8907  0.7585 -0.8972
15051TIP3    H266645   3.735   3.106  15.160  0.1346 -0.7566  0.9068
15052TIP3   OH266646   6.096   0.815   4.214 -0.2835 -0.0974  0.3413
15052TIP3    H166647   6.003   0.791   4.218 -0.1594 -0.7083 -0.2204
15052TIP3    H266648   6.097   0.910   4.229 -1.1037  0.1016 -0.7365
15053TIP3   OH266649   5.817   0.898   5.465  0.6628  0.7284  0.5131
15053TIP3    H166650   5.798   0.865   5.377 -1.0839 -1.1663  1.4981
15053TIP3    H266651   5.890   0.844   5.495 -0.3262 -0.3511  1.0682
15054TIP3   OH266652   3.932   4.667  14.601  0.1718 -0.3367 -0.3419
15054TIP3    H166653   3.928   4.670  14.506  1.1827 -2.5869 -0.5365
15054TIP3    H266654   3.938   4.573  14.622  0.0421  0.0923  1.9288
15055TIP3   OH266655   1.387   3.588  11.917  0.3867 -0.2899 -0.3671
15055TIP3    H166656   1.380   3.633  12.001  0.2573 -0.4405 -0.2947
15055TIP3    H266657   1.317   3.625  11.864  1.3368  0.8054 -0.8904
15056TIP3   OH266658   6.657   1.440   3.251  0.8580  0.1095 -0.0414
15056TIP3    H166659   6.731   1.388   3.281 -0.4526 -1.4442  0.7073
15056TIP3    H266660   6.655   1.428   3.156  0.2151 -1.8451  0.1643
15057TIP3   OH266661   3.752   6.350   0.271  0.2741 -0.7161 -0.3004
15057TIP3    H166662   3.673   6.386   0.230  0.4121 -0.2514 -0.1566
15057TIP3    H266663   3.727   6.334   0.362  0.6916  0.5571  0.0562
15058TIP3   OH266664   3.384   3.505  14.683 -0.0268  0.2296  0.3335
15058TIP3    H166665   3.414   3.461  14.603  1.0002  0.8261  0.3591
15058TIP3    H266666   3.290   3.491  14.685 -0.1528  0.6316 -1.2692
15059TIP3   OH266667   4.054   4.083  17.161 -0.2466 -0.5119  0.2226
15059TIP3    H166668   4.091   4.118  17.241 -0.0219 -1.4328  0.5262
15059TIP3    H266669   4.127   4.040  17.116 -0.2669  0.3578 -0.6966
15060TIP3   OH266670   3.808   5.493  16.335 -0.7662 -0.1545  0.0785
15060TIP3    H166671   3.832   5.585  16.328  1.9068 -0.8515 -0.9903
15060TIP3    H266672   3.809   5.461  16.244 -1.7309 -1.2372  0.4264
15061TIP3   OH266673   1.536   3.763  17.102 -0.3025 -0.5985  0.0031
15061TIP3    H166674   1.598   3.697  17.133 -0.4263 -0.1661  1.1958
15061TIP3    H266675   1.477   3.778  17.176 -0.7822  0.2474 -0.5367
15062TIP3   OH266676   5.700   0.842  16.095 -0.1077 -0.2877 -0.1516
15062TIP3    H166677   5.688   0.747  16.095 -0.3143 -0.2613 -0.4320
15062TIP3    H266678   5.714   0.864  16.187 -3.5692 -0.1652  0.4747
15063TIP3   OH266679   2.164   2.040  13.294  0.0642  0.6152 -0.3956
15063TIP3    H166680   2.229   2.041  13.223  0.3646  1.5175 -0.1308
15063TIP3    H266681   2.212   2.074  13.370 -0.8575  1.8672 -0.3332
15064TIP3   OH266682   0.353   1.256  12.803  0.0034 -0.4165  0.3597
15064TIP3    H166683   0.415   1.252  12.731 -0.0644  0.8737  0.1990
15064TIP3    H266684   0.365   1.174  12.851  1.1004 -0.6279 -0.2568
15065TIP3   OH266685   6.818   5.533  11.606  0.2245  0.2178 -0.2161
15065TIP3    H166686   6.873   5.533  11.527 -1.2554  0.5900 -1.2799
15065TIP3    H266687   6.807   5.440  11.627  1.6760  0.1484  0.3387
15066TIP3   OH266688   5.014   0.934  16.465 -0.6213  0.6394 -0.8730
15066TIP3    H166689   4.942   0.989  16.436 -0.1486  1.5248 -0.4192
15066TIP3    H266690   4.981   0.889  16.543 -1.3122 -0.4347 -1.7573
15067TIP3   OH266691   2.959   3.866  12.999 -0.6226 -0.4410  0.0975
15067TIP3    H166692   2.963   3.801  13.070  2.0128  1.3125  1.7348
15067TIP3    H266693   2.902   3.935  13.033  0.5041  0.3220  0.4750
15068TIP3   OH266694   3.363   5.545   1.056 -0.1851  0.0026 -0.6748
15068TIP3    H166695   3.357   5.471   1.116  0.8555  0.4057 -0.0543
15068TIP3    H266696   3.311   5.518   0.980 -0.9202 -0.8032  0.0961
15069TIP3   OH266697   3.644   6.008   2.104  0.0877  0.0952 -0.5260
15069TIP3    H166698   3.720   6.014   2.161 -0.2535  0.2131 -0.0817
15069TIP3    H266699   3.582   5.953   2.151 -0.6316  1.0901 -0.2836
15070TIP3   OH266700   6.681   6.252   3.977 -0.2811 -0.0283  0.0268
15070TIP3    H166701   6.751   6.314   3.956  0.0790  0.1122  1.5084
15070TIP3    H266702   6.700   6.224   4.067 -1.8541 -0.3627  0.2845
15071TIP3   OH266703   2.150   1.997   5.854  0.1077  0.3117 -0.5757
15071TIP3    H166704   2.118   2.054   5.925 -0.8962 -0.0272 -0.7359
15071TIP3    H266705   2.117   1.910   5.877  1.9531 -0.3234 -0.1280
15072TIP3   OH266706   2.267   5.934  16.508  0.5695 -0.4775  0.2663
15072TIP3    H166707   2.234   5.847  16.532 -0.5314  0.1203  1.0265
15072TIP3    H266708   2.314   5.964  16.586  0.1644 -0.0367  0.3490
15073TIP3   OH266709   2.271   2.056   0.167  0.1586  0.5556  0.7207
15073TIP3    H166710   2.268   2.151   0.158 -0.9417  0.5994  1.3967
15073TIP3    H266711   2.361   2.033   0.143  0.7475  1.8647  1.5385
15074TIP3   OH266712   0.933   3.009   4.322 -0.2260  0.1236 -1.1926
15074TIP3    H166713   0.892   2.946   4.382  0.7682 -0.9947 -1.6662
15074TIP3    H266714   0.859   3.058   4.285 -1.0651 -1.0767 -1.1663
15075TIP3   OH266715   3.204   2.246  15.184  0.1798 -0.5450  0.4011
15075TIP3    H166716   3.138   2.225  15.250  0.0771  0.7791  0.7576
15075TIP3    H266717   3.246   2.326  15.217 -0.1421  0.3839 -1.3144
15076TIP3   OH266718   6.498   2.318   3.310  0.3366  0.1896 -0.1788
15076TIP3    H166719   6.516   2.322   3.404  3.0824 -1.0747 -0.5575
15076TIP3    H266720   6.585   2.317   3.270 -0.7600  2.3261 -2.8508
15077TIP3   OH266721   4.734   1.583  12.959 -0.2424 -0.6130  0.3063
15077TIP3    H166722   4.717   1.586  13.053  0.9577 -1.2566  0.5525
15077TIP3    H266723   4.647   1.573  12.919 -0.7416 -0.4977  1.3398
15078TIP3   OH266724   2.203   4.728  16.202  0.3706 -0.4748  0.1549
15078TIP3    H166725   2.202   4.648  16.149 -0.4537 -0.0792 -0.4375
15078TIP3    H266726   2.187   4.697  16.292 -0.2960 -0.9523 -0.1194
15079TIP3   OH266727   0.843   0.693  15.115 -0.1806 -0.8599 -0.4278
15079TIP3    H166728   0.894   0.773  15.125  0.1485 -1.2894  2.0012
15079TIP3    H266729   0.877   0.653  15.035  1.5177  0.1365 -0.2577
15080TIP3   OH266730   6.736   3.239  13.342  0.3166 -0.5138 -1.0930
15080TIP3    H166731   6.647   3.267  13.362  1.0752  0.8554  0.6818
15080TIP3    H266732   6.741   3.239  13.247 -0.3946  3.6202 -1.3242
15081TIP3   OH266733   4.735   2.218  16.907  0.1306  0.2740 -0.2149
15081TIP3    H166734   4.705   2.258  16.988 -0.5205 -0.3680 -0.1215
15081TIP3    H266735   4.657   2.175  16.872  0.8354 -1.0231 -0.2370
15082TIP3   OH266736   1.446   5.720   0.367  0.0336  0.6908  0.2752
15082TIP3    H166737   1.491   5.804   0.365  3.0128 -0.7577 -1.3008
15082TIP3    H266738   1.426   5.702   0.275 -0.1103 -0.5291  0.5279
15083TIP3   OH266739   4.403   3.949   5.934  0.0564 -0.4884  0.1097
15083TIP3    H166740   4.324   3.968   5.883  0.2710 -0.1560 -0.1021
15083TIP3    H266741   4.465   4.016   5.908 -0.4357  0.8499  2.1805
15084TIP3   OH266742   0.494   4.144  11.533  0.2404  0.4231  0.7674
15084TIP3    H166743   0.486   4.203  11.458  0.8798  0.2636  0.5715
15084TIP3    H266744   0.405   4.141  11.570  0.3805  2.1684  1.3112
15085TIP3   OH266745   6.739   3.654  13.406  0.1167  0.1397 -0.2584
15085TIP3    H166746   6.795   3.578  13.420  2.0397  1.7000  0.9985
15085TIP3    H266747   6.784   3.726  13.450 -2.0781  1.8464 -0.6147
15086TIP3   OH266748   6.826   6.284   3.258 -0.0562 -0.2086 -0.3107
15086TIP3    H166749   6.839   6.196   3.222 -2.5870 -0.9274  0.2872
15086TIP3    H266750   6.896   6.295   3.322  0.2249 -1.8520 -0.2900
15087TIP3   OH266751   6.379   2.537   0.944 -0.5444  0.1530  0.1515
15087TIP3    H166752   6.469   2.559   0.969  0.1898 -0.8186 -1.4661
15087TIP3    H266753   6.337   2.622   0.930 -0.1770  0.6463  1.8099
15088TIP3   OH266754   3.416   5.203  13.888 -0.2179  0.0220  0.4042
15088TIP3    H166755   3.496   5.227  13.934  0.5724  1.0872 -1.4224
15088TIP3    H266756   3.438   5.123  13.841 -0.4592 -0.1014  0.5013
15089TIP3   OH266757   3.089   6.627   3.530  0.5332  0.1765  0.1761
15089TIP3    H166758   3.122   6.688   3.596  0.0572  0.3814  0.2246
15089TIP3    H266759   3.057   6.682   3.459  0.8196 -0.0385 -0.1238
15090TIP3   OH266760   2.116   4.113   0.893 -0.3343 -0.0682  0.3164
15090TIP3    H166761   2.040   4.065   0.926 -0.0673 -0.7640 -0.0660
15090TIP3    H266762   2.121   4.088   0.801 -0.3483  0.9060  0.0349
15091TIP3   OH266763   5.233   1.905  15.952  0.4207 -0.0215  0.6153
15091TIP3    H166764   5.312   1.853  15.964 -0.6404 -1.4008  1.9829
15091TIP3    H266765   5.242   1.977  16.015  0.3542 -0.4714  1.1435
15092TIP3   OH266766   5.222   1.533   2.363  0.2176 -0.3199 -0.0969
15092TIP3    H166767   5.248   1.552   2.454  0.4445 -1.4737  0.0989
15092TIP3    H266768   5.272   1.454   2.341  0.2705  0.0395 -1.2797
15093TIP3   OH266769   0.407   6.006   4.286  0.0301 -0.3017  0.1158
15093TIP3    H166770   0.348   6.012   4.361 -0.2452  0.3255 -0.1408
15093TIP3    H266771   0.424   6.097   4.262  1.1646 -0.4707  0.2323
15094TIP3   OH266772   0.224   3.039  11.294  0.1759  0.1856  0.2251
15094TIP3    H166773   0.220   3.077  11.206 -1.3181 -0.0030  0.1879
15094TIP3    H266774   0.318   3.024  11.309  0.5874  1.4977 -0.7691
15095TIP3   OH266775   6.604   0.012  13.901  0.2104 -0.0090 -0.0425
15095TIP3    H166776   6.544   0.065  13.953 -0.6105  2.2302 -2.9725
15095TIP3    H266777   6.547  -0.048  13.852  0.3507  1.3762 -2.0217
15096TIP3   OH266778   2.471   2.204   1.442  0.4290  0.4651 -0.3770
15096TIP3    H166779   2.437   2.149   1.371 -0.5371 -1.0125  1.1849
15096TIP3    H266780   2.393   2.238   1.486  1.0219  1.0097  0.2756
15097TIP3   OH266781   1.669   3.113  11.133  0.2584 -0.7728  0.1771
15097TIP3    H166782   1.681   3.165  11.053  0.9193  0.4682  1.0478
15097TIP3    H266783   1.698   3.025  11.109  1.1635 -0.2473 -0.7535
15098TIP3   OH266784   3.312   3.690   5.003 -0.4263  0.4845 -0.0745
15098TIP3    H166785   3.393   3.647   5.032 -1.3146 -0.6656  0.7956
15098TIP3    H266786   3.332   3.783   5.005  1.5167  0.1912 -1.8170
15099TIP3   OH266787   4.640   5.101  12.465 -0.6271 -0.4783  0.3598
15099TIP3    H166788   4.726   5.135  12.441 -1.4687  1.0698 -0.6544
15099TIP3    H266789   4.612   5.158  12.537 -0.6491 -1.2367  0.9605
15100TIP3   OH266790   2.132   3.193  13.045  0.3895  0.3476 -0.1117
15100TIP3    H166791   2.163   3.157  12.962  0.6547  2.4149 -0.9721
15100TIP3    H266792   2.201   3.252  13.074  0.2209 -0.2062  1.5174
15101TIP3   OH266793   6.774   0.939  11.426  0.2775  0.6483  1.0981
15101TIP3    H166794   6.724   0.866  11.390  2.0062  0.4180 -1.0634
15101TIP3    H266795   6.768   1.007  11.359  2.1444  0.8989  1.1367
15102TIP3   OH266796   2.596   0.606  16.246 -0.1826 -0.3622  0.3424
15102TIP3    H166797   2.545   0.527  16.263  0.9317 -1.6973 -2.1155
15102TIP3    H266798   2.687   0.579  16.256  0.2238  1.4093  2.3337
15103TIP3   OH266799   1.426   6.805  12.006  0.1860 -0.1173 -0.2921
15103TIP3    H166800   1.474   6.883  11.978 -0.0859  1.0585  2.1826
15103TIP3    H266801   1.385   6.771  11.927 -0.2127  2.6467 -1.3852
15104TIP3   OH266802   4.692   5.265   4.221 -0.0185  0.4793 -0.1941
15104TIP3    H166803   4.617   5.207   4.213 -0.2352  1.0077 -3.5049
15104TIP3    H266804   4.768   5.207   4.228 -0.5399 -0.0621  1.3950
15105TIP3   OH266805   2.915   3.001   3.582  0.4873 -0.0314  0.0851
15105TIP3    H166806   2.979   3.070   3.567  0.9144 -0.4698 -0.1315
15105TIP3    H266807   2.835   3.048   3.606  0.4267  0.6045 -1.2601
15106TIP3   OH266808   1.690   3.441  14.120  0.3896 -0.1828  0.1738
15106TIP3    H166809   1.773   3.396  14.138  1.0566  1.2475  0.7527
15106TIP3    H266810   1.679   3.503  14.192 -1.3648 -0.5644  0.2893
15107TIP3   OH266811   1.737   1.219  16.107 -0.7043  0.1202  0.4580
15107TIP3    H166812   1.659   1.165  16.116 -0.2085 -0.5379  0.9262
15107TIP3    H266813   1.775   1.221  16.195 -0.5006  0.9088  0.3612
15108TIP3   OH266814   5.480   6.502   2.820  0.7716 -0.2840  0.0915
15108TIP3    H166815   5.511   6.438   2.884 -1.0670 -0.8800  0.4490
15108TIP3    H266816   5.488   6.458   2.736 -1.4065 -1.4294  0.4281
15109TIP3   OH266817   4.613   6.342  11.543 -0.0072 -0.0384  0.3226
15109TIP3    H166818   4.705   6.361  11.560 -0.0103 -2.0731  3.4032
15109TIP3    H266819   4.585   6.412  11.485  3.7332 -0.0109 -1.7788
15110TIP3   OH266820   1.135   3.876  16.196 -0.6371 -0.0560 -0.2051
15110TIP3    H166821   1.179   3.936  16.256 -1.1602 -0.4602  0.6022
15110TIP3    H266822   1.061   3.926  16.162 -0.9386 -0.1561  0.2898
15111TIP3   OH266823   6.504   5.966   2.076 -0.4288 -0.7599  0.1857
15111TIP3    H166824   6.549   5.882   2.064  1.4991  0.3010 -0.4125
15111TIP3    H266825   6.572   6.026   2.106 -1.3227  1.0563 -1.2089
15112TIP3   OH266826   0.798   3.553   3.965 -0.2447 -0.1719  0.0246
15112TIP3    H166827   0.848   3.620   3.918 -0.5199  0.1706  0.2166
15112TIP3    H266828   0.739   3.517   3.899 -1.3026  0.9665  0.3087
15113TIP3   OH266829   5.084   0.655   1.951 -0.6179  0.4557 -0.2088
15113TIP3    H166830   5.104   0.727   2.011 -1.0983  0.4933 -0.0887
15113TIP3    H266831   5.167   0.637   1.906  0.1423 -0.6057  1.5427
15114TIP3   OH266832   1.799   3.346   5.321 -0.1425  0.3621  0.6083
15114TIP3    H166833   1.804   3.250   5.320 -1.3532  0.2961 -0.1856
15114TIP3    H266834   1.831   3.373   5.235  1.7483  0.7934  1.3892
15115TIP3   OH266835   6.288   4.538  13.689  0.4341  0.2663  0.0945
15115TIP3    H166836   6.224   4.554  13.759  0.4292  3.3259 -0.4953
15115TIP3    H266837   6.247   4.573  13.610  1.2807 -1.2863 -1.1006
15116TIP3   OH266838   3.632   0.929   4.715 -0.0680  0.6921 -0.2215
15116TIP3    H166839   3.633   0.976   4.632  0.9714 -1.8085 -1.7477
15116TIP3    H266840   3.724   0.920   4.739 -0.2478 -0.2237  0.1874
15117TIP3   OH266841   5.011   0.361  16.024 -0.1036 -0.2792 -0.3473
15117TIP3    H166842   4.983   0.418  15.952 -1.4212 -0.8347 -0.3070
15117TIP3    H266843   4.937   0.301  16.037  1.6112 -2.7452 -1.1324
15118TIP3   OH266844   5.942   4.367  15.317  0.4846  0.4835 -0.2397
15118TIP3    H166845   6.017   4.390  15.371 -0.4662 -0.3800  1.5483
15118TIP3    H266846   5.869   4.415  15.357 -0.2543 -0.2294 -0.7087
15119TIP3   OH266847   0.452   3.059   0.109  0.3232  0.2157 -0.2035
15119TIP3    H166848   0.544   3.046   0.134 -0.0430 -0.7676  0.7206
15119TIP3    H266849   0.426   3.139   0.155 -0.0439 -1.0128  1.8635
15120TIP3   OH266850   2.076   4.338   5.438 -0.6087 -0.3941 -0.2071
15120TIP3    H166851   2.099   4.267   5.498 -2.5405 -1.0299 -0.1633
15120TIP3    H266852   2.158   4.358   5.392  0.6287 -0.7249  1.7412
15121TIP3   OH266853   1.570   2.285  12.197 -0.3445  0.2019  0.1593
15121TIP3    H166854   1.538   2.344  12.128  1.5042  1.5253  0.3804
15121TIP3    H266855   1.547   2.197  12.165 -3.4700  0.9722 -0.0118
15122TIP3   OH266856   1.237   3.799   2.757  0.0159  0.4522 -0.4158
15122TIP3    H166857   1.175   3.794   2.684 -0.5674 -0.7968  0.1472
15122TIP3    H266858   1.193   3.754   2.829  1.3246  0.0729  0.1710
15123TIP3   OH266859   5.937   1.790  13.339 -0.3009 -0.3880 -0.0936
15123TIP3    H166860   6.029   1.811  13.354 -0.0731 -0.9591 -0.6687
15123TIP3    H266861   5.892   1.874  13.347  0.3353 -0.0168 -0.3330
15124TIP3   OH266862   4.123   2.533  15.081  0.2817  0.1944  0.1969
15124TIP3    H166863   4.219   2.539  15.075  0.2699 -0.4353 -0.7731
15124TIP3    H266864   4.093   2.530  14.991 -0.9082  3.4716  0.3590
15125TIP3   OH266865   4.732   1.420   5.551 -0.5271 -0.1062 -0.2352
15125TIP3    H166866   4.719   1.455   5.639  0.2343 -2.8498  1.0862
15125TIP3    H266867   4.821   1.448   5.528 -1.3205  1.9964 -0.8709
15126TIP3   OH266868   1.550   6.635   0.052 -0.2449  0.3650  0.1116
15126TIP3    H166869   1.555   6.690  -0.026 -0.4691  1.8978  1.1522
15126TIP3    H266870   1.638   6.596   0.059  0.4797  1.9558  0.3182
15127TIP3   OH266871   1.497   1.719   3.981 -0.2164 -0.1898 -0.0800
15127TIP3    H166872   1.559   1.716   3.908 -1.0639  1.3586 -0.9258
15127TIP3    H266873   1.496   1.630   4.016  2.4442 -0.2721 -0.0230
15128TIP3   OH266874   2.765   3.088   2.420 -0.0103  0.2868  0.3340
15128TIP3    H166875   2.770   3.111   2.513 -2.7016 -0.5709  0.7991
15128TIP3    H266876   2.768   2.992   2.419 -0.6694  0.2583 -0.3665
15129TIP3   OH266877   2.347   4.832   2.770  0.2766 -0.1508 -0.0043
15129TIP3    H166878   2.371   4.824   2.678  0.3045 -0.7451  0.0497
15129TIP3    H266879   2.342   4.927   2.785  2.6681  0.0363  0.0074
15130TIP3   OH266880   4.509   3.263   5.317  0.4421 -0.5240 -0.3856
15130TIP3    H166881   4.479   3.351   5.295 -2.2086 -1.5999 -1.5058
15130TIP3    H266882   4.537   3.226   5.233 -0.9994 -1.5844 -0.4420
15131TIP3   OH266883   4.120   2.534   2.267 -0.5262  0.3221 -0.0809
15131TIP3    H166884   4.055   2.592   2.227 -3.0258 -2.6215 -0.7229
15131TIP3    H266885   4.203   2.557   2.225 -1.4264  3.0843 -0.5339
15132TIP3   OH266886   2.457   6.623   5.669 -0.4959 -0.5522 -0.2746
15132TIP3    H166887   2.492   6.535   5.652 -0.7178 -0.7448  0.2579
15132TIP3    H266888   2.491   6.647   5.755 -1.3008 -0.5630  0.0566
15133TIP3   OH266889   4.214   5.362   5.967  0.3731  0.2120 -0.4706
15133TIP3    H166890   4.310   5.358   5.975  0.2429 -0.2722  1.1393
15133TIP3    H266891   4.191   5.444   6.009 -0.0378 -0.4399  0.6016
15134TIP3   OH266892   0.188   1.120   3.452  1.0760 -0.0557 -0.4161
15134TIP3    H166893   0.263   1.132   3.394  0.3895  0.8819 -1.1346
15134TIP3    H266894   0.211   1.043   3.505  3.4953  1.4809  0.9359
15135TIP3   OH266895   3.487   0.865  11.736 -0.6531  0.0845  0.1485
15135TIP3    H166896   3.494   0.929  11.665  2.2190 -0.0852  0.1366
15135TIP3    H266897   3.529   0.786  11.701  0.8747  0.0114  1.9688
15136TIP3   OH266898   0.086   2.274  13.744 -0.4078  0.2700 -0.5481
15136TIP3    H166899   0.030   2.350  13.758  0.2141  0.6815 -0.2711
15136TIP3    H266900   0.152   2.279  13.813 -0.8219 -0.9610 -0.0233
15137TIP3   OH266901   6.191   5.165  13.741 -0.2703  0.4913 -0.0475
15137TIP3    H166902   6.235   5.205  13.816 -0.9822 -0.8133  1.1043
15137TIP3    H266903   6.112   5.218  13.728 -1.1687 -0.4265  1.4215
15138TIP3   OH266904   4.468   0.526  16.593  0.6277 -0.7765 -0.3843
15138TIP3    H166905   4.435   0.436  16.593 -1.4056 -0.1008  0.6407
15138TIP3    H266906   4.422   0.568  16.666 -0.0492  1.6270 -2.0724
15139TIP3   OH266907   0.778   1.657  14.899  0.5562 -0.1002 -0.3487
15139TIP3    H166908   0.846   1.704  14.948  1.6020 -1.0035 -0.8716
15139TIP3    H266909   0.818   1.573  14.878 -1.2786 -1.2738  0.6101
15140TIP3   OH266910   3.402   6.164  10.180 -0.0307  0.2658 -0.1943
15140TIP3    H166911   3.497   6.173  10.190 -0.1164 -0.1466  1.0728
15140TIP3    H266912   3.384   6.073  10.202 -0.5806 -0.0308 -1.7474
15141TIP3   OH266913   6.078   6.034  12.278  0.0514  0.1653  0.5257
15141TIP3    H166914   6.162   6.033  12.323 -0.1428 -1.0509  0.8893
15141TIP3    H266915   6.051   5.943  12.275 -1.8362  0.6390  1.4856
15142TIP3   OH266916   1.086   2.650   0.181  0.4520 -0.2851 -0.0665
15142TIP3    H166917   1.043   2.638   0.266  0.3415 -0.2362 -0.1157
15142TIP3    H266918   1.068   2.570   0.133  0.5967 -0.3533 -0.0081
15143TIP3   OH266919   4.013   2.469  12.371 -0.0339 -0.2041 -0.3755
15143TIP3    H166920   4.023   2.483  12.465 -0.1524 -0.4132 -0.3312
15143TIP3    H266921   4.061   2.541  12.331 -1.7382  1.1125 -0.1503
15144TIP3   OH266922   0.427   5.154  12.189 -0.4367  0.3496  0.1891
15144TIP3    H166923   0.419   5.250  12.193 -1.4774  0.4276 -2.0508
15144TIP3    H266924   0.465   5.137  12.103 -0.6514 -1.2810  0.3874
15145TIP3   OH266925   2.376   0.415  14.742  0.2748  0.5564  0.2664
15145TIP3    H166926   2.312   0.477  14.708  1.0448  1.1556 -0.0923
15145TIP3    H266927   2.429   0.390  14.667  3.6828  3.8616  1.2806
15146TIP3   OH266928   2.209   6.192  13.938  0.0274  0.0632 -0.0946
15146TIP3    H166929   2.211   6.225  14.027  0.5786  1.1839 -0.5023
15146TIP3    H266930   2.189   6.268  13.884  2.9908  0.1863 -1.2305
15147TIP3   OH266931   2.951   0.525  16.447 -0.0025  0.1467 -0.7162
15147TIP3    H166932   2.931   0.593  16.511 -1.4457  1.6633 -2.6597
15147TIP3    H266933   3.032   0.554  16.405 -1.4477  1.6362 -2.6522
15148TIP3   OH266934   5.346   3.440   5.638  0.5991 -0.2614 -0.4826
15148TIP3    H166935   5.345   3.349   5.667  1.2228  0.3092  1.4729
15148TIP3    H266936   5.357   3.435   5.543 -1.7584 -2.2560 -0.7637
15149TIP3   OH266937   0.194   0.787  11.769  0.3239  0.5574 -0.3274
15149TIP3    H166938   0.262   0.720  11.759  0.8744  0.8443  1.1682
15149TIP3    H266939   0.175   0.788  11.863 -1.7765  0.4850 -0.6888
15150TIP3   OH266940   4.714   5.917  15.178 -0.6787 -0.2282  0.1695
15150TIP3    H166941   4.713   5.834  15.226 -1.8682  0.3619  1.2179
15150TIP3    H266942   4.762   5.977  15.236 -1.6943  0.3608  0.4218
15151TIP3   OH266943   6.432   6.548  13.464  0.0815 -0.3836 -0.5196
15151TIP3    H166944   6.359   6.525  13.407 -1.6243 -1.1032  1.7736
15151TIP3    H266945   6.437   6.475  13.526  0.6919  1.0857  1.2545
15152TIP3   OH266946   2.684   3.192   2.676 -0.4422  0.3567  0.0602
15152TIP3    H166947   2.693   3.139   2.756 -1.0594  0.8469  0.4674
15152TIP3    H266948   2.668   3.281   2.709 -0.7735  0.5493 -0.6152
15153TIP3   OH266949   4.208   6.776  10.959  0.2067  0.6928  0.0928
15153TIP3    H166950   4.233   6.767  10.867  4.1466  1.8321  0.8169
15153TIP3    H266951   4.220   6.689  10.996  0.6143  0.6520 -0.1264
15154TIP3   OH266952   5.095   2.935  15.450 -0.4907  0.2299 -0.1367
15154TIP3    H166953   5.105   2.988  15.371 -1.1058  0.4986 -0.0401
15154TIP3    H266954   5.184   2.909  15.473 -0.1985  1.0232 -0.3274
15155TIP3   OH266955   5.947   4.842  14.255  0.1461 -0.3902  0.5793
15155TIP3    H166956   5.880   4.908  14.236  1.1723 -0.2531 -3.2965
15155TIP3    H266957   6.029   4.890  14.252  0.7026 -1.3071  0.8821
15156TIP3   OH266958   6.457   5.882   1.458 -0.0584 -0.0263  0.2021
15156TIP3    H166959   6.485   5.843   1.375 -0.8024  0.3609 -0.2412
15156TIP3    H266960   6.378   5.833   1.482  1.1064 -1.3308  1.6084
15157TIP3   OH266961   2.425   1.998   5.321  0.5476  0.2369 -0.6900
15157TIP3    H166962   2.429   1.907   5.349  1.2252  0.0726 -1.2930
15157TIP3    H266963   2.514   2.019   5.295  0.2271  0.8244 -1.3434
15158TIP3   OH266964   1.909   6.839  14.686  0.0638 -0.5792 -0.7817
15158TIP3    H166965   1.955   6.789  14.618 -0.2711 -0.1615 -1.3297
15158TIP3    H266966   1.921   6.788  14.766 -0.0855 -1.4213 -1.2842
15159TIP3   OH266967   1.348   2.077   2.479  0.2315  0.2395  0.2923
15159TIP3    H166968   1.401   2.127   2.417 -0.6098  1.5822  0.6171
15159TIP3    H266969   1.336   1.992   2.437 -1.2132  1.4466 -1.9269
15160TIP3   OH266970   6.079   4.602   1.795 -0.3485  0.1867 -0.6335
15160TIP3    H166971   6.120   4.518   1.776 -0.5500  0.7520 -4.4600
15160TIP3    H266972   5.991   4.580   1.825  0.5757 -0.9338  1.4156
15161TIP3   OH266973   4.804   0.077   2.134  0.9372 -0.2694  0.1726
15161TIP3    H166974   4.898   0.075   2.115  1.1701 -0.6197  1.2850
15161TIP3    H266975   4.795   0.141   2.204 -0.0410  1.7848 -1.7033
15162TIP3   OH266976   1.802   0.604   5.600 -0.3028 -0.2175 -1.2700
15162TIP3    H166977   1.787   0.662   5.674  0.4431 -1.6506  0.0672
15162TIP3    H266978   1.794   0.660   5.523 -0.3592  1.4709 -0.0823
15163TIP3   OH266979   4.025   2.690  12.892  0.3105  0.3894  0.0530
15163TIP3    H166980   3.993   2.660  12.977  0.4576  0.7770  0.2492
15163TIP3    H266981   3.963   2.757  12.865  0.9793  1.1941  0.4691
15164TIP3   OH266982   4.800   1.952   3.296 -0.0784 -0.2171 -0.2534
15164TIP3    H166983   4.866   2.005   3.340 -0.8601 -0.5204  1.3811
15164TIP3    H266984   4.778   2.001   3.217  2.5134 -0.4197 -1.2001
15165TIP3   OH266985   3.173   3.131   4.839 -0.1938  0.4869  1.1004
15165TIP3    H166986   3.106   3.192   4.871  1.2802  2.9009 -0.1102
15165TIP3    H266987   3.252   3.157   4.886  0.3960 -0.8834  0.9085
15166TIP3   OH266988   1.361   0.960  17.141 -0.1312 -0.1203 -0.6407
15166TIP3    H166989   1.426   0.942  17.072 -0.5630  2.1294 -1.7374
15166TIP3    H266990   1.380   1.050  17.168 -0.2184 -0.8246  1.9827
15167TIP3   OH266991   2.437   4.025  12.675  0.1500 -0.4363  0.3027
15167TIP3    H166992   2.464   3.989  12.590  0.6544  1.0298 -0.2030
15167TIP3    H266993   2.502   4.094  12.692 -0.7248  0.1669  1.2410
15168TIP3   OH266994   0.175   1.322  12.348 -0.2465  0.4781 -0.0021
15168TIP3    H166995   0.267   1.326  12.324 -0.3060  0.8437 -0.1757
15168TIP3    H266996   0.167   1.244  12.402  0.0853  0.2146 -0.3335
15169TIP3   OH266997   1.645   3.935  14.602  0.0481 -0.6444  0.2832
15169TIP3    H166998   1.645   3.869  14.671  1.1444 -1.4479 -0.4412
15169TIP3    H266999   1.576   3.906  14.542 -1.7290  0.7023  1.5723
15170TIP3   OH267000   3.014   0.114  14.520  0.5747 -0.2615 -0.3915
15170TIP3    H167001   3.003   0.043  14.584  0.5433 -0.1713 -0.2961
15170TIP3    H267002   3.070   0.177  14.564  0.5133 -0.1767 -0.4347
15171TIP3   OH267003   5.268   4.720  15.967 -0.1991 -0.2102  0.5208
15171TIP3    H167004   5.272   4.805  15.923  1.1070 -0.0013  0.9989
15171TIP3    H267005   5.315   4.661  15.908 -2.3030 -0.9530 -0.4945
15172TIP3   OH267006   6.252   3.441   3.409 -0.6530 -0.1876 -0.3416
15172TIP3    H167007   6.203   3.375   3.457 -2.7361  1.0995 -0.5636
15172TIP3    H267008   6.191   3.473   3.343  0.9262  0.6447 -1.4635
15173TIP3   OH267009   2.125   0.091  11.298  0.3780 -0.0947  0.3198
15173TIP3    H167010   2.068   0.019  11.271  1.1639 -0.7388  0.3275
15173TIP3    H267011   2.213   0.063  11.271  0.6117  1.2029 -0.3690
15174TIP3   OH267012   4.526   1.285   2.635 -0.3536  0.8400 -0.0715
15174TIP3    H167013   4.610   1.248   2.661  0.0058  1.0992 -0.8287
15174TIP3    H267014   4.465   1.212   2.638  0.1621  0.3691 -0.6930
15175TIP3   OH267015   1.904   5.282  11.371  0.4531 -0.1876  0.5259
15175TIP3    H167016   1.906   5.188  11.390  0.1043 -0.2226  0.3948
15175TIP3    H267017   1.823   5.313  11.411  0.9485  0.2140  1.2570
15176TIP3   OH267018   5.808   2.571  12.527  0.1291 -0.0840  0.2931
15176TIP3    H167019   5.839   2.655  12.560  1.6376 -0.8976  1.0237
15176TIP3    H267020   5.804   2.583  12.432 -1.9327  1.5092  0.5107
15177TIP3   OH267021   3.230   0.007   5.974  0.1974  0.3031 -0.3368
15177TIP3    H167022   3.238   0.082   5.915 -0.0749  0.1608 -0.5592
15177TIP3    H267023   3.198   0.045   6.056 -1.2370  0.2699 -0.8531
15178TIP3   OH267024   1.654   3.558  11.116 -0.3706  0.1114 -0.1565
15178TIP3    H167025   1.659   3.516  11.030  0.3456  0.5467 -0.3371
15178TIP3    H267026   1.577   3.615  11.111  0.0834  0.6827 -0.7648
15179TIP3   OH267027   1.886   2.797   3.717 -0.1255  0.2626 -0.4868
15179TIP3    H167028   1.942   2.768   3.790  0.5742  1.5866 -0.4671
15179TIP3    H267029   1.907   2.890   3.706 -1.7834  0.6088 -0.9965
15180TIP3   OH267030   0.855   6.354  15.679 -0.2500 -0.4580  0.0612
15180TIP3    H167031   0.843   6.263  15.651  0.1720 -0.4419 -0.1859
15180TIP3    H267032   0.785   6.370  15.742  0.1320 -1.1969  0.6911
15181TIP3   OH267033   6.798   5.846   6.047 -0.1701  0.7347  0.0119
15181TIP3    H167034   6.790   5.881   6.136 -1.8195 -0.5114  0.4198
15181TIP3    H267035   6.719   5.877   6.003 -0.4021 -0.3570 -0.3669
15182TIP3   OH267036   6.770   4.376  12.954  0.1891  0.2856 -0.2291
15182TIP3    H167037   6.864   4.361  12.943  0.3108  0.7502  0.1458
15182TIP3    H267038   6.732   4.288  12.952  0.3360  0.2049 -2.8209
15183TIP3   OH267039   1.466   6.402   4.251 -0.2768 -0.6158 -0.1268
15183TIP3    H167040   1.519   6.473   4.216 -1.7932  0.5063 -0.2390
15183TIP3    H267041   1.488   6.400   4.345 -0.5230  0.2866 -0.0393
15184TIP3   OH267042   2.155   6.625  14.824 -0.2247  0.0781  0.3293
15184TIP3    H167043   2.157   6.694  14.758  0.6986 -1.4279 -1.2836
15184TIP3    H267044   2.069   6.584  14.813 -0.0788 -0.1596  0.0737
15185TIP3   OH267045   3.077   2.632   2.579 -0.0333  0.5556 -0.2336
15185TIP3    H167046   3.036   2.652   2.495  0.3023 -1.0760 -0.8311
15185TIP3    H267047   3.042   2.546   2.603  1.7707 -0.1407  0.0468
15186TIP3   OH267048   6.697   5.716  13.330  0.1735 -0.2245  0.1412
15186TIP3    H167049   6.735   5.727  13.243  3.0626 -0.7435  1.2351
15186TIP3    H267050   6.701   5.622  13.347 -0.6922 -0.1772  0.7240
15187TIP3   OH267051   3.830   4.917  15.043 -0.1147 -0.0418 -0.2920
15187TIP3    H167052   3.835   4.880  14.955  1.4828  2.1214 -1.1829
15187TIP3    H267053   3.908   4.884  15.087 -0.4306 -0.3717  0.0335
15188TIP3   OH267054   0.319   2.174  15.270 -0.5019 -0.6271  0.0164
15188TIP3    H167055   0.323   2.117  15.194  1.4015 -4.3703  2.6204
15188TIP3    H267056   0.228   2.204  15.273 -1.0909 -1.8847 -2.6204
15189TIP3   OH267057   0.958   3.888  15.899 -0.2958 -0.1354  0.3153
15189TIP3    H167058   0.987   3.947  15.969  0.5097  1.3207 -1.1890
15189TIP3    H267059   0.925   3.811  15.946  0.1876  0.7833  2.2953
15190TIP3   OH267060   6.370   2.477  12.891  0.5927  0.3365 -0.4503
15190TIP3    H167061   6.364   2.416  12.818  1.5171 -0.7356  0.3347
15190TIP3    H267062   6.462   2.501  12.895  1.1921 -1.8914  2.0862
15191TIP3   OH267063   5.176   4.793  15.129  0.2390  0.1046 -0.7557
15191TIP3    H167064   5.093   4.823  15.165  0.0020  0.6569 -1.7178
15191TIP3    H267065   5.242   4.830  15.186 -0.1709 -0.3309  0.0136
15192TIP3   OH267066   6.754   1.053  16.967  0.4196  0.3909  0.2541
15192TIP3    H167067   6.781   1.068  16.876  0.5379  1.8847  0.5065
15192TIP3    H267068   6.836   1.060  17.017  0.1320  1.1879  0.6297
15193TIP3   OH267069   5.386   4.248   6.365 -0.3589 -0.4529  0.3846
15193TIP3    H167070   5.341   4.328   6.393 -0.1106  0.6308 -2.0145
15193TIP3    H267071   5.450   4.231   6.433  1.1458  2.7626 -0.0339
15194TIP3   OH267072   5.847   6.007   5.770  0.2047  0.0416 -0.0940
15194TIP3    H167073   5.921   6.037   5.718 -1.1570  0.7919 -1.7045
15194TIP3    H267074   5.776   6.068   5.749 -0.9405 -0.7531  1.2275
15195TIP3   OH267075   1.875   2.287   1.112  0.5277 -0.2934 -0.3902
15195TIP3    H167076   1.962   2.281   1.150  0.9503 -0.0295 -1.3100
15195TIP3    H267077   1.825   2.340   1.175  1.3273  0.4955 -0.4083
15196TIP3   OH267078   2.328   4.330   4.844  0.5688  0.0659  0.0445
15196TIP3    H167079   2.341   4.235   4.853 -1.1337 -0.4616 -2.2290
15196TIP3    H267080   2.375   4.353   4.764 -0.6859  0.7308 -0.5196
15197TIP3   OH267081   5.840   1.693  16.280  0.0724  0.1885  0.3488
15197TIP3    H167082   5.898   1.648  16.218 -0.2274  0.4171 -0.1012
15197TIP3    H267083   5.899   1.728  16.347  0.4168  0.1131  0.0869
15198TIP3   OH267084   1.935   1.944   3.490 -0.1665  0.2756  0.1980
15198TIP3    H167085   1.931   1.949   3.394  0.1634  0.0700  0.1720
15198TIP3    H267086   1.853   1.983   3.519 -0.5639 -0.2501 -0.1885
15199TIP3   OH267087   4.501   3.732  11.267 -0.4536  0.5185 -0.0968
15199TIP3    H167088   4.421   3.685  11.288  1.0702 -1.3748  1.9567
15199TIP3    H267089   4.477   3.825  11.273 -2.1922  0.0107  1.7245
15200TIP3   OH267090   3.506   5.437  14.352 -0.8369 -0.5302  0.5714
15200TIP3    H167091   3.521   5.475  14.438 -0.5506 -0.9354  0.7056
15200TIP3    H267092   3.569   5.365  14.347 -0.0173  0.2301 -0.4471
15201TIP3   OH267093   5.590   3.559  15.125 -0.1333  0.1168 -0.1388
15201TIP3    H167094   5.532   3.625  15.087  0.3582 -0.9208 -2.9441
15201TIP3    H267095   5.538   3.517  15.193 -1.7931  0.8260 -0.9229
15202TIP3   OH267096   2.964   5.538  15.258 -0.6686  0.3181  0.3751
15202TIP3    H167097   2.909   5.595  15.204 -0.9278 -0.2594  0.0160
15202TIP3    H267098   2.957   5.574  15.346 -0.5906  1.0136  0.1015
15203TIP3   OH267099   2.850   5.289  16.935 -0.1868 -0.6856  0.0099
15203TIP3    H167100   2.920   5.311  16.873 -0.4432 -0.1775 -0.1113
15203TIP3    H267101   2.777   5.263  16.879 -0.9086  1.1851  0.0012
15204TIP3   OH267102   3.481   5.460   2.111 -0.7224 -0.3988 -0.4919
15204TIP3    H167103   3.477   5.446   2.206 -1.9904 -0.8185 -0.5931
15204TIP3    H267104   3.574   5.453   2.090  0.1647  3.3716  1.2555
15205TIP3   OH267105   2.928   1.359   2.027 -0.4785  0.1503  0.5816
15205TIP3    H167106   2.926   1.448   1.992  0.9261 -0.0456 -0.0950
15205TIP3    H267107   3.021   1.343   2.044 -0.6196 -1.4396  0.0076
15206TIP3   OH267108   0.460   5.135   4.346 -0.0672 -0.6197  0.0581
15206TIP3    H167109   0.450   5.146   4.252  0.6858  1.4370  0.1656
15206TIP3    H267110   0.544   5.090   4.356  0.8934  1.0322 -0.2350
15207TIP3   OH267111   1.883   3.717  11.053  0.1871 -0.1196  0.0209
15207TIP3    H167112   1.819   3.648  11.072 -0.6492  1.1981  2.4224
15207TIP3    H267113   1.831   3.797  11.044  1.3421  0.6488 -0.0746
15208TIP3   OH267114   4.460   5.943   4.883  0.8208  0.8519  0.2090
15208TIP3    H167115   4.375   5.906   4.859  1.4043 -0.0896 -0.4795
15208TIP3    H267116   4.465   5.934   4.978  1.2050 -1.4818  0.0106
15209TIP3   OH267117   3.459   3.133  16.126  0.8619  0.5608  0.3168
15209TIP3    H167118   3.429   3.059  16.073  2.2546  0.7038 -0.7128
15209TIP3    H267119   3.395   3.202  16.108  0.8783  0.3582 -0.5668
15210TIP3   OH267120   2.521   5.955   4.890 -0.4779  0.6477  0.0242
15210TIP3    H167121   2.560   6.037   4.920 -0.4502  1.8422 -2.9339
15210TIP3    H267122   2.593   5.892   4.892  0.0212  1.2184  0.4190
15211TIP3   OH267123   1.077   5.927   6.100 -0.1588  0.2655  0.7997
15211TIP3    H167124   1.157   5.897   6.143  0.4090 -0.2039 -0.5350
15211TIP3    H267125   1.107   5.984   6.029 -0.9547 -0.3597 -0.0760
15212TIP3   OH267126   6.073   6.322  15.988  0.4698  0.0626 -0.4228
15212TIP3    H167127   5.980   6.338  15.969  0.1707  0.2937  1.0927
15212TIP3    H267128   6.072   6.246  16.046  1.1008  0.8583  0.6777
15213TIP3   OH267129   2.729   6.124   2.913  0.1039  0.1071  0.2912
15213TIP3    H167130   2.773   6.041   2.933  1.2961  0.5961 -0.2131
15213TIP3    H267131   2.798   6.190   2.919 -0.5109  0.8782 -0.7397
15214TIP3   OH267132   5.178   0.641  12.676 -0.0808 -0.3018  0.0283
15214TIP3    H167133   5.193   0.617  12.585  1.4963 -1.1116  0.4681
15214TIP3    H267134   5.084   0.629  12.688 -0.1342 -1.3048 -1.1828
15215TIP3   OH267135   6.731   1.608  14.487 -0.7505  0.1250  0.2987
15215TIP3    H167136   6.822   1.639  14.490 -0.4128 -0.7862 -0.0229
15215TIP3    H267137   6.739   1.513  14.484 -1.6699  0.0765 -1.6340
15216TIP3   OH267138   2.156   2.580  11.677 -0.5438  0.1372  0.3176
15216TIP3    H167139   2.114   2.498  11.702  0.0948 -0.0031  0.9705
15216TIP3    H267140   2.213   2.558  11.604 -0.6621  0.0780  0.2432
15217TIP3   OH267141   6.143   0.591  15.743  0.1561 -0.1322  0.2207
15217TIP3    H167142   6.090   0.587  15.823 -0.4645 -1.6133 -0.2372
15217TIP3    H267143   6.233   0.578  15.773 -0.1721 -1.7878  0.6097
15218TIP3   OH267144   2.463   1.056   5.940 -0.5003 -0.4128 -0.2318
15218TIP3    H167145   2.513   0.979   5.913 -1.4717 -0.7011 -1.2554
15218TIP3    H267146   2.376   1.043   5.903 -0.7954  0.9982 -0.0910
15219TIP3   OH267147   4.724   2.724  11.527 -0.7368  0.1079  0.2300
15219TIP3    H167148   4.702   2.772  11.607  0.1344  1.0644 -0.0789
15219TIP3    H267149   4.738   2.792  11.461  2.0544 -0.4053  0.1456
15220TIP3   OH267150   2.424   4.459  13.184 -0.1791 -0.0976  0.4124
15220TIP3    H167151   2.366   4.535  13.187 -0.2970 -0.1641 -0.1000
15220TIP3    H267152   2.412   4.423  13.096  0.3473 -0.3416  0.4359
15221TIP3   OH267153   6.303   0.128  16.767  0.1791  0.0176 -0.1733
15221TIP3    H167154   6.313   0.147  16.673  0.1769 -0.4977 -0.2810
15221TIP3    H267155   6.209   0.114  16.778  0.2721 -0.6863 -0.2455
15222TIP3   OH267156   2.622   3.388  16.168 -0.6860  0.3852 -0.0405
15222TIP3    H167157   2.634   3.294  16.154 -1.8408 -0.0684  1.7326
15222TIP3    H267158   2.654   3.404  16.256  2.3125  2.2973 -1.3148
15223TIP3   OH267159   2.156   4.157  12.197 -0.1179 -0.2479 -0.6104
15223TIP3    H167160   2.240   4.164  12.150  0.3479  1.1680  0.3609
15223TIP3    H267161   2.108   4.236  12.172 -1.2681 -1.1425 -1.3030
15224TIP3   OH267162   4.388   0.724   4.555  0.0309 -0.1051  0.0510
15224TIP3    H167163   4.446   0.674   4.612  0.2837 -0.1965 -0.2904
15224TIP3    H267164   4.368   0.666   4.483 -0.9577 -0.2870  0.4538
15225TIP3   OH267165   0.395   6.252  13.275  0.0175  0.0484 -0.4517
15225TIP3    H167166   0.312   6.270  13.231 -0.7447 -2.7177 -0.3758
15225TIP3    H267167   0.462   6.277  13.212 -0.9902 -0.9393 -1.9824
15226TIP3   OH267168   5.677   0.379  17.026 -0.1440 -0.2189  0.2761
15226TIP3    H167169   5.678   0.437  17.103  0.6919 -0.3015  0.3397
15226TIP3    H267170   5.769   0.358  17.011 -0.3402 -0.5650 -0.4843
15227TIP3   OH267171   6.021   4.122  12.600 -0.2046  0.0326 -0.3330
15227TIP3    H167172   6.065   4.109  12.684  0.6198  1.7360 -0.4539
15227TIP3    H267173   6.086   4.168  12.546 -1.4394  0.8253 -1.2004
15228TIP3   OH267174   3.354   0.543  14.707 -0.3280  0.6456  0.0139
15228TIP3    H167175   3.420   0.582  14.764  1.6711 -0.9366 -1.0682
15228TIP3    H267176   3.352   0.600  14.630  0.6420  0.1228 -0.4230
15229TIP3   OH267177   4.470   4.351  14.520  0.0933  0.2499  0.2036
15229TIP3    H167178   4.389   4.304  14.500 -0.6772  0.7569  1.9213
15229TIP3    H267179   4.520   4.291  14.574  0.6624  0.1288 -0.4426
15230TIP3   OH267180   2.512   5.870  16.086  0.4850 -0.1723  0.0411
15230TIP3    H167181   2.553   5.840  16.005 -0.1953  1.0945 -0.8140
15230TIP3    H267182   2.418   5.855  16.072  0.3379  0.3097  0.4809
15231TIP3   OH267183   5.077   1.822   1.700  0.0774  0.1864  0.2958
15231TIP3    H167184   5.043   1.883   1.766  0.5546  1.1608 -0.3253
15231TIP3    H267185   5.007   1.816   1.635 -0.9500 -1.8176  1.4830
15232TIP3   OH267186   2.478   4.752   0.918  1.0035  0.4310  0.1975
15232TIP3    H167187   2.517   4.802   0.991 -1.1361  2.4803  0.0526
15232TIP3    H267188   2.437   4.677   0.960  1.8029  0.3067  0.7943
15233TIP3   OH267189   3.687   0.775   0.361  0.1435  0.2393  0.4046
15233TIP3    H167190   3.705   0.724   0.440  3.6473  0.2150 -0.2651
15233TIP3    H267191   3.656   0.860   0.394  1.2829  0.1481  1.8327
15234TIP3   OH267192   2.821   1.124  14.078 -0.1126 -0.1819  0.4630
15234TIP3    H167193   2.764   1.161  14.011 -0.5931  2.3240  2.1028
15234TIP3    H267194   2.789   1.162  14.160  2.8676  0.0639  1.6476
15235TIP3   OH267195   6.776   0.829   1.398 -0.2578  0.5169 -0.4250
15235TIP3    H167196   6.774   0.735   1.417  1.0702  0.4912 -0.3678
15235TIP3    H267197   6.809   0.869   1.479  0.3494  0.9076 -0.8598
15236TIP3   OH267198   4.323   1.970   3.812  0.0848 -0.8092  0.0157
15236TIP3    H167199   4.307   1.972   3.906  2.3015 -0.3311  0.4351
15236TIP3    H267200   4.368   1.887   3.797 -0.8059 -1.1794 -0.7637
15237TIP3   OH267201   1.503   3.744  15.403  0.0174  0.1351  0.2066
15237TIP3    H167202   1.527   3.660  15.363  1.3323  0.7916 -0.4786
15237TIP3    H267203   1.421   3.727  15.449 -0.9994 -0.9582 -1.8610
15238TIP3   OH267204   5.556   4.103  14.615 -0.1945 -0.4035 -0.3902
15238TIP3    H167205   5.632   4.161  14.616 -1.7108  1.7132 -1.3906
15238TIP3    H267206   5.593   4.016  14.633  1.9600  1.0237  3.0247
15239TIP3   OH267207   0.022   0.037   2.630  0.3138  0.4149  0.1957
15239TIP3    H167208  -0.015  -0.022   2.696  0.1233  0.2066 -0.0950
15239TIP3    H267209   0.108   0.061   2.664  0.4279 -0.1018  0.2699
15240TIP3   OH267210   4.530   4.507   2.913  0.2168 -0.4182 -0.2730
15240TIP3    H167211   4.592   4.569   2.952  1.3944 -2.2861  0.9948
15240TIP3    H267212   4.476   4.479   2.986 -0.8846 -0.2688 -1.0078
15241TIP3   OH267213   1.237   2.413  14.074 -0.7178 -0.4544  0.2717
15241TIP3    H167214   1.178   2.366  14.014 -1.2176 -0.4429  0.7439
15241TIP3    H267215   1.180   2.442  14.145 -0.6811  1.9414 -0.5878
15242TIP3   OH267216   4.418   0.043  15.138  0.0039 -0.2550 -0.6192
15242TIP3    H167217   4.478  -0.027  15.114  1.4421  0.9553 -0.7017
15242TIP3    H267218   4.364   0.056  15.060  1.2387  0.2169 -1.4362
15243TIP3   OH267219   3.883   2.431  13.717 -0.1722 -0.0199 -0.6268
15243TIP3    H167220   3.910   2.363  13.778 -1.9487 -0.6477 -0.4769
15243TIP3    H267221   3.902   2.513  13.762 -1.1140 -0.4642  0.6534
15244TIP3   OH267222   4.592   4.876   4.993  0.5127 -0.0783 -0.3252
15244TIP3    H167223   4.509   4.894   5.039  0.9281  0.2679  0.2994
15244TIP3    H267224   4.585   4.784   4.969  0.9081 -0.7352  1.8163
15245TIP3   OH267225   0.005   0.768  14.903 -0.2854 -0.1023  0.3624
15245TIP3    H167226   0.068   0.772  14.974  0.7655  0.4978 -0.5763
15245TIP3    H267227  -0.053   0.695  14.926 -0.4422  0.5653  2.1917
15246TIP3   OH267228   4.585   2.608  12.087  0.8757 -0.2155 -0.1735
15246TIP3    H167229   4.586   2.665  12.165  0.6553  0.4980 -0.6817
15246TIP3    H267230   4.619   2.525  12.118 -1.1676 -0.6199  1.2215
15247TIP3   OH267231   1.342   0.305  15.594 -0.5203 -0.3605 -0.7480
15247TIP3    H167232   1.302   0.244  15.533 -1.1854  0.3893 -1.0864
15247TIP3    H267233   1.424   0.332  15.552  0.3390 -1.8398 -0.0916
15248TIP3   OH267234   2.221   1.466   4.569  0.0556 -0.2707  0.3795
15248TIP3    H167235   2.248   1.558   4.578  0.6835 -0.4549  0.4232
15248TIP3    H267236   2.127   1.470   4.552  0.1608  0.4068 -0.0911
15249TIP3   OH267237   6.163   5.967   6.123  0.3163  0.5642  1.0679
15249TIP3    H167238   6.132   5.886   6.081  2.0658  0.3428  0.1396
15249TIP3    H267239   6.230   5.938   6.185  0.8925  1.2845  0.7910
15250TIP3   OH267240   6.076   5.449   2.915 -0.5133  0.8851  0.3123
15250TIP3    H167241   6.020   5.430   2.990  0.3859 -2.2490  0.3023
15250TIP3    H267242   6.108   5.364   2.886  0.7851  2.1781 -2.4067
15251TIP3   OH267243   6.789   3.048   4.742 -0.0272  0.2856 -0.2187
15251TIP3    H167244   6.878   3.073   4.768  0.4703 -0.4283 -1.1693
15251TIP3    H267245   6.732   3.094   4.804  0.9953  0.8406  0.3369
15252TIP3   OH267246   5.467   4.540  15.306  0.8381 -0.2439 -0.1473
15252TIP3    H167247   5.527   4.546  15.232  2.9325  0.8375  1.5383
15252TIP3    H267248   5.494   4.610  15.365 -1.1682 -0.6610  1.3704
15253TIP3   OH267249   0.747   6.204  14.470  0.0782 -0.2484 -0.1566
15253TIP3    H167250   0.819   6.249  14.514  0.1800  0.9345 -1.4525
15253TIP3    H267251   0.774   6.199  14.378 -0.4722 -1.9259 -0.2627
15254TIP3   OH267252   2.605   5.003   1.374 -0.0214  0.7895  0.4153
15254TIP3    H167253   2.654   4.987   1.454  0.9119  0.2385 -0.2492
15254TIP3    H267254   2.646   5.082   1.337 -0.7076  1.2757  0.6659
15255TIP3   OH267255   6.089   5.444  12.243  0.3476  0.6165  0.0186
15255TIP3    H167256   6.152   5.514  12.260  0.4106  0.7269 -0.6504
15255TIP3    H267257   6.006   5.477  12.279  0.9027 -0.0400  2.0240
15256TIP3   OH267258   2.179   3.084   4.925 -0.3431  0.3337  0.1380
15256TIP3    H167259   2.248   3.151   4.925 -0.8289  0.8512 -1.1754
15256TIP3    H267260   2.168   3.060   4.833 -1.1275 -0.5763  0.4546
15257TIP3   OH267261   6.056   0.654  14.805  0.8618  0.0490  0.3620
15257TIP3    H167262   6.047   0.703  14.887  1.8194  0.3230  0.3120
15257TIP3    H267263   6.037   0.719  14.737  1.2338  0.1259  0.3288
15258TIP3   OH267264   6.767   0.808  13.895 -0.3084 -0.0009  0.4234
15258TIP3    H167265   6.797   0.750  13.966  0.7266  0.3906  0.3194
15258TIP3    H267266   6.837   0.804  13.830 -0.7055  0.5772 -0.0442
15259TIP3   OH267267   4.178   6.529   1.145 -0.2754  0.2338 -0.2649
15259TIP3    H167268   4.208   6.480   1.222  0.4478  0.5252 -0.3521
15259TIP3    H267269   4.099   6.484   1.117 -0.4472  0.0158  0.5456
15260TIP3   OH267270   6.390   6.012  12.358 -0.3121  0.0428  0.0176
15260TIP3    H167271   6.425   6.097  12.385 -0.2924 -0.0657  0.3402
15260TIP3    H267272   6.466   5.954  12.358 -0.7751 -0.7336  2.8649
15261TIP3   OH267273   0.883   0.235   1.145  0.5516 -0.2583 -0.6014
15261TIP3    H167274   0.826   0.296   1.098 -1.5232 -0.3222  1.6023
15261TIP3    H267275   0.829   0.157   1.156  1.4270 -0.7059  0.7156
15262TIP3   OH267276   0.072   2.202   0.897  0.9415  0.5666 -0.5056
15262TIP3    H167277   0.088   2.168   0.809  2.8417 -0.1943  0.0857
15262TIP3    H267278   0.156   2.238   0.924  0.4045  0.7301  1.0234
15263TIP3   OH267279   0.268   6.701  16.788 -0.4189  0.3193 -0.4169
15263TIP3    H167280   0.293   6.641  16.858 -0.4561 -1.4335 -1.8292
15263TIP3    H267281   0.350   6.720  16.742 -0.6830 -0.2482 -1.1482
15264TIP3   OH267282   2.732   2.434   5.111 -0.2016 -0.3530  0.3169
15264TIP3    H167283   2.755   2.525   5.129  0.4205 -0.3798 -0.3038
15264TIP3    H267284   2.760   2.387   5.190 -0.6677  0.0033  0.7060
15265TIP3   OH267285   5.610   1.615  16.152 -0.5076 -0.2501  0.5215
15265TIP3    H167286   5.687   1.653  16.193 -0.5810 -0.9634  1.3629
15265TIP3    H267287   5.645   1.562  16.080  0.1534 -2.9150  2.6046
15266TIP3   OH267288   4.232   2.590  13.672  0.0923 -0.7189  0.3529
15266TIP3    H167289   4.171   2.562  13.604 -0.1127  1.6506 -0.5302
15266TIP3    H267290   4.317   2.596  13.627  0.8541 -2.9793  1.3249
15267TIP3   OH267291   6.220   6.486  14.426  0.2445  0.0522 -0.4693
15267TIP3    H167292   6.225   6.574  14.389 -1.9379  0.2137 -0.4885
15267TIP3    H267293   6.268   6.493  14.509  1.6212  0.7539 -1.2745
15268TIP3   OH267294   0.551   6.126   3.493  0.1094 -0.1339 -0.4600
15268TIP3    H167295   0.546   6.202   3.552  0.3385 -0.0948 -0.4912
15268TIP3    H267296   0.460   6.098   3.482  0.0821 -0.2822  0.0998
15269TIP3   OH267297   3.310   0.237   4.306  0.1983 -0.3285  0.4183
15269TIP3    H167298   3.352   0.190   4.378  0.0089 -1.3047 -0.0965
15269TIP3    H267299   3.273   0.168   4.250  0.5410  0.4001 -0.7424
15270TIP3   OH267300   2.586   5.655   1.026 -0.1523  0.3432  0.6690
15270TIP3    H167301   2.667   5.695   0.994 -0.7273  2.0263  1.2246
15270TIP3    H267302   2.517   5.714   0.996 -1.1744 -0.9093  0.4641
15271TIP3   OH267303   3.664   6.302  10.267  0.0454 -0.4135  0.7204
15271TIP3    H167304   3.634   6.357  10.339 -1.1774 -3.2093  2.5171
15271TIP3    H267305   3.756   6.328  10.255 -0.5085  2.1116  1.2445
15272TIP3   OH267306   4.427   1.496   5.402 -0.4874 -0.4943 -0.4303
15272TIP3    H167307   4.457   1.430   5.340 -2.1125 -0.2845 -1.5030
15272TIP3    H267308   4.426   1.577   5.352 -1.7145 -0.2975 -0.1219
15273TIP3   OH267309   4.454   2.901   5.161 -0.6239 -0.0094  0.4253
15273TIP3    H167310   4.515   2.967   5.128 -1.9754  0.6872 -0.7802
15273TIP3    H267311   4.458   2.831   5.095 -0.6754 -0.2468  0.6718
15274TIP3   OH267312   3.564   6.536  12.428  0.3602 -0.2674 -0.5664
15274TIP3    H167313   3.618   6.601  12.383  2.5354 -1.3399  0.3632
15274TIP3    H267314   3.583   6.454  12.383 -1.2862 -0.5536 -0.8317
15275TIP3   OH267315   3.748   5.282  11.505  0.0559  0.0295 -0.8708
15275TIP3    H167316   3.764   5.355  11.444  0.8185 -0.7057 -1.5781
15275TIP3    H267317   3.653   5.270  11.504 -0.1825  1.6113 -0.0201
15276TIP3   OH267318   6.268   6.753  11.204 -0.6213 -0.7177  0.3248
15276TIP3    H167319   6.326   6.827  11.222  0.5212 -1.5215  0.0837
15276TIP3    H267320   6.311   6.706  11.133 -1.3262 -1.6159  0.4743
15277TIP3   OH267321   1.048   3.832  16.573  0.1244 -0.4424 -0.2579
15277TIP3    H167322   1.038   3.920  16.537 -0.0316 -0.1831  0.3982
15277TIP3    H267323   1.137   3.830  16.608 -0.4549  0.0865  1.3406
15278TIP3   OH267324   0.647   4.515   3.372  0.6887 -0.1212 -0.3603
15278TIP3    H167325   0.579   4.582   3.371 -0.6750 -1.3689  1.6885
15278TIP3    H267326   0.707   4.541   3.303 -0.7965  2.1412 -0.9036
15279TIP3   OH267327   1.020   0.880  12.760 -0.2689  0.4105  0.2183
15279TIP3    H167328   0.943   0.931  12.734  0.4464  1.0822 -0.6876
15279TIP3    H267329   1.003   0.853  12.850 -0.3452  3.0043  1.0675
15280TIP3   OH267330   5.763   1.188  16.269 -0.1137  0.2095  0.1660
15280TIP3    H167331   5.838   1.147  16.311  0.5425 -0.4413 -1.5274
15280TIP3    H267332   5.791   1.202  16.179 -2.1910 -0.5993 -0.6802
15281TIP3   OH267333   1.091   2.036  11.863  0.2591 -0.1188 -0.4177
15281TIP3    H167334   1.137   2.075  11.789 -0.5621  0.7910 -0.4593
15281TIP3    H267335   1.161   1.995  11.915  0.9195 -0.1761 -1.3209
15282TIP3   OH267336   6.104   0.796  12.756 -0.0796 -0.3521  0.0136
15282TIP3    H167337   6.100   0.745  12.837 -0.7983 -2.1738 -1.1102
15282TIP3    H267338   6.014   0.796  12.724  0.1203  0.7302 -0.5691
15283TIP3   OH267339   5.451   0.517  10.727  0.0763  0.1136  0.3309
15283TIP3    H167340   5.475   0.574  10.655 -1.9270  0.4698 -0.1115
15283TIP3    H267341   5.355   0.524  10.733  0.1483 -0.1140  2.8428
15284TIP3   OH267342   4.971   1.479  16.919  0.5208 -0.2433 -0.3290
15284TIP3    H167343   4.953   1.422  16.994  1.6411 -1.2917 -0.8356
15284TIP3    H267344   4.920   1.443  16.847  1.3845 -0.7682 -0.7013
15285TIP3   OH267345   2.696   5.715   4.980 -0.3238  0.4155  0.3035
15285TIP3    H167346   2.768   5.686   5.036 -0.7113 -2.3080 -0.4394
15285TIP3    H267347   2.730   5.704   4.891 -1.2968  0.0902 -0.0335
15286TIP3   OH267348   5.784   0.592  12.577 -0.2093  0.0231  0.4578
15286TIP3    H167349   5.699   0.547  12.579  0.0440 -0.4739  0.3567
15286TIP3    H267350   5.839   0.536  12.522  0.3072  0.1086  0.8739
15287TIP3   OH267351   5.821   2.430   1.087  0.1196 -0.1082  0.0079
15287TIP3    H167352   5.751   2.391   1.140  0.3610  0.3270  0.6568
15287TIP3    H267353   5.777   2.459   1.007 -0.7400  1.4164  0.9798
15288TIP3   OH267354   2.836   2.513   5.750 -0.7050 -0.7651  0.4866
15288TIP3    H167355   2.766   2.461   5.710 -1.3205 -0.0864  0.6632
15288TIP3    H267356   2.833   2.597   5.703  0.4642 -0.9768  0.0092
15289TIP3   OH267357   5.039   5.112  15.273 -0.0528  0.2237  0.0230
15289TIP3    H167358   4.947   5.138  15.276 -1.4217 -3.9296  1.9593
15289TIP3    H267359   5.066   5.128  15.182 -3.0934  0.4136 -0.9473
15290TIP3   OH267360   1.741   5.667   2.234 -0.0052  0.4070 -0.1975
15290TIP3    H167361   1.775   5.586   2.272 -1.3736  0.3251  0.8995
15290TIP3    H267362   1.806   5.733   2.256 -0.7019  0.3526  2.2802
15291TIP3   OH267363   1.079   1.208  12.672  0.3355 -0.1991 -0.0352
15291TIP3    H167364   1.102   1.198  12.579 -1.2680  1.1063 -0.6423
15291TIP3    H267365   1.098   1.300  12.691  0.7417 -0.4862  0.9694
15292TIP3   OH267366   1.620   4.147  12.064  0.0224  0.0302 -0.1706
15292TIP3    H167367   1.664   4.091  12.129  0.0845  1.1623  0.8066
15292TIP3    H267368   1.692   4.182  12.011 -0.0181 -0.8136 -0.7973
15293TIP3   OH267369   4.717   5.176  13.207 -0.8461  0.1083 -0.1243
15293TIP3    H167370   4.709   5.230  13.286 -1.4426 -0.9967  0.5946
15293TIP3    H267371   4.630   5.136  13.197 -0.3781 -0.8068 -0.5728
15294TIP3   OH267372   2.205   0.027   5.977  0.6164 -0.2205  0.5928
15294TIP3    H167373   2.210   0.032   5.882 -0.7928 -0.2492  0.4909
15294TIP3    H267374   2.264  -0.043   6.001  0.2909 -0.8317 -0.3502
15295TIP3   OH267375   3.904   4.676   3.760  0.1123  0.0342 -0.2392
15295TIP3    H167376   3.985   4.673   3.708 -0.1239  1.6801 -0.7614
15295TIP3    H267377   3.834   4.674   3.694 -0.2226  0.5621  0.0930
15296TIP3   OH267378   3.560   6.471  10.584 -0.3826  0.3529 -0.3276
15296TIP3    H167379   3.558   6.501  10.493  0.3316  0.5475 -0.2831
15296TIP3    H267380   3.485   6.513  10.625 -0.6974  0.2810 -0.8216
15297TIP3   OH267381   3.837   6.627  12.779 -0.2849 -0.2060 -0.4834
15297TIP3    H167382   3.749   6.636  12.816 -0.6468 -1.8645 -0.8249
15297TIP3    H267383   3.891   6.600  12.853  0.4355  2.7500  0.1806
15298TIP3   OH267384   5.782   6.326   0.372 -0.1200 -0.0912 -0.1271
15298TIP3    H167385   5.805   6.233   0.377  2.5009  0.5624  1.7398
15298TIP3    H267386   5.827   6.357   0.293  1.2604  0.1010  0.7062
15299TIP3   OH267387   2.573   2.312   3.337  0.6132 -0.3764  0.0772
15299TIP3    H167388   2.478   2.312   3.323  0.8580  0.9913 -1.9343
15299TIP3    H267389   2.605   2.241   3.281  0.9533  0.5081 -0.8638
15300TIP3   OH267390   0.655   0.280   2.506 -0.5683  0.1363 -0.3664
15300TIP3    H167391   0.637   0.321   2.422  1.6306  3.3630  0.5755
15300TIP3    H267392   0.726   0.219   2.488 -0.8435 -0.0092 -0.9996
15301TIP3   OH267393   0.817   4.822   3.641  0.2207 -0.0396 -0.1605
15301TIP3    H167394   0.776   4.856   3.721  0.1502  0.6189 -0.4775
15301TIP3    H267395   0.775   4.870   3.570  1.1141  0.2099 -0.5302
15302TIP3   OH267396   0.543   0.270   1.420  0.1501  0.3968 -0.1479
15302TIP3    H167397   0.472   0.221   1.461  1.6237 -1.1033  0.7587
15302TIP3    H267398   0.569   0.217   1.345 -0.4541  1.5634 -1.2274
15303TIP3   OH267399   2.812   3.371   0.142  0.1856  0.1039 -0.2124
15303TIP3    H167400   2.799   3.333   0.229 -0.8048  1.0569  0.0862
15303TIP3    H267401   2.907   3.374   0.131  0.3082 -1.1529  0.3117
15304TIP3   OH267402   5.444   2.876   5.332  0.0158  0.4958 -0.0804
15304TIP3    H167403   5.535   2.886   5.305  0.0381  0.6232  0.0400
15304TIP3    H267404   5.444   2.904   5.424 -0.0486  0.0273  0.0650
15305TIP3   OH267405   0.768   6.381   3.778 -0.1647  0.3438 -0.1007
15305TIP3    H167406   0.696   6.321   3.797 -0.7748  1.0170 -0.2347
15305TIP3    H267407   0.726   6.466   3.764  0.6544  0.7491 -0.1976
15306TIP3   OH267408   5.860   6.474   1.851  0.2435  0.6217 -0.1750
15306TIP3    H167409   5.946   6.431   1.853 -0.3262 -0.5549  0.4170
15306TIP3    H267410   5.815   6.434   1.777 -0.4668 -0.1989  0.6701
15307TIP3   OH267411   6.250   0.039   2.094  0.4257 -0.1290 -0.0696
15307TIP3    H167412   6.173   0.057   2.040 -0.5261 -2.1836  0.4810
15307TIP3    H267413   6.217   0.036   2.183  1.3924  0.1865  0.3128
15308TIP3   OH267414   2.198   5.489  16.787 -0.0526  1.1370 -0.4253
15308TIP3    H167415   2.208   5.442  16.870 -1.2278  1.1132 -0.2846
15308TIP3    H267416   2.187   5.420  16.721  2.2767  1.0942 -0.8560
15309TIP3   OH267417   4.024   1.587  14.459 -0.4931 -0.2341  0.1951
15309TIP3    H167418   4.054   1.605  14.548  2.0588 -1.2248 -0.3597
15309TIP3    H267419   4.037   1.670  14.412  0.3097 -0.3078  0.2651
15310TIP3   OH267420   5.428   5.067   2.081 -0.3283 -0.1253  0.1360
15310TIP3    H167421   5.418   5.159   2.108  1.2152 -0.0001  0.3640
15310TIP3    H267422   5.491   5.031   2.144 -0.6441 -1.2439 -0.1787
15311TIP3   OH267423   1.620   2.254   2.502  0.5370 -0.1642 -0.2958
15311TIP3    H167424   1.682   2.311   2.547 -1.1524  0.5200  1.2446
15311TIP3    H267425   1.631   2.169   2.545 -0.3996  0.2532  0.8077
15312TIP3   OH267426   4.555   0.297   3.492  0.4246  0.4820  0.0905
15312TIP3    H167427   4.580   0.367   3.432 -0.2996  1.1491  0.5453
15312TIP3    H267428   4.590   0.325   3.577  1.1323 -0.2807  0.0632
15313TIP3   OH267429   4.655   3.771  12.991 -0.0875 -0.0666  0.2039
15313TIP3    H167430   4.652   3.782  13.086 -0.4945 -0.2286  0.2117
15313TIP3    H267431   4.576   3.722  12.970 -0.7295  1.1932 -0.3824
15314TIP3   OH267432   1.035   3.164  13.114  1.0878 -0.6737  0.4051
15314TIP3    H167433   1.114   3.174  13.167  2.1771  2.5911 -1.5247
15314TIP3    H267434   0.969   3.217  13.158  0.7921 -1.1380  0.5323
15315TIP3   OH267435   4.621   6.274  13.240 -0.5111  0.1851  0.1909
15315TIP3    H167436   4.681   6.222  13.186 -0.7492 -1.3653  1.3589
15315TIP3    H267437   4.653   6.364  13.231  1.6602 -0.5125  0.3558
15316TIP3   OH267438   3.420   0.958   5.044 -0.0750 -0.2596 -0.0759
15316TIP3    H167439   3.359   0.887   5.024 -0.1492 -0.5211  1.0409
15316TIP3    H267440   3.506   0.918   5.043 -0.2255 -0.7501  2.0823
15317TIP3   OH267441   3.069   4.777  15.185 -0.1762  0.1044  0.7142
15317TIP3    H167442   3.072   4.795  15.279 -0.8903  0.1119  0.7355
15317TIP3    H267443   3.054   4.862  15.145 -0.5965 -0.0066  0.6357
15318TIP3   OH267444   3.453   2.930  11.060  0.7772  0.1686 -0.1102
15318TIP3    H167445   3.434   2.837  11.074  1.5415  0.0365  0.1186
15318TIP3    H267446   3.376   2.964  11.015  0.6253 -0.6507 -0.4883
15319TIP3   OH267447   6.738   4.542   3.045  1.0019  0.2054  0.5297
15319TIP3    H167448   6.754   4.537   2.950  0.3183  0.3350  0.4015
15319TIP3    H267449   6.746   4.452   3.075  2.1075  0.2763  0.5104
15320TIP3   OH267450   4.499   1.151  14.568  0.4229 -0.1591  0.0474
15320TIP3    H167451   4.444   1.227  14.587  0.1866  0.4715 -2.7302
15320TIP3    H267452   4.534   1.125  14.653 -0.0337  2.6369  1.1982
15321TIP3   OH267453   3.724   0.069   0.589 -0.1830  0.1778 -0.2799
15321TIP3    H167454   3.815   0.085   0.564 -0.2234  1.0273  0.0653
15321TIP3    H267455   3.692   0.007   0.524  0.9145 -0.8937  0.1560
15322TIP3   OH267456   1.164   6.375   2.638  0.0500 -0.3504  0.5387
15322TIP3    H167457   1.072   6.386   2.665  0.2196 -0.4574  1.1611
15322TIP3    H267458   1.169   6.286   2.605 -0.2411 -0.1049 -0.1944
15323TIP3   OH267459   5.734   0.215   4.678  0.3086 -0.0036 -0.6779
15323TIP3    H167460   5.781   0.140   4.640 -0.0753  0.0214 -1.2078
15323TIP3    H267461   5.647   0.181   4.699  0.5682 -0.0646  0.3591
15324TIP3   OH267462   0.359   2.456  15.263 -0.8558  0.1916  0.0509
15324TIP3    H167463   0.390   2.477  15.175 -1.8052 -1.0067 -0.6006
15324TIP3    H267464   0.357   2.361  15.267 -0.2587  0.2071  1.5963
15325TIP3   OH267465   3.812   2.149   5.642  0.1626  0.1471  0.5762
15325TIP3    H167466   3.788   2.133   5.551  2.3595  3.9537 -0.9274
15325TIP3    H267467   3.731   2.140   5.691 -1.8440  1.1741 -2.3146
15326TIP3   OH267468   3.535   0.344  14.125 -0.2481  0.1499  0.1989
15326TIP3    H167469   3.593   0.280  14.166  0.2500 -0.1946 -0.9972
15326TIP3    H267470   3.452   0.297  14.113  0.6101 -0.8756 -2.1950
15327TIP3   OH267471   3.372   5.914   0.019  0.1391 -0.1455  0.2585
15327TIP3    H167472   3.377   5.994  -0.033  0.3097  1.1088  2.0994
15327TIP3    H267473   3.330   5.941   0.101 -0.1246 -2.0257  0.7934
15328TIP3   OH267474   4.823   5.833  16.681  0.6115  0.9821  0.2103
15328TIP3    H167475   4.747   5.818  16.737  0.8997 -1.9845 -0.0284
15328TIP3    H267476   4.898   5.804  16.733  1.1673  0.5671 -0.7913
15329TIP3   OH267477   4.891   4.299  16.273  0.2256  0.0976 -0.3194
15329TIP3    H167478   4.904   4.240  16.199 -1.2786 -0.5354 -0.1212
15329TIP3    H267479   4.938   4.257  16.345  2.3491  1.1035 -1.0269
15330TIP3   OH267480   4.945   4.156   4.452  0.6684  0.5742  0.7510
15330TIP3    H167481   4.876   4.188   4.394 -1.2224 -1.3234  1.8194
15330TIP3    H267482   4.963   4.230   4.510 -2.1627  0.4565  1.9100
15331TIP3   OH267483   2.024   2.494  14.202  0.1004 -0.2953  0.2516
15331TIP3    H167484   2.036   2.399  14.199 -0.4638 -0.3457 -0.5906
15331TIP3    H267485   1.955   2.507  14.268  0.6514 -0.4134  0.8601
15332TIP3   OH267486   2.104   4.416   0.173 -0.1370  0.2135  0.2336
15332TIP3    H167487   2.190   4.447   0.143  0.1198  0.4211  1.1535
15332TIP3    H267488   2.123   4.331   0.214  0.0396  1.2964  2.5541
15333TIP3   OH267489   4.120   4.394  16.417 -0.0987 -0.7027  0.0266
15333TIP3    H167490   4.134   4.409  16.510  1.8455 -0.7124 -0.2319
15333TIP3    H267491   4.205   4.365  16.384 -0.9152 -1.3540 -1.6323
15334TIP3   OH267492   2.107   5.100   4.511 -0.0242  0.0833 -0.4783
15334TIP3    H167493   2.156   5.138   4.438 -0.2514 -0.0203 -0.6894
15334TIP3    H267494   2.167   5.104   4.585  0.9800 -1.6206 -1.1133
15335TIP3   OH267495   2.824   2.523   4.003 -0.2458  0.6485 -0.3387
15335TIP3    H167496   2.884   2.590   4.035 -0.9055  0.9222  0.3657
15335TIP3    H267497   2.838   2.521   3.908  3.2399 -1.6029  0.0495
15336TIP3   OH267498   6.266   2.145   6.459  0.0881  0.0439 -0.1502
15336TIP3    H167499   6.334   2.088   6.423 -0.4731 -2.5704  2.5692
15336TIP3    H267500   6.184   2.103   6.436 -0.5790  1.6745 -0.9715
15337TIP3   OH267501   5.186   2.880   0.426  0.0079 -0.9726  0.2806
15337TIP3    H167502   5.217   2.896   0.515 -3.0312 -1.5794  1.5490
15337TIP3    H267503   5.181   2.966   0.386 -0.1303 -0.5119  1.2606
15338TIP3   OH267504   0.938   1.945   3.825 -0.5906 -0.4942  0.8010
15338TIP3    H167505   0.905   1.868   3.779 -0.2903 -0.7279  0.9732
15338TIP3    H267506   1.030   1.926   3.840 -0.0740  0.6280 -0.6861
15339TIP3   OH267507   5.983   4.278  14.295 -0.2315  0.0900  0.6330
15339TIP3    H167508   5.918   4.282  14.365 -2.3157  1.0038 -1.2309
15339TIP3    H267509   6.016   4.367  14.287  1.3532 -0.3679  1.5701
15340TIP3   OH267510   4.239   1.531   5.592 -0.4781 -0.5420  0.5106
15340TIP3    H167511   4.329   1.538   5.561 -0.0908 -0.3641  1.6123
15340TIP3    H267512   4.243   1.464   5.661 -1.2817 -0.8803  0.2340
15341TIP3   OH267513   5.830   0.604  13.292 -0.0139  0.3968 -0.5724
15341TIP3    H167514   5.875   0.553  13.359 -0.7395 -0.0334 -0.4028
15341TIP3    H267515   5.893   0.671  13.266  1.1734 -0.9116 -1.1763
15342TIP3   OH267516   6.552   1.077   2.603  0.2111  0.1602  0.7384
15342TIP3    H167517   6.537   1.050   2.694  1.1961 -0.4356  0.7274
15342TIP3    H267518   6.498   1.018   2.551  0.2509 -0.0038  0.8828
15343TIP3   OH267519   0.864   0.003  16.046 -0.2989 -0.5054 -0.0976
15343TIP3    H167520   0.939   0.062  16.044  0.8423 -1.9104 -2.0649
15343TIP3    H267521   0.806   0.035  15.977  0.5724 -1.9027 -1.5382
15344TIP3   OH267522   3.198   1.766   4.846 -0.5285  0.0848 -0.4275
15344TIP3    H167523   3.156   1.808   4.771 -2.9228  0.0360  0.8051
15344TIP3    H267524   3.177   1.673   4.836  0.8139 -0.2193 -0.6765
15345TIP3   OH267525   5.156   0.154   0.833 -0.3815  0.3247 -0.5500
15345TIP3    H167526   5.237   0.175   0.880 -0.4471 -0.6469  0.0318
15345TIP3    H267527   5.089   0.150   0.902 -0.6985 -0.0238 -0.8759
15346TIP3   OH267528   6.032   6.794   5.569 -0.0862  0.7104  0.0349
15346TIP3    H167529   6.087   6.871   5.556  2.2246 -0.6917  0.9561
15346TIP3    H267530   6.012   6.795   5.663  0.1428  0.0828  0.0934
15347TIP3   OH267531   5.796   3.907   1.517 -0.1511 -0.4703 -0.5537
15347TIP3    H167532   5.823   3.819   1.490 -0.1675 -0.8286  0.5732
15347TIP3    H267533   5.756   3.895   1.603  0.1768  0.6894 -0.2224
15348TIP3   OH267534   6.201   1.848   1.914  0.4458  0.2668  0.3016
15348TIP3    H167535   6.275   1.863   1.855 -0.2234  1.3528 -0.3146
15348TIP3    H267536   6.213   1.913   1.983  0.3982  0.0275  0.5343
15349TIP3   OH267537   0.954   1.280   6.083  0.2244 -0.0362 -0.3169
15349TIP3    H167538   0.960   1.353   6.021 -1.1759  0.7041  0.3607
15349TIP3    H267539   0.915   1.319   6.162 -1.0009 -1.5986 -0.1057
15350TIP3   OH267540   2.084   0.384  11.235 -0.0182 -0.2390  0.7071
15350TIP3    H167541   1.988   0.388  11.244  0.0378 -0.6500  1.5435
15350TIP3    H267542   2.106   0.295  11.260  0.4500 -0.6292 -0.9596
15351TIP3   OH267543   6.536   6.741  16.401 -0.2440  0.2313 -0.5551
15351TIP3    H167544   6.607   6.677  16.397 -1.2746 -0.9818 -0.3313
15351TIP3    H267545   6.468   6.703  16.345 -1.1121  0.8405  0.0653
15352TIP3   OH267546   5.060   4.911  17.102  0.1085 -0.5771 -0.6493
15352TIP3    H167547   5.097   4.823  17.107  0.6080 -0.7009 -3.9369
15352TIP3    H267548   4.974   4.899  17.061 -0.5700  0.3505  0.4448
15353TIP3   OH267549   0.292   4.603   4.261 -0.6850 -0.0269  0.1261
15353TIP3    H167550   0.317   4.565   4.177 -1.8808 -1.9973  0.5932
15353TIP3    H267551   0.315   4.536   4.325 -0.8319  0.9693  1.2592
15354TIP3   OH267552   4.832   2.843  12.212  0.0762 -0.2895  0.0390
15354TIP3    H167553   4.769   2.872  12.147 -1.8978  1.8418  2.6863
15354TIP3    H267554   4.917   2.871  12.177 -1.1091  2.6878 -0.7508
15355TIP3   OH267555   5.381   1.685  10.768 -0.3790 -0.0310  0.4908
15355TIP3    H167556   5.402   1.593  10.786 -0.7999  0.1289  1.8466
15355TIP3    H267557   5.462   1.732  10.788  0.8982 -0.3540 -3.1358
15356TIP3   OH267558   0.947   2.754  12.300  0.4668  0.0166 -0.4882
15356TIP3    H167559   0.962   2.810  12.224  2.0925  1.5361  0.8571
15356TIP3    H267560   0.889   2.685  12.269  0.0449  1.3172 -2.7508
15357TIP3   OH267561   1.976   2.484   1.464  0.4600 -0.3169  0.6237
15357TIP3    H167562   1.893   2.528   1.446 -0.2736 -1.1497  1.8599
15357TIP3    H267563   1.954   2.391   1.463  1.8096 -0.6682 -1.0620
15358TIP3   OH267564   3.232   3.342   0.331 -0.0315 -0.3330 -0.3477
15358TIP3    H167565   3.196   3.392   0.258  0.4039 -1.4654 -1.3625
15358TIP3    H267566   3.288   3.276   0.290  2.1124  0.4793  1.1035
15359TIP3   OH267567   4.787   5.124   1.027  0.0522 -0.1696  0.1069
15359TIP3    H167568   4.756   5.177   1.100 -1.7513  0.0635 -0.7767
15359TIP3    H267569   4.708   5.099   0.980  0.9299 -2.6367 -0.2258
15360TIP3   OH267570   3.096   0.384   4.393 -1.0105 -0.8029  0.1534
15360TIP3    H167571   3.036   0.361   4.322 -0.4401 -1.1282 -0.2299
15360TIP3    H267572   3.182   0.356   4.362 -0.1726  2.2190 -0.5563
15361TIP3   OH267573   1.802   2.780   0.351 -0.2378  0.2364 -1.1186
15361TIP3    H167574   1.867   2.719   0.386 -1.0291  0.3142  0.6043
15361TIP3    H267575   1.793   2.847   0.420  0.1271  1.9540 -2.6729
15362TIP3   OH267576   1.431   1.709  15.331  0.3587  0.2578 -0.4652
15362TIP3    H167577   1.480   1.649  15.275 -0.0604  2.8931 -3.9089
15362TIP3    H267578   1.401   1.653  15.404  3.0221 -2.8158 -1.4777
15363TIP3   OH267579   2.872   3.609   1.305  0.0556 -0.9359 -0.2075
15363TIP3    H167580   2.960   3.590   1.338  0.8650 -1.7542 -2.5736
15363TIP3    H267581   2.858   3.702   1.323  1.9068 -0.5070 -0.7910
15364TIP3   OH267582   0.230   1.801   6.172 -0.1584 -0.2081 -0.0215
15364TIP3    H167583   0.297   1.740   6.203 -1.0191 -1.9782 -1.4002
15364TIP3    H267584   0.176   1.818   6.249  0.2842 -0.9550  0.4741
15365TIP3   OH267585   1.596   2.524   4.128  0.6127  0.2781 -0.2644
15365TIP3    H167586   1.672   2.503   4.182  0.7030  1.3386  0.0340
15365TIP3    H267587   1.543   2.444   4.130 -0.4853  0.9384  3.2162
15366TIP3   OH267588   4.766   6.029  17.135  0.0826 -0.2020 -0.6410
15366TIP3    H167589   4.837   6.078  17.094 -0.7244  1.1792 -0.4284
15366TIP3    H267590   4.797   6.013  17.225 -0.1973  1.1157 -0.2968
15367TIP3   OH267591   0.974   6.302  15.988  0.2624 -0.4341 -0.0529
15367TIP3    H167592   1.008   6.388  16.013  1.5512 -0.5369 -1.3118
15367TIP3    H267593   0.886   6.319  15.955  1.1934  0.7585 -2.1466
15368TIP3   OH267594   0.077   4.096   3.511  0.4591  0.4976  0.2674
15368TIP3    H167595   0.118   4.009   3.506 -0.2423  0.1155  0.8762
15368TIP3    H267596   0.015   4.089   3.584 -0.6966  1.0451 -0.6220
15369TIP3   OH267597   3.171   2.873  14.445  0.5998  0.1025  0.5638
15369TIP3    H167598   3.237   2.850  14.379  1.0075  0.9928  0.6579
15369TIP3    H267599   3.192   2.962  14.471  0.2381 -0.1179  1.6734
15370TIP3   OH267600   6.652   6.141  14.943 -0.1214  0.2861  0.0701
15370TIP3    H167601   6.623   6.101  14.861 -0.0723  0.0259  0.1758
15370TIP3    H267602   6.622   6.080  15.011 -0.7298  0.8191  0.2966
15371TIP3   OH267603   6.390   5.025  16.951  0.3822  0.4844  0.0445
15371TIP3    H167604   6.314   4.967  16.961  0.9185 -0.4435 -0.9534
15371TIP3    H267605   6.443   5.007  17.029  0.4796 -0.2913 -0.1885
15372TIP3   OH267606   6.692   2.559  10.844 -0.3667 -0.2214  0.1584
15372TIP3    H167607   6.766   2.547  10.902 -0.2094  2.3033  0.6096
15372TIP3    H267608   6.704   2.494  10.774  1.7722 -0.4383  0.6776
15373TIP3   OH267609   0.430   0.238  14.927 -0.1430 -0.4008  0.0277
15373TIP3    H167610   0.460   0.329  14.919 -0.8795 -0.2613 -1.6781
15373TIP3    H267611   0.486   0.189  14.866 -0.1115 -1.0064  0.5323
15374TIP3   OH267612   3.778   5.500  11.048  0.3434 -0.0170  0.2696
15374TIP3    H167613   3.728   5.419  11.034 -0.7463  0.8334 -0.9583
15374TIP3    H267614   3.831   5.510  10.969 -1.1689  1.5702 -0.6092
15375TIP3   OH267615   4.111   0.510  16.203  0.3832 -0.1995 -0.0740
15375TIP3    H167616   4.169   0.493  16.278  0.5220 -0.3845 -0.2220
15375TIP3    H267617   4.026   0.476  16.230  0.1996  0.5869  0.3704
15376TIP3   OH267618   4.343   3.172  15.381 -0.0609  0.2860 -0.0238
15376TIP3    H167619   4.367   3.081  15.399 -0.5492  0.0045 -0.7325
15376TIP3    H267620   4.426   3.215  15.361  0.1278 -0.0925 -0.0618
15377TIP3   OH267621   5.092   5.403  16.662 -0.4500 -0.1497  0.3857
15377TIP3    H167622   5.074   5.485  16.709  0.0457 -0.4367  1.0932
15377TIP3    H267623   5.011   5.385  16.614  0.4954  2.4875 -2.4915
15378TIP3   OH267624   4.227   4.213   3.298  0.2618  0.3079 -0.3759
15378TIP3    H167625   4.266   4.301   3.300  0.5194  0.1746  0.6043
15378TIP3    H267626   4.240   4.179   3.386 -1.4310 -0.0271 -0.2362
15379TIP3   OH267627   5.339   1.083   1.497 -0.0274  0.0069  0.6232
15379TIP3    H167628   5.257   1.126   1.523 -0.8519 -0.5081 -1.0043
15379TIP3    H267629   5.356   1.020   1.568 -2.4100 -1.6334 -0.1380
15380TIP3   OH267630   4.168   6.011   4.073 -0.6522  0.6277 -0.7118
15380TIP3    H167631   4.135   5.931   4.113  0.4765  0.3157 -0.3869
15380TIP3    H267632   4.146   6.080   4.136  0.8736  0.1775  0.3648
15381TIP3   OH267633   2.574   1.707  10.967  0.3671  0.0361  0.3287
15381TIP3    H167634   2.515   1.639  10.935 -0.3616  0.1200  1.4251
15381TIP3    H267635   2.582   1.689  11.061  2.6027 -0.3450  0.1193
15382TIP3   OH267636   3.474   6.175  16.745  0.5565 -0.2115  0.0383
15382TIP3    H167637   3.462   6.171  16.650  0.3501  0.7115  0.0193
15382TIP3    H267638   3.500   6.265  16.763 -1.8798  0.3395  1.1330
15383TIP3   OH267639   5.364   1.638   4.867  0.3765  0.1684  0.8272
15383TIP3    H167640   5.411   1.564   4.907  1.0442  0.5980  0.8440
15383TIP3    H267641   5.326   1.602   4.787  0.6411 -0.2128  0.8709
15384TIP3   OH267642   6.038   6.064   1.520 -0.7719 -0.2607 -0.3177
15384TIP3    H167643   6.025   6.014   1.439  1.5351 -2.1527  0.3861
15384TIP3    H267644   5.951   6.093   1.545 -1.5434  0.7337 -3.6582
15385TIP3   OH267645   0.906   4.965  12.143 -0.0310  0.0427 -0.0402
15385TIP3    H167646   0.920   4.985  12.236  1.3040  0.4783 -0.3138
15385TIP3    H267647   0.852   5.038  12.112  2.3428  1.8076 -0.3376
15386TIP3   OH267648   6.104   0.662   0.907 -0.6983 -0.3233 -0.4648
15386TIP3    H167649   6.050   0.722   0.958  2.0487  1.5872  0.4172
15386TIP3    H267650   6.163   0.622   0.971 -0.5109 -1.7577 -1.4848
15387TIP3   OH267651   3.864   4.438   2.625  0.7902  0.6605  1.0396
15387TIP3    H167652   3.909   4.361   2.590 -0.5259  0.7507 -1.0230
15387TIP3    H267653   3.789   4.402   2.674  0.8683  0.5941  1.1092
15388TIP3   OH267654   5.457   5.713  15.048 -0.9305  0.1047  0.2259
15388TIP3    H167655   5.516   5.701  14.973  3.0918  3.1287  2.4649
15388TIP3    H267656   5.394   5.779  15.019 -1.5360 -1.1621 -1.4408
15389TIP3   OH267657   4.266   2.201  15.806  0.0481 -0.3036 -0.3451
15389TIP3    H167658   4.185   2.208  15.856 -0.1382 -0.1954 -0.6610
15389TIP3    H267659   4.333   2.240  15.862 -0.1332 -0.3211 -0.1185
15390TIP3   OH267660   6.118   0.865   1.137 -0.2632  0.5554 -0.0167
15390TIP3    H167661   6.144   0.813   1.213 -0.6548  0.0782 -0.2095
15390TIP3    H267662   6.033   0.901   1.160 -0.9569 -0.6036 -0.7194
15391TIP3   OH267663   0.688   2.473  16.774 -0.4140 -0.5812  0.1116
15391TIP3    H167664   0.631   2.533  16.725  0.4634 -0.2340 -0.4992
15391TIP3    H267665   0.707   2.403  16.712  1.4176  0.3008 -0.4035
15392TIP3   OH267666   0.724   1.432   4.179 -0.1953  0.1061  0.4128
15392TIP3    H167667   0.775   1.499   4.226 -0.1461 -1.5463  2.8820
15392TIP3    H267668   0.634   1.444   4.210  0.0832 -1.9810  2.3330
15393TIP3   OH267669   3.125   0.392  14.005 -0.3989 -0.2986  0.1063
15393TIP3    H167670   3.101   0.319  13.948 -1.6158  1.4050 -1.6849
15393TIP3    H267671   3.123   0.355  14.093 -2.0603 -2.1690 -0.6361
15394TIP3   OH267672   5.515   3.615   4.190  0.0460 -0.4403  0.3330
15394TIP3    H167673   5.444   3.622   4.254 -0.1638  0.3258  0.0212
15394TIP3    H267674   5.490   3.542   4.134 -1.5623  1.0837 -1.0559
15395TIP3   OH267675   4.630   4.358  11.603  0.6960  0.4169 -0.7530
15395TIP3    H167676   4.556   4.387  11.656  0.1951 -0.0574 -1.1864
15395TIP3    H267677   4.608   4.269  11.577  1.6761  0.0623 -0.4238
15396TIP3   OH267678   0.434   4.492  13.487  0.4484 -0.5361  0.6493
15396TIP3    H167679   0.513   4.440  13.503  1.0225  0.2186  0.3816
15396TIP3    H267680   0.362   4.430  13.494  1.1802 -1.6166 -0.8025
15397TIP3   OH267681   0.529   2.575   0.250  0.3961  0.1547 -0.3562
15397TIP3    H167682   0.447   2.592   0.203  0.5932  0.6368 -0.5236
15397TIP3    H267683   0.567   2.500   0.205  1.4595  1.6755 -2.1170
15398TIP3   OH267684   1.967   4.837  15.350 -0.4549 -0.8904  0.0335
15398TIP3    H167685   1.948   4.800  15.264  2.6681 -2.0151 -0.3185
15398TIP3    H267686   1.905   4.793  15.409 -1.4309 -1.4750 -1.3778
15399TIP3   OH267687   2.794   4.889   5.412 -0.0079  0.1224 -0.3434
15399TIP3    H167688   2.824   4.913   5.324 -1.0823 -0.8052 -0.9930
15399TIP3    H267689   2.709   4.934   5.421  0.7919  1.4786  0.8590
15400TIP3   OH267690   1.703   2.465  16.756  0.0001 -0.0355  0.6684
15400TIP3    H167691   1.763   2.407  16.708  0.1581  0.6581  0.0036
15400TIP3    H267692   1.761   2.522  16.806 -0.0616  1.0515 -0.4627
15401TIP3   OH267693   2.399   4.647  14.009  0.8461 -0.0114  0.2772
15401TIP3    H167694   2.327   4.584  14.012  0.7384 -0.0714 -2.0606
15401TIP3    H267695   2.446   4.633  14.092 -1.8598  0.1649  1.9775
15402TIP3   OH267696   4.370   4.231  15.783 -0.3123  0.4230 -0.1281
15402TIP3    H167697   4.391   4.269  15.869 -1.4407  2.3831 -0.6598
15402TIP3    H267698   4.278   4.206  15.791  0.0651 -1.1063 -0.2209
15403TIP3   OH267699   5.596   4.397   5.753 -0.4080  0.2390 -0.2357
15403TIP3    H167700   5.593   4.301   5.758 -0.6877  0.2369 -0.4414
15403TIP3    H267701   5.559   4.426   5.836 -1.2279  0.1722 -0.5668
15404TIP3   OH267702   5.501   4.774   0.007  0.7639  0.4721 -0.0266
15404TIP3    H167703   5.556   4.766  -0.071 -1.8609 -0.3958 -1.9169
15404TIP3    H267704   5.452   4.856  -0.007 -0.4689 -0.2139  0.1737
15405TIP3   OH267705   2.630   2.338   2.072  0.2011  0.3038 -0.2689
15405TIP3    H167706   2.677   2.257   2.053  1.3154  0.7824  0.3513
15405TIP3    H267707   2.570   2.348   1.998 -0.2680 -1.2970 -0.1411
15406TIP3   OH267708   1.750   6.383   5.251 -0.3712  0.2671  0.5263
15406TIP3    H167709   1.784   6.304   5.210  1.1707  1.3209 -0.3828
15406TIP3    H267710   1.716   6.354   5.336 -1.8944 -1.6727 -0.6684
15407TIP3   OH267711   2.216   6.115   3.391 -0.3365  0.4971  0.0960
15407TIP3    H167712   2.256   6.155   3.468  1.3695  0.8227 -0.9173
15407TIP3    H267713   2.208   6.022   3.414  0.3937  0.5452  0.5773
15408TIP3   OH267714   4.535   4.590  16.932  0.5536  0.3470 -0.2101
15408TIP3    H167715   4.527   4.563  17.024  0.9724  2.3723  0.4688
15408TIP3    H267716   4.570   4.512  16.887 -1.1779 -1.2165  1.0029
15409TIP3   OH267717   4.034   1.831   3.080 -0.3653  0.5116 -0.1891
15409TIP3    H167718   3.964   1.890   3.107 -1.8873  0.7881 -4.0566
15409TIP3    H267719   4.114   1.883   3.087 -1.1981  1.8360 -0.1776
15410TIP3   OH267720   4.197   0.150  15.332 -0.9432  0.0927  0.6491
15410TIP3    H167721   4.256   0.077  15.317 -1.5265 -0.1029 -0.8141
15410TIP3    H267722   4.240   0.202  15.401 -0.4836 -1.5472  1.6520
15411TIP3   OH267723   3.684   6.667   6.125  0.3411  0.0389 -0.6127
15411TIP3    H167724   3.681   6.572   6.110  2.2799  0.0340 -1.2645
15411TIP3    H267725   3.642   6.705   6.048 -1.7449 -0.2795  0.3062
15412TIP3   OH267726   5.031   3.400  13.454  0.0288  0.0108 -0.0459
15412TIP3    H167727   5.091   3.326  13.464 -0.1253 -0.0463  0.4947
15412TIP3    H267728   5.085   3.478  13.468  0.2940  0.0322 -1.0973
15413TIP3   OH267729   1.386   4.218   3.686 -0.3312  0.1844 -0.3488
15413TIP3    H167730   1.459   4.190   3.631 -0.0766 -0.5891  0.3546
15413TIP3    H267731   1.339   4.283   3.633  0.9280  0.7951 -0.7759
15414TIP3   OH267732   0.824   1.687   3.730  0.2246 -0.2400  0.1547
15414TIP3    H167733   0.812   1.598   3.696 -2.7848  0.0473  0.2337
15414TIP3    H267734   0.806   1.680   3.823  1.6331  0.2059  0.4871
15415TIP3   OH267735   5.227   4.973   2.641  0.1847  0.2135  0.0518
15415TIP3    H167736   5.231   5.000   2.549 -0.0693  1.0695  0.2804
15415TIP3    H267737   5.135   4.950   2.655  0.4471 -1.0844 -0.2116
15416TIP3   OH267738   3.482   0.325   5.845 -0.4591  0.5378 -0.3900
15416TIP3    H167739   3.400   0.373   5.835 -0.1304  1.3010  0.4457
15416TIP3    H267740   3.537   0.356   5.772 -1.1281 -0.5006 -1.3778
15417TIP3   OH267741   0.949   4.131  16.563 -0.2574 -0.0075 -0.5458
15417TIP3    H167742   0.892   4.146  16.639  1.5393  0.0166  0.8737
15417TIP3    H267743   0.893   4.086  16.500 -2.4432  1.9945 -0.1548
15418TIP3   OH267744   4.490   2.206  16.059 -0.2507 -0.1665  0.4112
15418TIP3    H167745   4.525   2.269  16.122 -1.0268 -1.0936  1.8142
15418TIP3    H267746   4.429   2.152  16.110 -0.9881 -0.8843 -1.1608
15419TIP3   OH267747   4.867   2.614   3.382  0.3733  0.2637  0.5363
15419TIP3    H167748   4.945   2.622   3.328  0.9860 -1.2957  1.1246
15419TIP3    H267749   4.810   2.686   3.354  1.1569  0.2039 -1.3241
15420TIP3   OH267750   3.275   4.539  15.433  0.0963 -0.0905 -0.1805
15420TIP3    H167751   3.369   4.547  15.417 -0.2150 -0.9848 -2.9028
15420TIP3    H267752   3.252   4.452  15.401 -1.4482 -0.5152  1.8642
15421TIP3   OH267753   5.320   2.960   1.509  0.0392 -0.2042 -0.3107
15421TIP3    H167754   5.320   2.961   1.605 -0.9048 -0.7717 -0.3018
15421TIP3    H267755   5.267   2.884   1.485 -2.1475  1.5369 -1.2926
15422TIP3   OH267756   2.740   3.765  13.560 -0.4642  0.5453 -0.2943
15422TIP3    H167757   2.801   3.773  13.486  0.5253  1.5308  0.5913
15422TIP3    H267758   2.768   3.833  13.621 -0.3599 -1.1450  1.6280
15423TIP3   OH267759   5.475   2.402   2.794  0.0444  0.1397 -0.7656
15423TIP3    H167760   5.433   2.354   2.866  3.1725  0.1935  1.3326
15423TIP3    H267761   5.444   2.360   2.715 -2.9536 -0.4873  0.6080
15424TIP3   OH267762   6.391   5.839   5.299  0.4304  0.4572  0.6098
15424TIP3    H167763   6.326   5.799   5.357 -0.6109  1.4809  0.1914
15424TIP3    H267764   6.474   5.800   5.326 -0.2580 -0.3663  1.6302
15425TIP3   OH267765   1.937   1.121   2.707  0.3580 -0.4151  0.0377
15425TIP3    H167766   1.885   1.056   2.660 -2.2584  2.6109 -1.6430
15425TIP3    H267767   1.887   1.140   2.786  0.1490  0.7636 -0.3597
15426TIP3   OH267768   2.342   5.082   3.392  0.2048  0.1371  0.2891
15426TIP3    H167769   2.370   5.075   3.483  0.7943  2.8230  0.3783
15426TIP3    H267770   2.248   5.103   3.397  0.3841  0.9601  0.3227
15427TIP3   OH267771   0.155   0.431  15.103  0.2023  0.0051  0.7600
15427TIP3    H167772   0.244   0.420  15.069 -0.2952 -1.2948 -0.1949
15427TIP3    H267773   0.165   0.431  15.199  1.2197 -0.1693  0.6592
15428TIP3   OH267774   6.767   4.810  16.445 -0.2760  0.1000 -0.0338
15428TIP3    H167775   6.712   4.758  16.385 -0.8762 -0.0427  0.6219
15428TIP3    H267776   6.711   4.884  16.470 -0.8509 -0.9736  2.0256
15429TIP3   OH267777   4.035   4.173  15.082 -0.4657 -0.3063  0.2026
15429TIP3    H167778   4.003   4.263  15.084  1.0631  0.2530  0.8644
15429TIP3    H267779   4.040   4.151  14.989 -1.0543  0.2043  0.0456
15430TIP3   OH267780   3.359   1.873   4.303 -0.4774 -0.3110  0.2188
15430TIP3    H167781   3.290   1.810   4.283 -0.3303  0.0230 -1.5434
15430TIP3    H267782   3.333   1.953   4.256  0.7442  0.0459  0.1117
15431TIP3   OH267783   1.452   6.419   2.339  0.5857  0.0029  0.0149
15431TIP3    H167784   1.427   6.350   2.277 -0.4980  1.0298 -0.7363
15431TIP3    H267785   1.525   6.382   2.389 -0.7817 -2.1369  0.5054
15432TIP3   OH267786   1.073   6.325   5.242 -0.8558 -0.2215 -0.1627
15432TIP3    H167787   1.003   6.346   5.303 -0.7486 -0.6894  0.1218
15432TIP3    H267788   1.153   6.356   5.285 -0.7525 -0.7599  0.0453
15433TIP3   OH267789   1.689   5.159   0.108  0.0651  0.1747  0.8675
15433TIP3    H167790   1.626   5.088   0.119 -1.8939  1.8698  1.4574
15433TIP3    H267791   1.693   5.173   0.013 -1.5777  0.9071  0.8681
15434TIP3   OH267792   3.861   1.000   6.030  0.1763 -0.9813  0.6139
15434TIP3    H167793   3.924   1.001   6.102 -0.1454 -0.4267  0.8939
15434TIP3    H267794   3.838   1.092   6.017 -1.4259 -1.2473  1.2744
15435TIP3   OH267795   6.767   5.291   1.675 -0.3161 -0.3013  0.2076
15435TIP3    H167796   6.805   5.379   1.665 -0.0492 -0.0810  2.5770
15435TIP3    H267797   6.682   5.298   1.631 -0.1729  1.0603  0.0760
15436TIP3   OH267798   1.715   5.559  10.419  1.0960 -0.0556  0.2187
15436TIP3    H167799   1.658   5.633  10.438  1.7395  0.1870  1.2836
15436TIP3    H267800   1.796   5.600  10.388  1.5963 -0.2755  1.1956
15437TIP3   OH267801   6.394   1.836   2.348 -0.4837  0.6758 -0.4550
15437TIP3    H167802   6.301   1.818   2.331 -0.5054  1.1678 -0.8880
15437TIP3    H267803   6.427   1.871   2.265  0.7001 -1.7739 -1.1117
15438TIP3   OH267804   6.644   5.101  15.940  0.1638  0.1666  0.1725
15438TIP3    H167805   6.683   5.189  15.937 -0.9531  0.6613 -1.0591
15438TIP3    H267806   6.624   5.087  16.033 -1.3295  2.0217  0.1966
15439TIP3   OH267807   0.837   1.836   4.599 -0.0305 -0.0715 -0.0950
15439TIP3    H167808   0.826   1.820   4.693  0.1215 -0.0019 -0.0656
15439TIP3    H267809   0.803   1.925   4.587  0.4907  0.1411 -0.0054
15440TIP3   OH267810   3.949   3.385   0.686 -0.7858 -0.1963  0.0940
15440TIP3    H167811   3.909   3.359   0.768  0.0301 -0.6738  0.3507
15440TIP3    H267812   3.878   3.427   0.636 -1.0495  1.0581  1.4545
15441TIP3   OH267813   0.355   4.977  14.139 -0.2483 -0.1411 -0.0906
15441TIP3    H167814   0.341   4.991  14.046 -0.1094 -0.0658 -0.1019
15441TIP3    H267815   0.344   5.064  14.178 -0.2936 -0.1698 -0.0404
15442TIP3   OH267816   2.888   1.127   4.437 -0.0047  0.2074 -0.1551
15442TIP3    H167817   2.819   1.157   4.495  1.5917  1.0523  1.3988
15442TIP3    H267818   2.896   1.033   4.456 -1.5657 -0.2238 -1.3425
15443TIP3   OH267819   3.996   0.442   2.999 -0.3031 -0.3588  0.3683
15443TIP3    H167820   4.034   0.483   3.077  1.2910 -0.8243 -0.1292
15443TIP3    H267821   3.992   0.349   3.021 -0.0677 -0.4605 -0.0152
15444TIP3   OH267822   0.004   4.088  16.875  0.2747  0.0406  0.3750
15444TIP3    H167823   0.044   4.033  16.808 -2.1584  0.7574 -1.8533
15444TIP3    H267824   0.008   4.177  16.840 -1.5483  0.3631  0.8420
15445TIP3   OH267825   4.920   1.047   4.316  0.5144 -0.4659  0.0360
15445TIP3    H167826   4.982   1.119   4.330  0.2350  0.2832 -2.1895
15445TIP3    H267827   4.976   0.972   4.294  0.7485  0.3953 -2.7592
15446TIP3   OH267828   3.667   0.079   1.693  0.2589  0.0872 -0.3515
15446TIP3    H167829   3.647   0.125   1.775 -1.7634 -0.3449 -0.5452
15446TIP3    H267830   3.742   0.126   1.657  0.0484  1.4249  0.8493
15447TIP3   OH267831   4.690   3.073   4.278 -0.9046 -0.1363 -0.0044
15447TIP3    H167832   4.708   2.980   4.290 -1.3699 -0.5151 -1.8338
15447TIP3    H267833   4.595   3.080   4.287 -1.2935 -0.4586 -2.9058
15448TIP3   OH267834   5.293   0.505   0.035 -0.1018 -0.1038 -0.0317
15448TIP3    H167835   5.321   0.596   0.025 -1.0621  0.2037 -0.0331
15448TIP3    H267836   5.308   0.485   0.127  0.2641  0.0039 -0.0676
15449TIP3   OH267837   6.077   1.363   1.296 -0.2734  0.7076 -0.2502
15449TIP3    H167838   6.057   1.338   1.206  0.8106  0.4906 -0.4455
15449TIP3    H267839   6.150   1.425   1.289  1.0554 -0.6782  0.5344
15450TIP3   OH267840   2.174   2.010  14.696 -0.0390 -0.0539 -0.1320
15450TIP3    H167841   2.215   1.926  14.681  1.1224  0.8333 -2.3764
15450TIP3    H267842   2.091   1.989  14.740  1.1948 -2.1343  1.3587
15451TIP3   OH267843   1.947   0.678  11.054 -0.2103  0.4116  0.0924
15451TIP3    H167844   2.025   0.624  11.066  0.3334  1.0909 -0.2709
15451TIP3    H267845   1.980   0.768  11.061 -0.8845  0.7104 -0.5000
15452TIP3   OH267846   2.958   1.465  16.367 -0.0954  0.1777 -0.2996
15452TIP3    H167847   2.967   1.466  16.462  0.5419 -0.2244 -0.3523
15452TIP3    H267848   2.948   1.373  16.344 -0.3333  0.2796 -0.6179
15453TIP3   OH267849   6.494   3.216  12.727  0.6231  0.1705 -0.0131
15453TIP3    H167850   6.429   3.205  12.658 -0.4720  0.4962  0.9359
15453TIP3    H267851   6.577   3.230  12.680 -0.0075 -0.0877 -1.2441
15454TIP3   OH267852   3.257   3.446   3.805 -0.6563  0.2753 -0.1706
15454TIP3    H167853   3.297   3.406   3.728  2.4188 -1.7850  2.2122
15454TIP3    H267854   3.195   3.380   3.837 -0.7982  0.4475 -0.0924
15455TIP3   OH267855   6.839   3.096   2.372 -0.2325 -0.5958  0.2888
15455TIP3    H167856   6.892   3.064   2.445  0.5258 -0.7427 -0.3063
15455TIP3    H267857   6.827   3.019   2.316  1.6920  0.1165 -1.2064
15456TIP3   OH267858   5.799   5.361   4.794 -0.0446  0.5828 -0.2676
15456TIP3    H167859   5.772   5.356   4.885 -1.3693  2.3682 -0.4848
15456TIP3    H267860   5.883   5.406   4.796 -0.8010  2.0533  0.0336
15457TIP3   OH267861   1.849   1.652   5.223 -0.3351  0.0988 -0.2321
15457TIP3    H167862   1.929   1.644   5.171 -0.3148 -1.9925  0.0334
15457TIP3    H267863   1.815   1.739   5.202  1.2858  0.5046 -1.3710
15458TIP3   OH267864   4.817   1.529   1.359  0.2050 -0.2493 -0.4687
15458TIP3    H167865   4.829   1.509   1.266 -0.6694  0.0194 -0.6525
15458TIP3    H267866   4.746   1.472   1.387 -0.5368  0.7012 -0.3480
15459TIP3   OH267867   4.676   1.657  15.865  0.3319 -0.2177 -0.3620
15459TIP3    H167868   4.696   1.611  15.784  2.1024  0.8364 -0.5720
15459TIP3    H267869   4.653   1.588  15.927 -0.1550 -1.1078 -1.5027
15460TIP3   OH267870   4.022   1.240   3.423  0.5560 -0.3568  0.0899
15460TIP3    H167871   3.978   1.159   3.397  1.8277 -1.7040  1.8768
15460TIP3    H267872   3.952   1.297   3.454 -0.0942 -2.2728  2.4477
15461TIP3   OH267873   1.419   2.747  14.531  0.3411 -0.0121  0.1651
15461TIP3    H167874   1.379   2.688  14.467 -0.5267 -0.1950  0.8652
15461TIP3    H267875   1.412   2.700  14.615  1.0200  0.4347  0.4857
15462TIP3   OH267876   6.267   1.779  13.148  0.2016  0.5632 -0.0469
15462TIP3    H167877   6.303   1.719  13.213  1.8313  1.7593  0.2012
15462TIP3    H267878   6.217   1.843  13.199 -1.1589 -0.2531 -0.2795
15463TIP3   OH267879   0.671   6.691   0.843  0.1422  0.1264 -0.5556
15463TIP3    H167880   0.685   6.699   0.937  3.0602  0.6256 -0.9339
15463TIP3    H267881   0.634   6.603   0.832 -0.3134  0.0828  1.0418
15464TIP3   OH267882   4.403   2.156   6.031 -0.1813  0.8729 -0.0429
15464TIP3    H167883   4.339   2.153   6.102 -1.7880  2.1340 -1.3570
15464TIP3    H267884   4.357   2.120   5.956  1.8704 -1.5692 -0.2881
15465TIP3   OH267885   5.429   6.131   0.350  0.1422  0.1644 -0.2692
15465TIP3    H167886   5.376   6.189   0.405 -0.1660  0.1981 -0.5993
15465TIP3    H267887   5.496   6.097   0.409  0.5555  1.1381 -0.1586
15466TIP3   OH267888   2.154   1.976   1.647  0.2739  0.2093 -0.1234
15466TIP3    H167889   2.211   1.904   1.620 -1.4857 -0.9534 -0.8581
15466TIP3    H267890   2.091   1.985   1.576 -0.5642  1.3759  0.7323
15467TIP3   OH267891   6.173   3.178   0.998  1.0297 -0.1006 -0.0086
15467TIP3    H167892   6.195   3.094   1.038  1.7565 -0.2949 -0.7662
15467TIP3    H267893   6.168   3.159   0.904 -0.1110  0.4433 -0.0655
15468TIP3   OH267894   5.549   2.316  10.669 -0.3765  0.4039  0.3558
15468TIP3    H167895   5.558   2.268  10.587  0.2527  1.6302 -0.3148
15468TIP3    H267896   5.566   2.250  10.737 -1.9673 -0.8735 -0.4241
15469TIP3   OH267897   6.209   3.722   4.801  0.0993  0.2292  0.3181
15469TIP3    H167898   6.220   3.794   4.740  1.1255  1.0838  1.4723
15469TIP3    H267899   6.295   3.681   4.806  0.0781  0.2823  1.3191
15470TIP3   OH267900   0.798   6.792   5.356  0.1530  0.3916  0.9921
15470TIP3    H167901   0.860   6.732   5.396  0.3142  1.2926  2.1308
15470TIP3    H267902   0.715   6.777   5.402 -0.0463  0.3922  0.6435
15471TIP3   OH267903   4.094   4.361   6.688 -0.2716 -0.9370 -1.0307
15471TIP3    H167904   4.114   4.361   6.595  0.9415 -3.3254 -0.8444
15471TIP3    H267905   4.179   4.361   6.731 -0.8193  0.4795  0.1108
15472TIP3   OH267906   2.281   0.100  11.709  0.9667  0.3394  0.4535
15472TIP3    H167907   2.347   0.088  11.640 -0.0561 -0.8670 -0.3594
15472TIP3    H267908   2.219   0.163  11.671  0.8136  0.2680  0.5857
15473TIP3   OH267909   3.862   0.909   1.425 -0.4485  0.1105  0.1423
15473TIP3    H167910   3.846   0.949   1.510  2.4896 -0.1632  0.9617
15473TIP3    H267911   3.901   0.824   1.446 -0.7030 -0.4355 -1.4858
15474TIP3   OH267912   0.994   0.550  12.228 -0.5099 -0.2003  0.1911
15474TIP3    H167913   0.941   0.518  12.155  1.2343  0.3818 -1.3947
15474TIP3    H267914   0.957   0.636  12.248  0.3554  0.6182 -1.5351
15475TIP3   OH267915   2.733   3.813  14.780  0.3213 -0.0948 -0.2576
15475TIP3    H167916   2.685   3.809  14.697 -0.0131  1.2074 -0.1467
15475TIP3    H267917   2.825   3.802  14.756  0.0611 -2.0498 -0.5363
15476TIP3   OH267918   4.684   6.062   3.991 -0.3812  0.5062 -0.3677
15476TIP3    H167919   4.655   6.139   4.040 -0.1078  1.3099 -1.4277
15476TIP3    H267920   4.603   6.021   3.961 -0.5714 -0.2609  1.1110
15477TIP3   OH267921   0.044   3.209  12.120  1.0553 -0.6535 -0.5129
15477TIP3    H167922   0.001   3.261  12.051 -1.1556  0.6634  1.6877
15477TIP3    H267923   0.087   3.274  12.176  0.2506 -1.3522  0.9809
15478TIP3   OH267924   2.690   1.487   1.389 -0.2272  0.0247 -0.0222
15478TIP3    H167925   2.707   1.525   1.303 -0.3961 -2.2673 -1.1551
15478TIP3    H267926   2.599   1.456   1.383 -0.3217  0.0637  1.0888
15479TIP3   OH267927   1.146   6.547   4.408  0.2216  0.2665 -0.2055
15479TIP3    H167928   1.230   6.559   4.453  0.1948  0.8423 -0.3054
15479TIP3    H267929   1.103   6.633   4.412 -0.1233  0.1217 -0.6371
15480TIP3   OH267930   4.994   3.180   2.466  0.0410 -0.4327 -0.3189
15480TIP3    H167931   4.984   3.205   2.557  1.1798  2.4901 -0.8915
15480TIP3    H267932   5.085   3.150   2.458  0.5335  1.1266 -0.8194
15481TIP3   OH267933   6.693   4.516  15.119 -0.5919 -0.0812  0.8111
15481TIP3    H167934   6.637   4.513  15.197 -0.8354  1.9944  0.7520
15481TIP3    H267935   6.701   4.609  15.098  3.1354 -0.2107  0.9995
15482TIP3   OH267936   6.309   1.589   4.947 -0.4148 -0.2667  0.8370
15482TIP3    H167937   6.281   1.520   4.886  0.1530 -0.0100  0.2814
15482TIP3    H267938   6.399   1.566   4.969 -0.3116  0.1505  0.8558
15483TIP3   OH267939   5.256   6.039   5.300 -0.0169  0.3428  0.0292
15483TIP3    H167940   5.319   5.967   5.304  0.2877  0.4194 -2.2222
15483TIP3    H267941   5.293   6.100   5.237 -1.7416  1.0049 -0.4083
15484TIP3   OH267942   5.763   5.468  13.315  0.7187 -0.0652  0.3066
15484TIP3    H167943   5.757   5.400  13.247 -0.9090  0.5578 -0.2280
15484TIP3    H267944   5.806   5.541  13.272  1.1823 -0.2551  0.4477
15485TIP3   OH267945   1.664   2.797   2.096  0.2086  0.5436 -0.0659
15485TIP3    H167946   1.629   2.811   2.184 -2.3581 -0.3656 -0.8632
15485TIP3    H267947   1.741   2.855   2.092 -0.4349  1.6978  2.2653
15486TIP3   OH267948   1.278   4.939  16.982 -0.4141 -0.0223  0.1144
15486TIP3    H167949   1.350   4.994  16.951 -1.8247  0.4657 -2.7323
15486TIP3    H267950   1.244   4.984  17.059  0.3515  1.4843 -0.3946
15487TIP3   OH267951   3.990   2.634  13.883 -0.0595  0.4434  0.1516
15487TIP3    H167952   3.910   2.683  13.901 -0.5295 -0.7205  1.4561
15487TIP3    H267953   4.061   2.698  13.892 -0.8523  1.8161 -2.3808
15488TIP3   OH267954   4.005   1.127  14.089  0.0575 -0.1700  0.6969
15488TIP3    H167955   3.913   1.130  14.063  0.5636  0.4629 -1.1476
15488TIP3    H267956   4.017   1.204  14.145 -0.8055 -0.9775  2.0523
15489TIP3   OH267957   4.799   0.747   4.564 -0.1456  0.0774 -0.1402
15489TIP3    H167958   4.886   0.732   4.527 -0.0336  1.2248 -0.3992
15489TIP3    H267959   4.807   0.830   4.610 -1.0750  0.1430 -0.0739
15490TIP3   OH267960   2.065   0.485   4.046 -0.0001  0.5892 -0.0426
15490TIP3    H167961   1.991   0.525   4.092 -0.4347  0.3935 -0.5613
15490TIP3    H267962   2.136   0.549   4.054  0.2261  0.1888  1.6510
15491TIP3   OH267963   4.149   3.130   0.910  0.1010  0.2980 -0.0434
15491TIP3    H167964   4.210   3.058   0.927 -1.1704 -0.5555  1.0549
15491TIP3    H267965   4.185   3.174   0.833  1.5500 -0.7810 -0.0164
15492TIP3   OH267966   4.538   6.618   2.152 -0.6169 -0.6491  0.1956
15492TIP3    H167967   4.494   6.698   2.179 -0.3092  0.1863 -1.6154
15492TIP3    H267968   4.507   6.551   2.213 -2.6037  0.3871  0.3871
15493TIP3   OH267969   3.340   2.599  12.170  0.1015 -0.8957 -0.1808
15493TIP3    H167970   3.392   2.678  12.159 -0.0442 -0.9908 -1.7800
15493TIP3    H267971   3.250   2.631  12.175  0.2188 -0.7683  2.1203
15494TIP3   OH267972   5.154   3.265  14.948 -0.1447  0.9105  0.0623
15494TIP3    H167973   5.174   3.174  14.928 -1.4843  0.5247  0.3747
15494TIP3    H267974   5.063   3.277  14.921  0.2869  2.4330 -0.8402
15495TIP3   OH267975   1.486   3.842   2.113  0.5603 -0.5900  0.0077
15495TIP3    H167976   1.443   3.845   2.199  2.2037  2.6997  0.8884
15495TIP3    H267977   1.414   3.848   2.050 -0.5523 -0.3440  1.2535
15496TIP3   OH267978   2.724   5.418   3.328 -0.6673  0.4077  0.2168
15496TIP3    H167979   2.653   5.410   3.392  0.7702  1.0152  1.9720
15496TIP3    H267980   2.793   5.466   3.374  0.3050  1.2069 -1.9349
15497TIP3   OH267981   1.011   3.523   3.746 -0.3801 -0.1882 -0.2888
15497TIP3    H167982   1.004   3.566   3.832 -0.6408  0.9859 -0.8792
15497TIP3    H267983   0.927   3.541   3.703 -0.5637 -1.4561 -0.5005
15498TIP3   OH267984   5.855   1.331   3.197  0.2147  0.0560 -0.3839
15498TIP3    H167985   5.785   1.306   3.136  0.1833 -0.4269 -0.1550
15498TIP3    H267986   5.810   1.351   3.279 -0.0176  3.1388 -1.1440
15499TIP3   OH267987   0.270   1.511  15.088 -0.1267 -0.2454  0.1193
15499TIP3    H167988   0.330   1.441  15.113  1.2631  0.2227 -1.6364
15499TIP3    H267989   0.315   1.591  15.114 -0.9344  0.0607  0.6073
15500TIP3   OH267990   3.027   6.052   2.237 -0.3055  0.1221 -0.8201
15500TIP3    H167991   3.105   6.063   2.182 -0.8698  0.4669 -1.5632
15500TIP3    H267992   3.058   6.075   2.325  0.9123 -1.6075 -0.7383
15501TIP3   OH267993   0.169   4.811   4.832 -0.2640  0.3603 -0.4961
15501TIP3    H167994   0.085   4.853   4.812  0.8052  2.0790 -1.6188
15501TIP3    H267995   0.217   4.876   4.883  0.9123 -0.0603 -1.0382
15502TIP3   OH267996   1.865   4.713   1.304 -0.2073 -0.1646 -0.3907
15502TIP3    H167997   1.771   4.720   1.293 -0.0185  0.4006 -1.8282
15502TIP3    H267998   1.876   4.650   1.375 -1.6523 -0.5018 -0.4347
15503TIP3   OH267999   1.793   4.582  16.713  0.0857 -0.1551 -0.1002
15503TIP3    H168000   1.875   4.533  16.711 -0.2670 -0.7390 -0.3935
15503TIP3    H268001   1.818   4.672  16.692  0.4323 -0.6456 -1.9309
15504TIP3   OH268002   2.514   2.995  14.536  0.0197  0.3406  0.2834
15504TIP3    H168003   2.571   2.922  14.516  1.6298  1.4942  0.4331
15504TIP3    H268004   2.472   3.017  14.453  1.0525  0.4961 -0.2052
15505TIP3   OH268005   4.325   6.023  14.520  0.3490 -0.1748  0.0899
15505TIP3    H168006   4.290   6.100  14.475  2.0575 -0.3329 -1.6146
15505TIP3    H268007   4.281   5.949  14.478  1.8184 -0.3122 -1.3073
15506TIP3   OH268008   3.616   6.399   2.904 -0.1025  0.5484  0.1037
15506TIP3    H168009   3.561   6.322   2.891  0.3150  0.2314  0.2101
15506TIP3    H268010   3.684   6.392   2.837 -0.0005  0.7681  0.1833
15507TIP3   OH268011   3.954   5.733   4.919 -0.9095 -0.3615 -0.8279
15507TIP3    H168012   3.885   5.718   4.984 -1.2096  1.3853 -0.6782
15507TIP3    H268013   3.926   5.685   4.842 -2.2142  0.1429 -0.7015
15508TIP3   OH268014   6.702   6.470  16.629  0.1662  0.5355  0.2226
15508TIP3    H168015   6.736   6.516  16.706  1.1220 -0.2600  0.2899
15508TIP3    H268016   6.609   6.456  16.650  0.1329  1.3946  0.6987
15509TIP3   OH268017   6.100   2.478  13.780 -0.0802 -0.1439  0.7019
15509TIP3    H168018   6.031   2.538  13.808 -1.1641 -1.2716  0.5607
15509TIP3    H268019   6.058   2.392  13.780  1.9041 -1.2310  2.7282
15510TIP3   OH268020   1.911   0.852  12.928  0.6446 -0.3751  0.0289
15510TIP3    H168021   1.878   0.823  12.843 -0.2575  1.3557 -0.2596
15510TIP3    H268022   1.991   0.900  12.908  0.3009  0.2441  0.1281
15511TIP3   OH268023   0.969   4.756  11.419 -0.3120  0.1881  0.1093
15511TIP3    H168024   0.883   4.713  11.426 -1.0620  1.4035 -1.0533
15511TIP3    H268025   0.986   4.789  11.507  0.2603 -2.3424  1.0260
15512TIP3   OH268026   5.628   3.124  13.214  0.0180 -0.0658  0.3251
15512TIP3    H168027   5.592   3.055  13.158 -0.4443  0.2750  0.1956
15512TIP3    H268028   5.668   3.186  13.154  2.2074 -1.1820  0.5364
15513TIP3   OH268029   1.533   5.721   1.548  0.1261 -0.3103  0.2138
15513TIP3    H168030   1.498   5.759   1.468  0.6496 -0.3065 -0.0133
15513TIP3    H268031   1.513   5.786   1.616 -0.8380 -0.5738  0.1990
15514TIP3   OH268032   1.669   5.562   6.137  0.1135  0.0423  0.0041
15514TIP3    H168033   1.705   5.564   6.048 -0.7458 -0.6960 -0.3857
15514TIP3    H268034   1.574   5.573   6.125 -0.0613 -0.4716  0.7796
15515TIP3   OH268035   0.610   1.555   3.331  0.1184 -0.0526 -0.4258
15515TIP3    H168036   0.640   1.464   3.333  0.2465 -0.0482  2.5932
15515TIP3    H268037   0.689   1.606   3.313  0.8456 -0.3736  1.6234
15516TIP3   OH268038   4.703   1.748  12.070  0.1586 -0.0161 -0.1487
15516TIP3    H168039   4.690   1.667  12.120  1.1995 -0.3880 -0.4704
15516TIP3    H268040   4.725   1.719  11.982 -0.6701  0.6403 -0.5846
15517TIP3   OH268041   1.207   4.158   4.535 -0.0121  0.1061 -0.1347
15517TIP3    H168042   1.128   4.199   4.569 -0.5382  0.9920 -2.2809
15517TIP3    H268043   1.178   4.072   4.504 -0.0268  0.2273 -0.4576
15518TIP3   OH268044   5.525   2.673   2.898  0.0970 -0.2943  0.1599
15518TIP3    H168045   5.537   2.766   2.882 -0.6497 -0.1445  0.4197
15518TIP3    H268046   5.493   2.637   2.815 -1.3854  0.0296  0.5577
15519TIP3   OH268047   1.763   3.993   5.249 -0.4666  0.0637 -0.0163
15519TIP3    H168048   1.819   3.931   5.297  1.1044  0.0331 -1.7634
15519TIP3    H268049   1.780   4.077   5.291  1.7858  0.2468 -1.1510
15520TIP3   OH268050   6.160   6.506   2.552  0.1559  0.2645 -0.1561
15520TIP3    H168051   6.244   6.473   2.586  0.2574  1.2391  0.5682
15520TIP3    H268052   6.183   6.551   2.471 -0.1815 -2.7286 -2.0499
15521TIP3   OH268053   4.129   5.862   1.747 -0.0730  0.1427 -0.2870
15521TIP3    H168054   4.082   5.922   1.805 -1.3753 -0.5570 -0.5972
15521TIP3    H268055   4.074   5.856   1.669  1.2069  0.3553 -1.2444
15522TIP3   OH268056   4.676   6.258  15.689 -0.1427 -0.4581 -0.2184
15522TIP3    H168057   4.690   6.339  15.641 -0.1225 -0.7770 -0.7582
15522TIP3    H268058   4.662   6.286  15.780  2.0012  0.0235  0.0263
15523TIP3   OH268059   3.824   3.312   3.971  0.1182 -0.1378  0.7011
15523TIP3    H168060   3.737   3.303   3.934  0.0422  1.7551  0.3141
15523TIP3    H268061   3.878   3.250   3.922 -1.0526 -1.6546  1.2457
15524TIP3   OH268062   6.390   5.716  11.037  0.0226  0.5091  0.5526
15524TIP3    H168063   6.353   5.789  10.989 -0.7621 -0.3079 -0.1201
15524TIP3    H268064   6.358   5.638  10.992 -0.0949 -0.2779  1.9244
15525TIP3   OH268065   2.899   3.580   4.781  0.2029  0.0327  0.2707
15525TIP3    H168066   2.907   3.662   4.734  1.0801 -0.6955 -0.9173
15525TIP3    H268067   2.808   3.553   4.768  0.2352  0.2221 -0.3603
15526TIP3   OH268068   1.335   2.059  13.815  0.1195  0.3014  0.4198
15526TIP3    H168069   1.344   1.967  13.836 -1.1119  0.1467  0.3651
15526TIP3    H268070   1.241   2.072  13.803  0.3555  1.3430 -0.5823
15527TIP3   OH268071   0.142   4.913   2.919  0.0893  0.3726  0.4663
15527TIP3    H168072   0.189   4.990   2.887 -0.3926 -0.6566 -3.2918
15527TIP3    H268073   0.050   4.935   2.907 -0.0505 -0.7130 -0.7416
15528TIP3   OH268074   2.674   5.389  12.141  0.4729 -0.0981 -0.2001
15528TIP3    H168075   2.617   5.346  12.078  0.4882 -1.2889  0.5570
15528TIP3    H268076   2.674   5.481  12.115  1.8132 -0.7666 -2.9332
15529TIP3   OH268077   0.332   5.957   5.900 -0.5442  0.9461  0.0431
15529TIP3    H168078   0.338   5.938   5.807 -1.7967 -1.3147  0.3678
15529TIP3    H268079   0.332   5.872   5.943  2.6822  1.9083  2.3873
15530TIP3   OH268080   5.499   3.163   3.379  0.1907  0.1729  0.1770
15530TIP3    H168081   5.532   3.247   3.346  2.6563 -1.3304 -1.4797
15530TIP3    H268082   5.549   3.097   3.332 -3.1072 -2.3679 -0.1582
15531TIP3   OH268083   5.289   6.366  14.268 -0.2007 -0.0698  0.3303
15531TIP3    H168084   5.271   6.271  14.268  0.6215 -0.2534  1.8289
15531TIP3    H268085   5.317   6.385  14.358  2.4918  1.0518 -0.6487
15532TIP3   OH268086   1.379   6.229  16.717 -0.0295  0.2160 -0.5274
15532TIP3    H168087   1.436   6.303  16.735  0.9922 -1.0511  1.9224
15532TIP3    H268088   1.360   6.192  16.803 -2.0320 -1.2763 -1.5293
15533TIP3   OH268089   5.544   1.603  16.467 -0.5074  0.1006 -0.2291
15533TIP3    H168090   5.611   1.629  16.531 -0.3779  1.8936 -1.0148
15533TIP3    H268091   5.594   1.576  16.390 -0.6412  1.2033 -0.7289
15534TIP3   OH268092   1.897   1.860  11.831  1.0809  0.2514 -0.1729
15534TIP3    H168093   1.890   1.832  11.740  1.3745 -1.3216  0.2494
15534TIP3    H268094   1.891   1.779  11.882 -0.4916  1.2293  1.2983
15535TIP3   OH268095   3.074   1.124   5.030 -0.3520  0.0624 -0.5028
15535TIP3    H168096   3.087   1.195   4.967 -1.9640  0.1696 -0.7598
15535TIP3    H268097   3.155   1.072   5.025  0.3698  1.2130 -1.1555
15536TIP3   OH268098   3.730   4.100   6.361 -0.7609 -0.2210  0.4922
15536TIP3    H168099   3.808   4.045   6.368  0.0666  0.8201 -0.3672
15536TIP3    H268100   3.663   4.041   6.326  0.2168 -0.6303 -0.7958
15537TIP3   OH268101   3.359   1.341   2.900  0.3219  0.0675 -0.6293
15537TIP3    H168102   3.332   1.355   2.809  0.6521  1.8337 -0.5036
15537TIP3    H268103   3.348   1.247   2.915  0.3052 -0.2620 -2.5011
15538TIP3   OH268104   1.886   2.032   6.614 -0.4408  0.3799  0.0830
15538TIP3    H168105   1.944   2.042   6.539 -0.4927  2.2782  0.2470
15538TIP3    H268106   1.813   1.979   6.582 -0.2438  0.7972 -1.0893
15539TIP3   OH268107   1.138   0.940  16.862 -0.1812  0.4171 -0.7885
15539TIP3    H168108   1.187   0.872  16.908  0.6030  0.6864 -1.2166
15539TIP3    H268109   1.199   0.974  16.797  0.5748  3.6857  1.4006
15540TIP3   OH268110   1.577   3.161   0.753  1.1634  0.1199  0.0082
15540TIP3    H168111   1.515   3.109   0.803  2.3174 -1.1721  0.1541
15540TIP3    H268112   1.637   3.197   0.818  0.1454  2.0358 -0.0438
15541TIP3   OH268113   4.195   2.297  11.530 -0.0055 -0.0877 -0.2638
15541TIP3    H168114   4.116   2.327  11.575  0.4447  0.7408 -0.0122
15541TIP3    H268115   4.184   2.327  11.439  0.5834  1.1657  0.0546
15542TIP3   OH268116   0.663   5.210   2.463  0.0266 -0.3595  0.0417
15542TIP3    H168117   0.610   5.240   2.389 -1.2585 -0.0995  1.0396
15542TIP3    H268118   0.753   5.231   2.437 -0.4354  0.1826 -1.2294
15543TIP3   OH268119   0.113   5.707  13.697 -1.0035  0.3076 -0.7357
15543TIP3    H168120   0.178   5.655  13.745 -0.3438 -0.2402 -2.1696
15543TIP3    H268121   0.164   5.755  13.632 -1.9142  0.7509 -1.1304
15544TIP3   OH268122   6.800   6.696   0.557  0.5373 -0.2865 -0.1228
15544TIP3    H168123   6.779   6.751   0.481  1.1886  1.3285  0.7942
15544TIP3    H268124   6.764   6.610   0.536 -1.6088  0.7785 -1.1535
15545TIP3   OH268125   1.245   2.008  15.531 -0.0049  0.4336 -0.9472
15545TIP3    H168126   1.336   2.021  15.505  0.8747 -0.1969  1.4898
15545TIP3    H268127   1.204   2.093  15.520  2.3693  2.3647  3.0222
15546TIP3   OH268128   1.611   6.496   0.696  0.5022 -0.3470 -0.2253
15546TIP3    H168129   1.556   6.423   0.667  1.7329 -1.4917  0.2226
15546TIP3    H268130   1.551   6.571   0.700 -0.8649 -1.3876 -0.4089
15547TIP3   OH268131   2.585   2.393   1.071  0.0786  0.0781 -0.2196
15547TIP3    H168132   2.626   2.370   0.988  0.3952  1.1579 -0.3786
15547TIP3    H268133   2.659   2.416   1.128 -0.2480  1.6865 -0.3955
15548TIP3   OH268134   3.130   4.938  16.071  0.1922 -0.2333  0.4222
15548TIP3    H168135   3.218   4.944  16.036  0.3508 -0.7295  0.7190
15548TIP3    H268136   3.118   4.844  16.091  0.0370 -0.0044  1.4976
15549TIP3   OH268137   2.599   0.645  12.969 -0.1261  0.2395  0.5981
15549TIP3    H168138   2.607   0.687  12.884 -2.1399  0.4630  0.4695
15549TIP3    H268139   2.656   0.568  12.964  0.0440  0.4437 -0.8036
15550TIP3   OH268140   2.051   0.768  13.333  0.0672 -0.3965  0.2261
15550TIP3    H168141   1.994   0.712  13.281  0.0174  0.0221 -0.1727
15550TIP3    H268142   1.998   0.845  13.352  1.3387  1.3365 -2.5638
15551TIP3   OH268143   3.323   3.788  17.043  0.1956 -0.0684 -0.0899
15551TIP3    H168144   3.297   3.877  17.020  1.7325  0.6866  0.8796
15551TIP3    H268145   3.257   3.759  17.106 -1.5013 -0.4602 -1.9505
15552TIP3   OH268146   5.492   4.439  14.662  0.0167  0.6368  0.4266
15552TIP3    H168147   5.408   4.417  14.702  1.8637 -1.4558  3.6034
15552TIP3    H268148   5.532   4.501  14.723  0.5097  2.3691 -1.5324
15553TIP3   OH268149   2.889   6.330  12.096 -0.5914  0.1131  0.1511
15553TIP3    H168150   2.920   6.410  12.055  0.5799 -0.2881  0.2165
15553TIP3    H268151   2.795   6.328  12.078 -0.3007  0.5100 -1.5428
15554TIP3   OH268152   3.460   3.246  13.548 -0.0423  0.5764 -0.8027
15554TIP3    H168153   3.418   3.330  13.527  0.0088  1.1550  1.2060
15554TIP3    H268154   3.405   3.208  13.615  2.0323  0.8967  1.2055
15555TIP3   OH268155   6.554   1.604   1.066  0.3717  0.4659 -0.0153
15555TIP3    H168156   6.498   1.580   0.992  1.7315  0.4878 -1.0810
15555TIP3    H268157   6.622   1.537   1.067 -0.8174 -0.8420  2.6178
15556TIP3   OH268158   5.734   1.544  17.175 -0.0015 -0.5878 -0.0357
15556TIP3    H168159   5.680   1.592  17.112 -1.1756 -1.0348  0.6105
15556TIP3    H268160   5.815   1.595  17.180  0.5409 -1.0291 -2.6147
15557TIP3   OH268161   1.310   1.182   5.044 -0.3352  0.4408 -0.0033
15557TIP3    H168162   1.232   1.158   4.994 -0.3912  0.5658  0.0232
15557TIP3    H268163   1.322   1.275   5.025  0.1742  0.2813 -0.5142
15558TIP3   OH268164   6.100   1.746   1.166  0.2000  0.0196  0.0977
15558TIP3    H168165   6.053   1.829   1.158  0.9886  0.8248  2.8598
15558TIP3    H268166   6.047   1.684   1.116 -1.2724  1.8365 -0.7108
15559TIP3   OH268167   1.634   5.519  16.762  1.0556 -0.0220 -0.5354
15559TIP3    H168168   1.715   5.563  16.787  0.2804  2.1571 -1.5522
15559TIP3    H268169   1.579   5.522  16.840  1.2211  0.3580 -0.4326
15560TIP3   OH268170   2.669   5.753  11.798  0.1338  0.1964  0.2843
15560TIP3    H168171   2.611   5.766  11.723  1.2113 -0.5332 -0.7070
15560TIP3    H268172   2.710   5.839  11.811 -0.1071  0.3430  0.0918
15561TIP3   OH268173   3.732   4.106   4.857  0.4277 -0.2269 -0.4340
15561TIP3    H168174   3.774   4.130   4.939  0.0639 -1.1500  0.0345
15561TIP3    H268175   3.692   4.187   4.825 -0.7890 -0.1795  1.1005
15562TIP3   OH268176   2.316   2.233   3.381 -0.2375 -0.0699  0.7070
15562TIP3    H168177   2.294   2.185   3.461  0.9713 -1.0279  0.5058
15562TIP3    H268178   2.249   2.206   3.318  0.2793 -1.3363  0.6738
15563TIP3   OH268179   6.137   6.300  11.793  0.2160 -0.0408  0.2524
15563TIP3    H168180   6.095   6.269  11.713  1.2951  0.0932 -0.3914
15563TIP3    H268181   6.124   6.395  11.792 -3.2569 -0.3591  2.3246
15564TIP3   OH268182   2.304   1.502  14.583 -0.1200  0.0667 -0.5241
15564TIP3    H168183   2.339   1.434  14.640  0.3173  1.5380  1.0503
15564TIP3    H268184   2.363   1.502  14.507  1.9459  0.8556  0.9657
15565TIP3   OH268185   1.707   5.275  15.863 -0.0428  0.2004 -0.8327
15565TIP3    H168186   1.661   5.240  15.787 -2.0289  0.2259  0.3123
15565TIP3    H268187   1.744   5.199  15.906 -0.6741 -0.0382 -0.7061
15566TIP3   OH268188   1.847   4.996  12.713  0.5336  0.6608  0.2581
15566TIP3    H168189   1.833   4.944  12.635 -0.5923  0.0565  0.8330
15566TIP3    H268190   1.809   5.081  12.692 -1.4721 -0.0640  0.7562
15567TIP3   OH268191   3.455   6.311  15.579  0.1361  0.3374  0.1866
15567TIP3    H168192   3.482   6.274  15.494  0.2733  0.8762 -0.0102
15567TIP3    H268193   3.361   6.293  15.584  0.3727 -0.8605  0.5212
15568TIP3   OH268194   4.749   3.519  16.349  0.1761  0.3005  0.1737
15568TIP3    H168195   4.746   3.581  16.422  1.6007  1.0752 -0.3925
15568TIP3    H268196   4.822   3.549  16.295 -0.5461 -0.5335 -1.3308
15569TIP3   OH268197   0.675   0.797  11.127 -0.1895 -0.1087  0.0876
15569TIP3    H168198   0.591   0.841  11.134 -1.0799 -1.7877  0.6649
15569TIP3    H268199   0.694   0.794  11.033 -0.6354  0.4996 -0.0240
15570TIP3   OH268200   0.675   6.128   0.796  0.4332  0.2084  0.0805
15570TIP3    H168201   0.667   6.122   0.891 -1.3408  0.5137 -0.0150
15570TIP3    H268202   0.585   6.138   0.765  0.8616 -1.0809 -1.7279
15571TIP3   OH268203   1.263   6.679   4.845 -0.1357  0.1604 -0.4562
15571TIP3    H168204   1.253   6.586   4.868  1.7602  0.1941  0.7570
15571TIP3    H268205   1.249   6.725   4.928 -1.3536  1.0220 -1.1052
15572TIP3   OH268206   4.265   0.668  14.143  0.0388  1.0427  0.1859
15572TIP3    H168207   4.233   0.758  14.148  0.8906  1.3595  0.1485
15572TIP3    H268208   4.349   0.670  14.188  0.9952  0.7193 -1.4687
15573TIP3   OH268209   0.035   0.421   4.049 -0.0008  0.0147 -0.1960
15573TIP3    H168210   0.091   0.354   4.009  0.2816  0.1591 -0.0373
15573TIP3    H268211   0.055   0.501   4.002  2.7226  0.9469  2.3118
15574TIP3   OH268212   2.462   3.364   0.157  0.2944 -0.1563  0.2059
15574TIP3    H168213   2.527   3.295   0.146  0.1427 -0.4986  1.2823
15574TIP3    H268214   2.410   3.362   0.076  1.7111  0.2467 -0.7401
15575TIP3   OH268215   3.410   4.366   0.632  0.8147 -0.1419  0.4121
15575TIP3    H168216   3.492   4.328   0.599  0.6371 -0.3083  0.1592
15575TIP3    H268217   3.359   4.384   0.554 -0.7453 -3.0440  0.6214
15576TIP3   OH268218   5.076   1.435   3.343 -0.2131 -0.2288  0.0581
15576TIP3    H168219   5.170   1.419   3.358 -0.1760 -0.5561 -0.4654
15576TIP3    H268220   5.034   1.408   3.424 -0.0686 -2.3949 -0.5031
15577TIP3   OH268221   0.794   5.335  14.411 -0.3087  0.3339  0.1999
15577TIP3    H168222   0.858   5.335  14.482 -1.5326  0.9856  1.3564
15577TIP3    H268223   0.847   5.336  14.331  1.1281  0.9488  1.1099
15578TIP3   OH268224   4.311   2.003   0.041 -0.1560  0.0790 -0.4306
15578TIP3    H168225   4.234   2.037   0.086  0.9826  1.0376  0.9205
15578TIP3    H268226   4.311   1.909   0.059  0.5216  0.4802  2.1562
15579TIP3   OH268227   5.958   1.382   2.914 -0.6604  0.0433  0.3682
15579TIP3    H168228   5.876   1.391   2.963 -0.5485  3.0418  0.1943
15579TIP3    H268229   6.022   1.432   2.964  0.4160 -0.0840 -0.8227
15580TIP3   OH268230   3.895   3.316   1.566 -0.0701  0.0503  0.0122
15580TIP3    H168231   3.873   3.237   1.616 -1.8044 -0.1921 -1.0396
15580TIP3    H268232   3.985   3.303   1.538 -0.5148 -1.9277 -0.6955
15581TIP3   OH268233   6.560   6.260   2.354  0.8822 -0.4933  0.5172
15581TIP3    H168234   6.597   6.242   2.268  0.1479 -0.7578  0.2470
15581TIP3    H268235   6.583   6.351   2.372  0.5234 -0.2521 -0.2282
15582TIP3   OH268236   6.584   2.635  12.191  0.2860 -0.2515  0.4369
15582TIP3    H168237   6.503   2.602  12.230  0.7005 -1.1396  0.5503
15582TIP3    H268238   6.646   2.563  12.198  1.7914  1.1211  2.3576
15583TIP3   OH268239   1.749   0.530   0.157  0.0487  0.6723 -0.0391
15583TIP3    H168240   1.728   0.518   0.249  0.7161 -0.4845 -0.0154
15583TIP3    H268241   1.741   0.442   0.119 -0.6990  1.2091 -1.1936
15584TIP3   OH268242   3.513   5.364   1.478 -0.2031  0.6779  0.1411
15584TIP3    H168243   3.434   5.315   1.502 -0.5719  1.5314  0.7189
15584TIP3    H268244   3.583   5.298   1.478 -0.9737 -0.1664 -0.7875
15585TIP3   OH268245   1.991   2.103   5.013  0.6038 -0.1446  0.0757
15585TIP3    H168246   2.012   2.179   4.957  0.3331 -0.2721 -0.1979
15585TIP3    H268247   2.049   2.034   4.981  1.1525  0.0555  0.5975
15586TIP3   OH268248   0.815   1.470  13.849 -0.0697 -0.2451 -0.4117
15586TIP3    H168249   0.796   1.461  13.943 -1.4004  0.1703 -0.6100
15586TIP3    H268250   0.731   1.451  13.806  0.1854  0.8591 -1.4464
15587TIP3   OH268251   3.147   1.153  10.335  0.1648 -0.1879 -0.0166
15587TIP3    H168252   3.171   1.076  10.283  3.2690 -0.4701  1.5460
15587TIP3    H268253   3.201   1.223  10.298 -1.3019  0.8427 -0.2677
15588TIP3   OH268254   5.095   6.449  15.468  0.2360 -0.6620  0.0256
15588TIP3    H168255   5.167   6.399  15.430 -0.5363 -1.4948 -0.3749
15588TIP3    H268256   5.038   6.470  15.394 -0.0615 -0.2393  0.3719
15589TIP3   OH268257   4.674   2.043   1.416  0.3734  0.3205 -0.1511
15589TIP3    H168258   4.742   2.104   1.444  0.0491  0.1797  0.9874
15589TIP3    H268259   4.642   2.080   1.333  0.6598  1.3161  0.1645
15590TIP3   OH268260   3.508   5.743  16.844 -0.3902 -0.2267  0.3410
15590TIP3    H168261   3.429   5.727  16.792 -0.9900 -0.5432  1.3126
15590TIP3    H268262   3.516   5.666  16.900  0.7798 -0.3250  0.0606
15591TIP3   OH268263   5.566   2.682   4.725 -0.0187 -0.0492  0.3721
15591TIP3    H168264   5.494   2.742   4.705  1.4230  1.1251 -1.6133
15591TIP3    H268265   5.641   2.739   4.740  1.1858 -1.3072 -0.6243
15592TIP3   OH268266   3.134   4.043  12.049 -0.7198 -0.1965  0.3517
15592TIP3    H168267   3.211   4.062  12.103  0.2949 -2.6298 -0.1143
15592TIP3    H268268   3.062   4.086  12.095  0.3892 -0.5871  2.6203
15593TIP3   OH268269   3.644   3.021   2.315  0.2317  0.1398  0.2565
15593TIP3    H168270   3.617   3.011   2.224 -2.0486 -1.3792  1.0038
15593TIP3    H268271   3.713   2.955   2.327 -1.0035 -1.2179  0.1409
15594TIP3   OH268272   0.766   4.136  13.163  0.4254  0.0523 -0.5253
15594TIP3    H168273   0.789   4.210  13.219  1.4167 -1.6369  1.4732
15594TIP3    H268274   0.850   4.104  13.131  0.5967 -2.8026  2.2892
15595TIP3   OH268275   6.100   3.705  10.657 -0.2855  0.3267  0.0608
15595TIP3    H168276   6.093   3.616  10.624  0.9706 -1.2687  3.6021
15595TIP3    H268277   6.011   3.729  10.681 -0.4171 -0.6917  0.6533
15596TIP3   OH268278   3.495   1.870   6.125  0.3787 -0.3219  0.3181
15596TIP3    H168279   3.410   1.832   6.105  0.3656 -0.5959  0.8624
15596TIP3    H268280   3.475   1.945   6.181  0.4665 -0.1190  0.0766
15597TIP3   OH268281   1.717   4.499   0.753 -0.0100 -0.2960  0.0458
15597TIP3    H168282   1.660   4.426   0.775 -0.3716  0.0487  0.2778
15597TIP3    H268283   1.795   4.486   0.806 -0.0660 -0.5234  0.0731
15598TIP3   OH268284   0.280   3.652  14.124 -0.3587 -0.1515 -0.0454
15598TIP3    H168285   0.320   3.693  14.201  0.9528 -1.3374 -0.0621
15598TIP3    H268286   0.207   3.710  14.102 -1.1283 -0.0508  2.4125
15599TIP3   OH268287   4.346   5.718   4.464 -0.6792  0.0538  0.6662
15599TIP3    H168288   4.332   5.704   4.370 -1.7822 -1.3668  1.0135
15599TIP3    H268289   4.435   5.754   4.469 -0.9276  0.9929 -0.9762
15600TIP3   OH268290   4.665   5.109   5.550  0.3214 -0.0243 -0.7243
15600TIP3    H168291   4.703   5.192   5.577 -2.3857  0.8865  0.7287
15600TIP3    H268292   4.575   5.131   5.525 -0.3146 -2.4161 -0.8114
15601TIP3   OH268293   0.727   3.325  12.846  0.2964  0.5829  0.1110
15601TIP3    H168294   0.788   3.383  12.893 -0.2651  1.4298 -0.1892
15601TIP3    H268295   0.775   3.242  12.839  1.8745  1.5190 -1.0323
15602TIP3   OH268296   1.770   2.765  14.749 -0.0168 -0.9740  0.0399
15602TIP3    H168297   1.732   2.716  14.823 -0.0347 -2.0665 -0.6752
15602TIP3    H268298   1.733   2.853  14.758  0.8184 -0.7513  1.9481
15603TIP3   OH268299   4.034   1.322  15.516  0.1044  0.2792  0.3346
15603TIP3    H168300   4.024   1.348  15.425 -0.2358  1.8751  0.7939
15603TIP3    H268301   3.966   1.370  15.563 -0.0210 -0.8603  1.3843
15604TIP3   OH268302   2.888   1.873  11.489 -0.5055  0.0221  0.1559
15604TIP3    H168303   2.797   1.869  11.462 -0.0637 -1.9261 -1.2522
15604TIP3    H268304   2.901   1.965  11.515 -2.3542  0.8024 -1.4301
15605TIP3   OH268305   4.588   2.657  12.355 -0.1042 -0.3129 -0.0875
15605TIP3    H168306   4.536   2.614  12.423  0.4924 -0.0158  0.5847
15605TIP3    H268307   4.546   2.742  12.342 -0.6148 -0.6393 -0.5848
15606TIP3   OH268308   5.402   6.709  16.856  0.2682  0.0728  0.5389
15606TIP3    H168309   5.390   6.615  16.841 -1.9102  0.2887  0.6217
15606TIP3    H268310   5.332   6.751  16.805  2.7621  1.8761 -1.6396
15607TIP3   OH268311   0.389   3.523  15.141 -0.1067 -0.0533  0.4968
15607TIP3    H168312   0.430   3.455  15.087 -0.6704  0.1337 -0.1823
15607TIP3    H268313   0.299   3.528  15.109 -0.6161 -0.3267  1.8440
15608TIP3   OH268314   6.215   1.113  13.740  0.3197 -0.1313 -0.3541
15608TIP3    H168315   6.245   1.139  13.827 -1.4099 -0.9564  0.5306
15608TIP3    H268316   6.151   1.179  13.715 -0.3722 -0.7683 -0.2888
15609TIP3   OH268317   5.418   4.187   0.429  0.1885  0.2063  0.0046
15609TIP3    H168318   5.450   4.184   0.519  1.0868 -1.3498 -0.3339
15609TIP3    H268319   5.331   4.226   0.437 -1.0926 -2.6929  2.0055
15610TIP3   OH268320   2.054   6.718  17.145  0.5466  0.6164  0.0656
15610TIP3    H168321   1.980   6.777  17.157 -0.6882 -0.8927  0.2444
15610TIP3    H268322   2.070   6.718  17.050 -0.2268  0.3512 -0.0725
15611TIP3   OH268323   6.743   0.701  13.156 -0.1912 -0.1825  0.2456
15611TIP3    H168324   6.707   0.789  13.169 -2.0100 -1.0131  1.2794
15611TIP3    H268325   6.712   0.676  13.069 -1.7675 -0.6860  0.9173
15612TIP3   OH268326   4.154   3.137   4.768 -0.2167  0.1287  0.1944
15612TIP3    H168327   4.194   3.212   4.726  2.1855 -0.5358  1.1369
15612TIP3    H268328   4.068   3.168   4.796  0.1062  2.0295 -0.7619
15613TIP3   OH268329   0.054   6.271  16.569 -0.0391 -0.3422  0.2869
15613TIP3    H168330   0.002   6.218  16.630  0.0391 -0.5105  0.2097
15613TIP3    H268331   0.016   6.358  16.574  0.8355  0.0025  1.6333
15614TIP3   OH268332   2.177   0.505   1.428  0.0455  0.4715  0.2490
15614TIP3    H168333   2.218   0.514   1.342 -0.8551 -1.1702 -0.4078
15614TIP3    H268334   2.248   0.518   1.490  0.5131  2.8057 -0.6581
15615TIP3   OH268335   3.360   4.729   4.934  0.0805 -0.0995 -0.2025
15615TIP3    H168336   3.280   4.698   4.891 -0.2297 -3.0742  2.1535
15615TIP3    H268337   3.429   4.676   4.896  0.5256  0.5964 -0.3678
15616TIP3   OH268338   6.749   4.569   1.305 -0.7588  0.4978 -0.3047
15616TIP3    H168339   6.731   4.659   1.276  1.3127  0.8976 -0.5277
15616TIP3    H268340   6.716   4.514   1.234 -1.7103  1.1038 -0.3399
15617TIP3   OH268341   3.354   6.573  12.754 -0.3590  0.1426 -0.1014
15617TIP3    H168342   3.325   6.532  12.673 -0.1727  0.3302 -0.2653
15617TIP3    H268343   3.289   6.547  12.819 -0.1549 -0.5456 -0.1617
15618TIP3   OH268344   1.388   3.459  10.844  0.2467 -0.2493  0.0436
15618TIP3    H168345   1.459   3.518  10.822  2.6938 -2.2017  2.0863
15618TIP3    H268346   1.332   3.458  10.767  2.4045  1.3937 -1.6634
15619TIP3   OH268347   1.418   3.391  15.532  0.3375  0.0126  0.3014
15619TIP3    H168348   1.368   3.441  15.467 -1.8353 -0.8706  1.1818
15619TIP3    H268349   1.396   3.299  15.514  0.3664 -0.3018  1.7041
15620TIP3   OH268350   5.241   2.579  13.513  0.0540  0.0589 -0.4697
15620TIP3    H168351   5.267   2.534  13.594  0.4873  0.5080 -0.3535
15620TIP3    H268352   5.174   2.642  13.542 -0.4651 -0.4160 -0.6125
15621TIP3   OH268353   5.459   0.654   5.080  0.1040  0.1683  0.0678
15621TIP3    H168354   5.444   0.559   5.088 -2.3621  0.5531  0.8851
15621TIP3    H268355   5.373   0.690   5.060  0.5518  2.4828  1.9240
15622TIP3   OH268356   5.628   6.390  15.420 -0.4159 -0.0992  0.1019
15622TIP3    H168357   5.665   6.322  15.475 -0.1200  0.4522  0.6009
15622TIP3    H268358   5.546   6.414  15.462  0.3845  1.1826  1.0450
15623TIP3   OH268359   5.010   4.039   2.980 -0.0199 -0.4980  0.3050
15623TIP3    H168360   4.977   4.012   2.894 -0.7067 -0.8776  0.6762
15623TIP3    H268361   4.942   4.011   3.041 -0.3032  1.2202  0.8167
15624TIP3   OH268362   0.849   4.766  12.547 -0.5027 -0.0460  0.1635
15624TIP3    H168363   0.882   4.750  12.636  0.2039  0.4604  0.0022
15624TIP3    H268364   0.893   4.701  12.493  1.9594  1.9366 -0.4037
15625TIP3   OH268365   6.737   0.336  14.049  0.0539  0.0535 -0.3282
15625TIP3    H168366   6.643   0.352  14.054  0.1550  0.3070  1.0911
15625TIP3    H268367   6.752   0.256  14.099  0.6342  0.1640 -0.3116
15626TIP3   OH268368   4.513   6.599   6.194 -0.6848 -0.4799 -0.3756
15626TIP3    H168369   4.556   6.584   6.110  0.5318 -1.6127  0.4315
15626TIP3    H268370   4.560   6.673   6.232 -1.0917 -0.1113 -0.5760
15627TIP3   OH268371   4.895   0.638   2.550 -0.3168 -0.0485  0.2441
15627TIP3    H168372   4.802   0.643   2.528 -0.2070  0.0702 -0.1929
15627TIP3    H268373   4.896   0.613   2.643 -0.7775 -1.3297 -0.0729
15628TIP3   OH268374   3.602   2.028   2.329  0.0001  0.3007  0.1982
15628TIP3    H168375   3.653   1.948   2.327  1.6515  1.3175 -0.2315
15628TIP3    H268376   3.666   2.098   2.319 -1.3432  1.7099  1.0123
15629TIP3   OH268377   1.626   3.065   0.271  0.1334  0.7418  0.3583
15629TIP3    H168378   1.716   3.094   0.255  0.7062 -0.4134  1.2919
15629TIP3    H268379   1.626   3.041   0.364 -1.0370  0.3821  0.2738
15630TIP3   OH268380   2.806   2.890   0.061  0.3329 -0.9426  0.0744
15630TIP3    H168381   2.835   2.800   0.075  0.6269 -1.2413 -2.0447
15630TIP3    H268382   2.877   2.944   0.093  0.9059 -1.5220 -0.1969
15631TIP3   OH268383   3.018   6.097   6.342 -0.6337 -0.3354  0.0411
15631TIP3    H168384   3.015   6.187   6.374 -2.3608 -0.3266 -0.0422
15631TIP3    H268385   3.092   6.058   6.388  1.1412  1.5172 -1.0759
15632TIP3   OH268386   4.609   0.744  10.765 -0.0490  0.1407  0.1841
15632TIP3    H168387   4.623   0.813  10.830  0.1082 -0.2210  0.5336
15632TIP3    H268388   4.677   0.758  10.699  0.5361 -0.2094  0.7022
15633TIP3   OH268389   0.782   1.274   1.335  0.5214 -0.0869 -0.2812
15633TIP3    H168390   0.747   1.285   1.247 -1.7294  0.1550  0.5651
15633TIP3    H268391   0.752   1.353   1.382  1.8568 -0.1081  0.6497
15634TIP3   OH268392   2.677   6.837   3.874 -0.4729 -0.0362 -0.3311
15634TIP3    H168393   2.688   6.742   3.881 -1.7803 -0.1033  1.2772
15634TIP3    H268394   2.606   6.849   3.811  0.5511 -0.0426 -1.5271
15635TIP3   OH268395   3.134   6.148  15.238 -0.2453 -0.0499 -0.1913
15635TIP3    H168396   3.091   6.107  15.163  0.9273 -1.3174 -0.2039
15635TIP3    H268397   3.213   6.188  15.202 -0.2727  0.3372  0.1737
15636TIP3   OH268398   1.800   2.433   6.744  0.3939  0.0409  0.3544
15636TIP3    H168399   1.713   2.450   6.710  0.0020  1.3625  1.8515
15636TIP3    H268400   1.796   2.344   6.780 -0.1363 -0.1431 -0.1633
15637TIP3   OH268401   4.524   4.931   1.158  0.0169 -0.7467 -0.2800
15637TIP3    H168402   4.564   4.856   1.114  0.1566 -0.6894 -0.2537
15637TIP3    H268403   4.533   4.911   1.251 -3.4523 -2.5604 -0.1981
15638TIP3   OH268404   4.073   3.039   4.240  0.0788  0.5050  0.3117
15638TIP3    H168405   4.071   3.030   4.336 -2.3754 -0.7181  0.2251
15638TIP3    H268406   4.001   3.099   4.221 -0.1683 -0.1347 -0.8330
15639TIP3   OH268407   0.889   3.704   5.022 -0.0175  0.1777  0.3050
15639TIP3    H168408   0.822   3.671   4.961 -1.2626  0.7952  1.2871
15639TIP3    H268409   0.895   3.797   5.002  1.0008  0.0171 -0.1722
15640TIP3   OH268410   6.571   4.038   2.888  0.6951  0.3838 -0.4450
15640TIP3    H168411   6.589   4.008   2.977 -1.6087  0.1966  0.0446
15640TIP3    H268412   6.583   3.960   2.834 -0.5569 -0.2670  0.1442
15641TIP3   OH268413   2.442   6.601  11.310  0.2369  0.3767 -0.0733
15641TIP3    H168414   2.531   6.567  11.305  0.3640  0.8240 -1.0451
15641TIP3    H268415   2.436   6.664  11.239 -0.7209  0.6795  0.2601
15642TIP3   OH268416   6.315   6.566   3.135 -0.0719 -0.6608  0.0714
15642TIP3    H168417   6.341   6.589   3.224 -0.6700 -1.6511  0.5176
15642TIP3    H268418   6.225   6.600   3.127  0.3210  0.2956 -0.5071
15643TIP3   OH268419   0.375   1.617   5.597  0.0420 -0.2319  0.3976
15643TIP3    H168420   0.453   1.564   5.610  0.1286 -0.3125 -0.4065
15643TIP3    H268421   0.407   1.707   5.595  0.1017 -0.2589  0.1545
15644TIP3   OH268422   4.420   4.163   5.527  0.6410  0.4098  0.3152
15644TIP3    H168423   4.425   4.068   5.541  1.8941  0.3287 -0.5270
15644TIP3    H268424   4.353   4.192   5.588  0.0219 -1.0596  0.3894
15645TIP3   OH268425   6.444   1.350   5.689  0.0437 -0.5661  0.0660
15645TIP3    H168426   6.516   1.360   5.627 -0.1501 -0.9914 -0.2255
15645TIP3    H268427   6.365   1.363   5.637 -0.0857  1.9286  0.7345
15646TIP3   OH268428   5.882   2.492  14.875  0.5093  0.0065 -0.0314
15646TIP3    H168429   5.828   2.560  14.837  0.7606  0.0429 -0.3306
15646TIP3    H268430   5.849   2.410  14.837  0.8058  0.0491 -0.3954
15647TIP3   OH268431   6.593   2.719  10.496 -0.6095 -0.5162 -0.3099
15647TIP3    H168432   6.667   2.663  10.476 -0.2351 -0.5895  1.1414
15647TIP3    H268433   6.626   2.808  10.486 -0.2218 -0.5450  0.5771
15648TIP3   OH268434   0.774   6.104  16.969  0.0035  0.2989 -0.2834
15648TIP3    H168435   0.853   6.129  17.017 -0.1703 -2.4278  1.7345
15648TIP3    H268436   0.794   6.017  16.934 -1.3717  0.4677 -1.5691
15649TIP3   OH268437   4.116   0.835   4.430 -0.5236 -0.1672 -0.5153
15649TIP3    H168438   4.159   0.760   4.388 -0.3630 -0.1676 -0.3504
15649TIP3    H268439   4.143   0.829   4.522 -0.1421  0.3519 -0.5905
15650TIP3   OH268440   1.581   1.679  14.226  0.1413  0.4470  0.4827
15650TIP3    H168441   1.523   1.635  14.289 -0.1097 -0.0924 -0.1195
15650TIP3    H268442   1.666   1.637  14.238  0.4622  1.3203  1.4522
15651TIP3   OH268443   5.168   3.868   5.606 -0.5286 -0.4075 -0.4229
15651TIP3    H168444   5.166   3.874   5.701 -2.2237 -1.9981 -0.3065
15651TIP3    H268445   5.175   3.959   5.576 -0.6399  0.1619  1.2031
15652TIP3   OH268446   2.937   5.874   2.602 -0.0298  1.0639 -0.4635
15652TIP3    H168447   2.888   5.793   2.609  0.5955  0.8195  1.8841
15652TIP3    H268448   2.875   5.942   2.629  0.2636  1.0037  0.3969
15653TIP3   OH268449   0.490   0.662  11.932  0.0207 -0.1653  0.2764
15653TIP3    H168450   0.426   0.726  11.963 -2.2314 -1.7894 -0.7734
15653TIP3    H268451   0.549   0.713  11.877  0.2930  1.5655  2.0420
15654TIP3   OH268452   6.456   6.500  12.918  0.0068  0.1582  0.6117
15654TIP3    H168453   6.465   6.438  12.846  0.1861  0.1385  0.6514
15654TIP3    H268454   6.404   6.572  12.882 -0.3129 -0.0737  0.6036
15655TIP3   OH268455   2.976   5.552   5.225 -0.2174 -0.0461 -0.3089
15655TIP3    H168456   2.997   5.518   5.139 -0.0177 -0.4788 -0.0939
15655TIP3    H268457   3.059   5.553   5.272 -0.3316  0.1451 -0.1051
15656TIP3   OH268458   0.866   0.902   3.521  0.6017 -0.1339 -0.5641
15656TIP3    H168459   0.865   0.808   3.533 -0.4372  0.1524  2.2707
15656TIP3    H268460   0.842   0.915   3.429  2.4400 -2.6189 -1.4926
15657TIP3   OH268461   4.862   4.703   0.326 -0.1495 -0.4954  0.3398
15657TIP3    H168462   4.866   4.786   0.373 -0.6667  0.3331 -1.0102
15657TIP3    H268463   4.920   4.645   0.374  2.0580  1.3215  0.0260
15658TIP3   OH268464   1.169   3.128   4.144 -0.2435  0.3237 -0.3721
15658TIP3    H168465   1.262   3.141   4.164  0.2588 -0.9020 -1.7268
15658TIP3    H268466   1.123   3.179   4.211  1.3863  0.6032  0.5986
15659TIP3   OH268467   2.713   1.797  10.743  0.0376  0.0547  0.4656
15659TIP3    H168468   2.690   1.758  10.827  0.4258 -0.6727  0.2435
15659TIP3    H268469   2.805   1.819  10.750  0.0642  0.0194  0.2391
15660TIP3   OH268470   2.086   1.621   0.702 -0.2094  0.0883 -0.4461
15660TIP3    H168471   2.045   1.582   0.779 -1.5014 -1.5122 -1.8435
15660TIP3    H268472   2.073   1.715   0.712 -3.7188 -0.2584 -0.4223
15661TIP3   OH268473   4.489   1.496   4.132 -0.3377 -0.1979 -0.2414
15661TIP3    H168474   4.512   1.417   4.083  0.1302 -1.0572  1.2979
15661TIP3    H268475   4.572   1.542   4.144 -0.5851  0.4695 -0.9913
15662TIP3   OH268476   1.391   3.122   5.725  0.4029 -0.1198 -0.2593
15662TIP3    H168477   1.313   3.099   5.776  0.4841  0.2028  0.0107
15662TIP3    H268478   1.357   3.161   5.645  0.2873 -0.0836 -0.1918
15663TIP3   OH268479   6.386   0.055   3.005 -0.3333  0.1243  0.1330
15663TIP3    H168480   6.300   0.017   3.023  0.2261 -1.5680 -0.5374
15663TIP3    H268481   6.402   0.032   2.913  0.0973  1.9478 -0.2761
15664TIP3   OH268482   4.329   1.864  14.509  0.5696 -0.6219  0.2224
15664TIP3    H168483   4.279   1.946  14.511  0.1160 -0.9185  1.2189
15664TIP3    H268484   4.268   1.801  14.470  0.3677 -0.8451  0.8934
15665TIP3   OH268485   5.684   5.394   2.625  0.1990 -0.2602  0.4878
15665TIP3    H168486   5.715   5.441   2.547 -0.5543 -0.7603 -0.1145
15665TIP3    H268487   5.660   5.464   2.687 -0.0195  0.1455 -0.0515
15666TIP3   OH268488   2.206   6.759  13.989  0.1100  0.2061 -0.2814
15666TIP3    H168489   2.255   6.731  14.066 -0.8293  2.1039  1.0544
15666TIP3    H268490   2.246   6.841  13.962 -2.3377  1.9252  0.9675
15667TIP3   OH268491   5.947   6.062  11.403  0.2659  0.5007  0.9791
15667TIP3    H168492   5.955   5.997  11.333  0.1406  1.4627  0.0466
15667TIP3    H268493   5.986   6.019  11.480 -0.7951 -1.0762  0.6782
15668TIP3   OH268494   6.360   3.914  14.070  0.1945  0.1094 -0.2350
15668TIP3    H168495   6.346   3.888  14.162  1.4112 -0.9746 -0.3284
15668TIP3    H268496   6.443   3.961  14.071  0.3286 -0.1091 -0.8084
15669TIP3   OH268497   6.351   0.967  12.515  0.0668 -0.6318 -0.3167
15669TIP3    H168498   6.365   0.874  12.533 -1.2494 -1.6691 -3.8213
15669TIP3    H268499   6.256   0.976  12.513  0.1407  0.2370 -2.0243
15670TIP3   OH268500   4.054   1.044   6.336  0.1268  0.1788  0.1739
15670TIP3    H168501   3.961   1.064   6.347  0.5717  1.6012  1.8399
15670TIP3    H268502   4.062   0.953   6.363 -0.9828 -0.4485 -1.4532
15671TIP3   OH268503   2.047   4.652  13.759  0.4309  0.6603  0.2907
15671TIP3    H168504   2.104   4.591  13.711 -1.0291 -1.1239  0.7377
15671TIP3    H268505   2.041   4.728  13.702 -0.3034 -0.9175 -1.8816
15672TIP3   OH268506   3.634   1.550  11.389 -0.4938 -0.2710 -0.2313
15672TIP3    H168507   3.718   1.509  11.408  0.1747  1.1529  0.0137
15672TIP3    H268508   3.631   1.627  11.446 -3.2482 -1.7857  1.9388
15673TIP3   OH268509   5.980   0.659   0.664 -0.3719 -0.6575 -1.1698
15673TIP3    H168510   5.994   0.682   0.756 -0.0973  0.9633 -1.5795
15673TIP3    H268511   5.942   0.572   0.667 -0.6572 -0.5207  0.4976
15674TIP3   OH268512   0.099   1.443   1.656 -0.1659 -0.8631 -0.2557
15674TIP3    H168513   0.056   1.494   1.587 -0.1924  1.1208  1.1448
15674TIP3    H268514   0.172   1.400   1.612  1.0657  1.9700 -1.2229
15675TIP3   OH268515   1.244   1.299   5.357  0.0165  0.5222 -0.2362
15675TIP3    H168516   1.307   1.227   5.354 -0.3785 -0.0195  2.1591
15675TIP3    H268517   1.255   1.345   5.274  1.3118 -1.4316 -1.2011
15676TIP3   OH268518   1.535   0.287  13.011  0.0772 -0.6777  0.1675
15676TIP3    H168519   1.569   0.297  13.100 -2.0809 -0.3235  1.0048
15676TIP3    H268520   1.556   0.196  12.988  2.5679 -0.1578  0.1335
15677TIP3   OH268521   2.295   2.839   2.423 -0.6849 -0.6028  0.1163
15677TIP3    H168522   2.357   2.868   2.490 -1.3801 -1.2535  1.0836
15677TIP3    H268523   2.307   2.899   2.350  0.1581  0.0757  0.8011
15678TIP3   OH268524   2.443   0.088  17.009  0.2392  0.5493  0.4030
15678TIP3    H168525   2.465   0.058  16.920  0.0652  2.5113 -0.3451
15678TIP3    H268526   2.374   0.029  17.038  0.2165 -0.0495 -0.8144
15679TIP3   OH268527   5.047   4.471   1.683  0.3785 -0.2839 -0.3565
15679TIP3    H168528   5.095   4.391   1.704  0.7278 -0.1827 -0.7313
15679TIP3    H268529   5.100   4.542   1.721 -0.3052 -0.2760  0.5990
15680TIP3   OH268530   4.573   3.196   4.623  0.1076 -0.0552 -0.0432
15680TIP3    H168531   4.540   3.125   4.678 -1.0813 -0.4438 -1.2090
15680TIP3    H268532   4.574   3.273   4.681 -0.8007 -0.5192  0.6047
15681TIP3   OH268533   4.816   6.751   1.727 -0.4162 -0.2421  0.3794
15681TIP3    H168534   4.747   6.732   1.791 -1.3508 -1.4072 -0.9138
15681TIP3    H268535   4.787   6.707   1.647  1.2276  0.3068 -0.5593
15682TIP3   OH268536   2.714   5.138  12.336  0.3366 -0.3260  0.0215
15682TIP3    H168537   2.786   5.168  12.392 -1.5779  1.5184  1.6676
15682TIP3    H268538   2.702   5.210  12.273  0.4042 -0.9898 -0.7734
15683TIP3   OH268539   1.331   3.297   1.786  0.1404  0.1143 -0.2985
15683TIP3    H168540   1.337   3.329   1.876  1.4699  1.5523 -0.8474
15683TIP3    H268541   1.275   3.220   1.791  1.6593 -0.9496  2.0704
15684TIP3   OH268542   5.926   4.256   0.677 -0.1004 -0.3158  0.2706
15684TIP3    H168543   6.014   4.289   0.657 -0.5382  0.4061 -0.5835
15684TIP3    H268544   5.885   4.327   0.726 -0.2037 -0.6645  0.6931
15685TIP3   OH268545   1.639   2.667   5.273  0.0862  0.2753 -0.0995
15685TIP3    H168546   1.711   2.730   5.266  0.5272 -0.3826 -2.3877
15685TIP3    H268547   1.681   2.587   5.307  0.1807  0.2629 -0.2442
15686TIP3   OH268548   4.969   0.759  12.914 -0.4648  0.1658  0.4416
15686TIP3    H168549   5.000   0.700  12.983 -0.4265  1.4553  1.5789
15686TIP3    H268550   5.049   0.798  12.878 -0.5023 -0.2937 -0.1538
15687TIP3   OH268551   1.820   2.235  16.596 -0.0201  0.6538 -0.2429
15687TIP3    H168552   1.902   2.231  16.548 -0.3045  0.0894 -0.6935
15687TIP3    H268553   1.756   2.194  16.538 -0.1125 -1.3476  1.1707
15688TIP3   OH268554   1.855   5.857  15.231 -0.5013 -0.1970 -0.1647
15688TIP3    H168555   1.895   5.944  15.224 -2.0608  0.6279  0.7111
15688TIP3    H268556   1.916   5.807  15.285  0.6588  0.1720 -1.0824
15689TIP3   OH268557   4.764   3.451  14.539  0.4334 -0.6869  0.2141
15689TIP3    H168558   4.756   3.458  14.444 -0.6455  1.3971  0.4018
15689TIP3    H268559   4.849   3.410  14.553  0.8994 -0.4510 -1.6418
15690TIP3   OH268560   5.202   0.353   4.828 -0.2550  0.0456 -0.3354
15690TIP3    H168561   5.184   0.436   4.872 -0.0613  0.5443 -1.1637
15690TIP3    H268562   5.118   0.327   4.791  0.0850  0.9373 -1.8134
15691TIP3   OH268563   4.913   3.018   3.438 -0.7628  0.2418  0.1322
15691TIP3    H168564   4.861   3.091   3.473 -0.8859  0.7363 -1.0153
15691TIP3    H268565   4.951   2.976   3.515 -0.0066  2.0410  0.7997
15692TIP3   OH268566   2.721   3.170  12.562  0.2626 -0.0767  0.0371
15692TIP3    H168567   2.631   3.151  12.588  0.2365 -1.5631 -1.0395
15692TIP3    H268568   2.719   3.259  12.528 -0.6014  0.2301  0.8636
15693TIP3   OH268569   1.083   2.771  16.812  0.1992  0.4050 -0.1852
15693TIP3    H168570   1.164   2.729  16.842 -0.8199 -0.4058  1.5892
15693TIP3    H268571   1.104   2.864  16.808  1.5599  0.0883 -0.9425
15694TIP3   OH268572   5.440   3.036  14.445  0.1249 -0.5305 -0.2160
15694TIP3    H168573   5.519   3.000  14.485  1.3010  1.3579 -0.6796
15694TIP3    H268574   5.472   3.081  14.366 -1.1308  1.6784  0.4372
15695TIP3   OH268575   2.766   5.153  12.688 -0.3895  0.6397  0.8174
15695TIP3    H168576   2.775   5.169  12.782  0.6461 -0.0953  0.8673
15695TIP3    H268577   2.678   5.118  12.678 -0.6120  0.9945  1.4759
15696TIP3   OH268578   6.821   5.939   0.108  0.4160  0.2843 -0.5378
15696TIP3    H168579   6.740   5.926   0.157  0.0961  0.1927 -1.0796
15696TIP3    H268580   6.851   6.026   0.135  0.8295 -0.1985  0.6290
15697TIP3   OH268581   5.180   4.311  13.233 -0.9052  0.7867 -0.3984
15697TIP3    H168582   5.095   4.276  13.261  0.0151 -1.1146  0.2001
15697TIP3    H268583   5.230   4.321  13.314 -0.2125  0.9186 -0.8353
15698TIP3   OH268584   5.717   6.278  13.887 -0.2248  0.1745 -0.3489
15698TIP3    H168585   5.703   6.336  13.962  1.1337 -0.3967  0.3845
15698TIP3    H268586   5.643   6.296  13.828 -1.1275  0.8828  0.9608
15699TIP3   OH268587   5.108   3.695   1.674  0.5799  0.0438  0.2591
15699TIP3    H168588   5.120   3.712   1.580  0.6616 -0.1236  0.2402
15699TIP3    H268589   5.135   3.777   1.716  0.1388  0.2729  0.1139
15700TIP3   OH268590   0.423   6.537   6.010  0.3084  0.5966  0.2008
15700TIP3    H168591   0.430   6.516   6.103  1.3051  0.0290  0.0098
15700TIP3    H268592   0.513   6.556   5.983  0.0444  0.6283 -0.6793
15701TIP3   OH268593   5.305   6.777  10.558  0.3771  0.3556  0.0111
15701TIP3    H168594   5.323   6.761  10.651 -0.0645 -0.9229 -0.1110
15701TIP3    H268595   5.391   6.773  10.516  0.7626  2.2696  0.5166
15702TIP3   OH268596   0.096   3.355  15.284 -0.4714 -0.0099 -0.0497
15702TIP3    H168597   0.163   3.294  15.313 -0.1878  0.1682 -0.3367
15702TIP3    H268598   0.120   3.379  15.195  0.6864  2.2509  0.7804
15703TIP3   OH268599   0.733   6.568   6.053  0.9487  0.4365  0.2271
15703TIP3    H168600   0.669   6.583   6.122 -0.9068  0.2571 -1.3520
15703TIP3    H268601   0.798   6.638   6.064 -0.7186  1.9977  0.5579
15704TIP3   OH268602   2.934   5.842   5.792 -0.2233 -0.6094  0.0935
15704TIP3    H168603   2.876   5.829   5.867  0.0209  1.2199  0.6397
15704TIP3    H268604   2.999   5.905   5.822  1.1761 -1.4691 -0.9914
15705TIP3   OH268605   5.384   1.019  12.148  0.0058  0.0275  0.2170
15705TIP3    H168606   5.358   1.024  12.240  0.8582 -0.5633  0.5029
15705TIP3    H268607   5.302   1.023  12.100 -0.5121 -0.4627  1.0304
15706TIP3   OH268608   1.934   0.673   1.380  0.1461  0.1152  0.0245
15706TIP3    H168609   1.979   0.600   1.422 -0.2749  0.1540  0.5606
15706TIP3    H268610   2.000   0.742   1.372  0.6856 -0.4915 -0.9558
15707TIP3   OH268611   2.247   3.048  10.683 -0.4784 -0.4528 -0.1559
15707TIP3    H168612   2.201   3.120  10.725  0.8739  0.6989 -0.5922
15707TIP3    H268613   2.177   2.992  10.648 -1.5738  1.3958 -1.0728
15708TIP3   OH268614   0.201   2.874  12.166  0.6209  0.7273 -0.7542
15708TIP3    H168615   0.229   2.946  12.223 -1.0510  1.1635 -0.4371
15708TIP3    H268616   0.181   2.802  12.226 -0.0415  0.8056 -0.8776
15709TIP3   OH268617   3.902   6.594  16.842 -0.2753  0.0163  0.3826
15709TIP3    H168618   3.927   6.504  16.862 -1.3818 -0.1993  0.8584
15709TIP3    H268619   3.949   6.614  16.761 -0.0853 -1.0143  0.2266
15710TIP3   OH268620   0.568   6.494   5.672 -0.0513  0.4277  0.2486
15710TIP3    H168621   0.654   6.487   5.714  0.0690 -0.8299 -0.1655
15710TIP3    H268622   0.520   6.417   5.702 -0.3964  0.1636 -0.9194
15711TIP3   OH268623   3.986   2.452  11.932  0.2699  0.1579 -0.1746
15711TIP3    H168624   4.064   2.500  11.960 -1.3180  1.7176  1.9059
15711TIP3    H268625   3.978   2.380  11.995 -0.3924  0.5217  0.1783
15712TIP3   OH268626   3.205   0.119  14.827 -0.7176  0.0010 -0.4261
15712TIP3    H168627   3.184   0.160  14.744 -0.1966  1.1203 -0.0241
15712TIP3    H268628   3.131   0.141  14.884 -0.5053  0.2718 -0.2518
15713TIP3   OH268629   2.897   2.131  14.884  0.6732 -0.2570  0.1577
15713TIP3    H168630   2.827   2.165  14.828  0.0247 -0.7724  0.6311
15713TIP3    H268631   2.857   2.123  14.971  1.5525  0.1709  0.6190
15714TIP3   OH268632   5.686   6.751   4.730 -0.4141  0.0758 -0.3710
15714TIP3    H168633   5.743   6.713   4.663 -2.4435  0.5184 -2.5078
15714TIP3    H268634   5.661   6.678   4.785 -0.5778 -0.8043 -1.5734
15715TIP3   OH268635   6.643   0.801  14.659  0.0773  0.4961 -0.2075
15715TIP3    H168636   6.737   0.793  14.675  0.5272  1.6053 -1.9632
15715TIP3    H268637   6.625   0.737  14.590 -0.9070 -1.1082  1.4487
15716TIP3   OH268638   4.438   5.259   0.614  0.4549 -0.4865  0.0014
15716TIP3    H168639   4.421   5.170   0.584  2.8984 -0.6688 -1.1434
15716TIP3    H268640   4.376   5.313   0.566 -1.1364 -1.5391  0.7951
15717TIP3   OH268641   6.634   2.212  17.005  0.4688 -0.1867  1.0672
15717TIP3    H168642   6.673   2.182  17.087 -1.2421 -2.9684  0.9916
15717TIP3    H268643   6.576   2.285  17.031  0.6320 -0.4433  2.1813
15718TIP3   OH268644   0.376   2.088   0.540  0.6538 -0.3542  0.6671
15718TIP3    H168645   0.348   2.179   0.527  0.3169 -0.3508  1.3850
15718TIP3    H268646   0.422   2.066   0.459  1.7147  0.8128  0.9216
15719TIP3   OH268647   0.778   1.239   3.981 -0.7952  0.3098 -0.2629
15719TIP3    H168648   0.749   1.315   4.032 -1.1820 -1.1358  1.8108
15719TIP3    H268649   0.697   1.195   3.956 -0.5561  0.1254 -0.7098
15720TIP3   OH268650   5.605   3.049  13.508  0.8152 -0.3376  0.4997
15720TIP3    H168651   5.651   3.006  13.581 -0.0111 -0.4059  0.9945
15720TIP3    H268652   5.570   2.977  13.457  0.0457 -0.2801  0.9271
15721TIP3   OH268653   0.391   1.639   6.317 -0.1360  0.0215  0.1102
15721TIP3    H168654   0.350   1.608   6.398  0.1797  0.9070  0.6325
15721TIP3    H268655   0.477   1.596   6.316  0.4302  1.0726  0.9962
15722TIP3   OH268656   2.626   1.933  11.472  0.2514  0.2383 -0.1571
15722TIP3    H168657   2.582   1.959  11.554 -1.0291  0.5600 -0.9075
15722TIP3    H268658   2.574   1.975  11.403  2.4258  1.5977 -1.0845
15723TIP3   OH268659   2.258   2.324  13.682 -0.2458  0.1807 -0.3864
15723TIP3    H168660   2.194   2.357  13.619 -0.9840  0.7971  0.6539
15723TIP3    H268661   2.230   2.360  13.766  1.1649  0.0289  0.1872
15724TIP3   OH268662   5.174   3.674  12.259 -0.7627  0.7966  0.0969
15724TIP3    H168663   5.198   3.748  12.203 -2.0877  0.2689 -1.2144
15724TIP3    H268664   5.085   3.652  12.233 -0.6131 -0.8738  0.8988
15725TIP3   OH268665   3.180   1.742  12.700  0.4290  0.0395  0.0198
15725TIP3    H168666   3.176   1.716  12.792 -0.3419  0.6287  0.1624
15725TIP3    H268667   3.119   1.815  12.693  1.7279  1.1068 -0.6119
15726TIP3   OH268668   1.179   4.411  14.978  0.1201 -0.0728 -0.0661
15726TIP3    H168669   1.171   4.495  15.022  2.8176 -0.0930  0.6218
15726TIP3    H268670   1.236   4.359  15.035 -0.5745 -2.0042 -1.0186
15727TIP3   OH268671   3.927   1.071   5.304 -0.2328  0.5664 -0.2135
15727TIP3    H168672   3.964   1.158   5.290 -0.2500  0.8291  1.2303
15727TIP3    H268673   3.954   1.021   5.227 -0.6219  1.9591 -1.3095
15728TIP3   OH268674   4.539   5.985  16.459 -0.1529  0.0826 -0.0899
15728TIP3    H168675   4.632   6.004  16.473  0.0811  0.1415 -1.6140
15728TIP3    H268676   4.539   5.898  16.417 -0.8304 -0.1917  0.4597
15729TIP3   OH268677   5.243   1.639   3.818  0.0627 -0.3678  0.6807
15729TIP3    H168678   5.286   1.672   3.739  0.1386 -1.4904  0.2295
15729TIP3    H268679   5.150   1.635   3.795 -0.1200  0.7558  1.1847
15730TIP3   OH268680   5.911   0.662  15.267 -0.6339  0.2173  0.0121
15730TIP3    H168681   5.924   0.605  15.343  1.2393  2.1897  1.2564
15730TIP3    H268682   5.872   0.742  15.303 -0.7548  0.7724 -1.2902
15731TIP3   OH268683   3.219   5.975  13.631  0.6538  0.6196 -0.2862
15731TIP3    H168684   3.295   5.987  13.574 -0.0244  0.3897 -1.2506
15731TIP3    H268685   3.242   5.899  13.685  1.8351  1.6078  0.6728
15732TIP3   OH268686   0.533   3.060  14.220  0.5902  0.6816 -0.1913
15732TIP3    H168687   0.599   3.055  14.290  0.6155  1.1802 -0.1771
15732TIP3    H268688   0.562   2.995  14.156  0.0162 -0.5099  0.7143
15733TIP3   OH268689   4.246   5.300  15.756 -0.0598 -0.5658 -0.2081
15733TIP3    H168690   4.334   5.338  15.757 -0.5167  0.5081  0.6006
15733TIP3    H268691   4.238   5.262  15.668  0.8321  0.2236 -0.6554
15734TIP3   OH268692   6.529   4.330  15.673  0.1771 -0.1856  0.2372
15734TIP3    H168693   6.573   4.304  15.754  1.2015 -0.0371 -0.2411
15734TIP3    H268694   6.436   4.333  15.695  0.3470 -1.0951  1.1405
15735TIP3   OH268695   4.695   0.824   4.943 -0.2868 -0.2613 -0.6399
15735TIP3    H168696   4.614   0.873   4.958 -0.0444 -0.4366  1.5716
15735TIP3    H268697   4.699   0.761   5.014  2.0360  0.0678 -0.3798
15736TIP3   OH268698   6.542   0.208   4.269 -0.8992  0.6878 -0.5394
15736TIP3    H168699   6.537   0.227   4.175 -0.1501 -1.5637 -1.0952
15736TIP3    H268700   6.626   0.243   4.297 -0.3550 -0.0935 -1.1308
15737TIP3   OH268701   3.002   0.887   4.545 -0.1814 -0.6122  0.1239
15737TIP3    H168702   3.060   0.945   4.595 -1.7907  0.7902  0.4489
15737TIP3    H268703   3.062   0.824   4.504  1.3753 -0.8220  2.4413
15738TIP3   OH268704   1.793   2.485   0.608 -0.1284 -0.1500  0.2953
15738TIP3    H168705   1.867   2.496   0.548  0.3965  1.9396  1.2341
15738TIP3    H268706   1.831   2.446   0.686  0.3733  2.3109  1.3630
15739TIP3   OH268707   0.302   2.007   1.249  0.1922 -1.0107 -0.1399
15739TIP3    H168708   0.333   1.935   1.303 -0.7804 -1.7869 -0.5903
15739TIP3    H268709   0.208   1.993   1.242  0.0059  0.2426 -0.3348
15740TIP3   OH268710   4.103   6.743   2.946  0.2450 -0.2463  0.6652
15740TIP3    H168711   4.038   6.683   2.983  0.2442  0.7751  2.4688
15740TIP3    H268712   4.109   6.719   2.854 -1.9950 -0.9673  0.6583
15741TIP3   OH268713   0.521   1.184  11.694 -0.0436 -0.3471  0.3669
15741TIP3    H168714   0.548   1.270  11.729  0.3538 -0.3591  0.0962
15741TIP3    H268715   0.448   1.204  11.635  0.1225 -0.1827  0.2162
15742TIP3   OH268716   2.823   5.754  11.468 -0.7327  0.2544 -0.0221
15742TIP3    H168717   2.918   5.765  11.474 -0.5531 -1.0618 -0.1000
15742TIP3    H268718   2.787   5.827  11.518  0.3657  0.0434  1.1291
15743TIP3   OH268719   3.360   3.456  12.652  0.7015  0.6204 -0.3641
15743TIP3    H168720   3.418   3.384  12.629  0.2320  0.5386 -1.3173
15743TIP3    H268721   3.362   3.458  12.748  0.8759 -0.5260 -0.3302
15744TIP3   OH268722   0.796   3.308   4.687 -0.2127  0.1571  0.0882
15744TIP3    H168723   0.773   3.216   4.701 -0.1220 -0.2094 -1.8448
15744TIP3    H268724   0.752   3.355   4.758  0.2029 -1.4229  1.4382
15745TIP3   OH268725   5.093   6.787   2.736  0.0906 -0.0602 -0.0162
15745TIP3    H168726   5.129   6.699   2.745 -0.1842 -0.0118  2.0416
15745TIP3    H268727   4.998   6.775   2.738 -0.2270 -0.1045 -4.5865
15746TIP3   OH268728   0.185   6.585   6.159 -0.2400 -0.6888 -0.2425
15746TIP3    H168729   0.250   6.586   6.230 -0.5980 -2.8363  0.1774
15746TIP3    H268730   0.237   6.585   6.079  0.1870  0.5402  0.0021
15747TIP3   OH268731   4.775   0.931   1.759 -0.1644 -0.3813 -0.5734
15747TIP3    H168732   4.755   1.024   1.775 -2.5326 -0.6489 -1.6204
15747TIP3    H268733   4.792   0.896   1.847  0.8803  1.0276 -0.1646
15748TIP3   OH268734   3.237   6.599   4.855  0.3651  0.6106  0.5102
15748TIP3    H168735   3.234   6.691   4.881 -1.3170  1.0015 -0.8956
15748TIP3    H268736   3.149   6.579   4.824  0.4110 -1.7756  1.6610
15749TIP3   OH268737   5.993   1.295  13.722 -0.3026  0.5067 -0.6704
15749TIP3    H168738   6.057   1.350  13.676  2.8773 -2.4394 -0.1495
15749TIP3    H268739   5.908   1.335  13.701  1.2837  2.2829 -4.9101
15750TIP3   OH268740   0.733   0.405   5.000 -0.4656  0.2658 -0.6218
15750TIP3    H168741   0.644   0.433   4.978 -0.4116  0.4257 -0.6310
15750TIP3    H268742   0.766   0.472   5.059 -0.2036  0.4169 -0.9334
15751TIP3   OH268743   0.005   5.949  14.691 -0.5552 -0.1895 -0.0475
15751TIP3    H168744   0.063   5.900  14.749 -0.0110 -0.8725 -1.1559
15751TIP3    H268745   0.010   5.904  14.607 -1.6084  0.5759 -0.5465
15752TIP3   OH268746   1.382   0.597  11.653  0.1254  0.1965 -0.1648
15752TIP3    H168747   1.352   0.549  11.576 -2.4768  0.5377  0.5410
15752TIP3    H268748   1.345   0.684  11.643  2.2797  1.1970  0.0541
15753TIP3   OH268749   1.048   1.649  15.836  0.1829  0.6203 -0.4894
15753TIP3    H168750   1.096   1.730  15.849 -0.3726  0.8872 -0.0724
15753TIP3    H268751   1.116   1.581  15.831  0.6216  1.0503 -0.3797
15754TIP3   OH268752   5.651   0.206   3.551  0.3061  0.0944 -0.6870
15754TIP3    H168753   5.708   0.277   3.520  1.1859 -0.8770 -1.3916
15754TIP3    H268754   5.710   0.131   3.562 -0.1269  0.0973  2.5126
15755TIP3   OH268755   5.729   1.939  15.001 -0.2223  0.1006  0.0031
15755TIP3    H168756   5.681   1.878  14.945 -1.9256  0.1834  1.2804
15755TIP3    H268757   5.665   2.007  15.023 -1.1212 -1.9025  5.1732
15756TIP3   OH268758   5.343   1.041   4.920 -0.7586  0.1347 -0.2603
15756TIP3    H168759   5.296   1.091   4.854 -0.0350 -0.3269 -1.1519
15756TIP3    H268760   5.413   0.997   4.872 -0.4082 -0.4722  0.7607
15757TIP3   OH268761   1.236   6.147   0.198 -0.3566  0.3752 -0.1284
15757TIP3    H168762   1.165   6.083   0.188 -0.3524  0.5074 -1.0518
15757TIP3    H268763   1.232   6.200   0.118  0.2033  0.9717  0.2291
15758TIP3   OH268764   0.307   4.572  13.166 -0.2003 -0.1795  0.0261
15758TIP3    H168765   0.215   4.578  13.142 -0.3078 -1.2707  0.0904
15758TIP3    H268766   0.338   4.493  13.122  0.0411 -1.2804  2.0364
15759TIP3   OH268767   3.264   5.254  15.215 -0.6684 -0.3289  0.4960
15759TIP3    H168768   3.176   5.273  15.184 -0.4220 -2.6829 -1.9869
15759TIP3    H268769   3.277   5.161  15.198  2.4558  0.0063  0.3277
15760TIP3   OH268770   5.614   2.178   0.522 -0.4430  0.3149 -0.3491
15760TIP3    H168771   5.637   2.184   0.614  0.2460  0.8758 -0.5511
15760TIP3    H268772   5.645   2.092   0.495  0.7654  0.7487 -0.4224
15761TIP3   OH268773   2.823   4.213   0.622  0.4586 -1.0072  0.4090
15761TIP3    H168774   2.729   4.198   0.615  0.1918 -0.0549  1.5445
15761TIP3    H268775   2.856   4.205   0.533 -0.8515 -0.4266 -0.1490
15762TIP3   OH268776   6.251   0.691   4.015 -0.0905  0.5040 -0.7949
15762TIP3    H168777   6.338   0.720   3.991  0.7222 -1.5496 -0.5764
15762TIP3    H268778   6.212   0.765   4.062  1.9821  1.0302  0.1829
15763TIP3   OH268779   2.239   5.489   1.772 -0.6610 -0.2358 -0.0319
15763TIP3    H168780   2.237   5.459   1.682  0.7693  0.3293 -0.2798
15763TIP3    H268781   2.239   5.409   1.824  2.8415 -0.7922 -0.6669
15764TIP3   OH268782   5.978   4.258   3.819 -0.1465 -0.1893 -0.8147
15764TIP3    H168783   5.888   4.234   3.800 -0.2953  0.9918 -1.7151
15764TIP3    H268784   6.020   4.176   3.845 -1.3359 -0.8470 -0.9195
15765TIP3   OH268785   0.563   4.124  17.102 -0.1953  0.0732  0.0258
15765TIP3    H168786   0.506   4.193  17.067 -1.9909 -0.5970  1.4721
15765TIP3    H268787   0.504   4.065  17.148  1.4695 -1.7432 -0.0486
15766TIP3   OH268788   3.455   5.542  12.473  0.3400 -0.4110  0.7223
15766TIP3    H168789   3.506   5.542  12.553  2.6755  0.2798 -0.6690
15766TIP3    H268790   3.492   5.470  12.421 -1.1598 -0.8869  0.2377
15767TIP3   OH268791   4.140   6.468  12.724 -0.4635 -0.1455  0.5367
15767TIP3    H168792   4.183   6.385  12.700 -1.3949 -0.8056  1.0790
15767TIP3    H268793   4.106   6.453  12.812 -0.5297  0.8788  0.7004
15768TIP3   OH268794   4.490   3.017   5.453  0.2911  0.0412  0.2763
15768TIP3    H168795   4.469   2.949   5.389  1.1884 -1.3532  1.3810
15768TIP3    H268796   4.500   3.097   5.402  0.5503 -0.9321 -1.2565
15769TIP3   OH268797   4.590   2.697  15.012 -0.0341 -0.1308  0.7278
15769TIP3    H168798   4.681   2.723  15.025 -0.0884  0.0378  0.7751
15769TIP3    H268799   4.544   2.780  14.994  0.1482 -0.3861 -1.1562
15770TIP3   OH268800   5.525   5.096  11.332  0.0882 -0.3183 -0.0691
15770TIP3    H168801   5.569   5.080  11.249 -1.1688 -0.2265 -0.7706
15770TIP3    H268802   5.444   5.045  11.328 -0.9106  1.1617  0.2852
15771TIP3   OH268803   3.126   5.470  11.372  0.5300  0.2191 -0.2227
15771TIP3    H168804   3.097   5.419  11.296 -0.2193  0.3193 -0.0123
15771TIP3    H268805   3.092   5.422  11.447  0.9136  0.3451  0.0308
15772TIP3   OH268806   1.693   2.722   4.412  0.6458 -0.3816 -0.1333
15772TIP3    H168807   1.750   2.655   4.375 -1.6018 -1.2221 -2.4135
15772TIP3    H268808   1.612   2.675   4.432  0.6305  0.7508  2.9478
15773TIP3   OH268809   2.971   6.453   2.673  0.8174  0.1832 -0.0252
15773TIP3    H168810   2.938   6.527   2.622 -0.0763  0.0377  0.3279
15773TIP3    H268811   2.958   6.377   2.616 -2.0779 -0.2962  1.0929
15774TIP3   OH268812   5.212   1.268   4.856  0.0418 -0.0328  0.1196
15774TIP3    H168813   5.228   1.349   4.808  0.5865 -1.0786 -1.5294
15774TIP3    H268814   5.127   1.237   4.823  1.0138 -1.4227 -1.2033
15775TIP3   OH268815   2.416   2.440   0.607 -0.0121  0.2112  0.0575
15775TIP3    H168816   2.460   2.520   0.634 -1.0820  1.1981 -1.0242
15775TIP3    H268817   2.324   2.465   0.597 -0.2545 -0.9690 -0.9780
15776TIP3   OH268818   1.621   3.086  13.607 -0.2542 -1.0167  0.0092
15776TIP3    H168819   1.687   3.037  13.657  0.3848  1.3620  1.6715
15776TIP3    H268820   1.615   3.170  13.652 -0.7515  0.7414 -3.0998
15777TIP3   OH268821   3.195   0.785   5.071  0.5676 -0.8726  0.1075
15777TIP3    H168822   3.217   0.702   5.027  1.4017 -0.5280 -0.1436
15777TIP3    H268823   3.133   0.760   5.139  0.7215 -1.6893 -0.0371
15778TIP3   OH268824   5.971   0.866  15.961  0.0153  0.2644 -0.2500
15778TIP3    H168825   6.021   0.943  15.987  1.4037 -1.0167  1.0739
15778TIP3    H268826   5.881   0.896  15.956  0.7624  2.4683 -1.9205
15779TIP3   OH268827   5.770   5.347  11.351 -0.3591 -0.2500  0.2533
15779TIP3    H168828   5.725   5.399  11.284  0.0019 -0.9115 -0.5224
15779TIP3    H268829   5.791   5.265  11.307  1.5690  0.0208  0.6010
15780TIP3   OH268830   3.301   5.503   1.921  0.3297  0.0852 -0.1451
15780TIP3    H168831   3.323   5.582   1.872 -0.0859 -0.7515 -1.7703
15780TIP3    H268832   3.373   5.492   1.983  1.3299  0.7539 -1.1432
15781TIP3   OH268833   5.211   1.015  13.765 -0.6767 -0.1197  0.0142
15781TIP3    H168834   5.239   1.077  13.698  0.0374  0.2373  0.6323
15781TIP3    H268835   5.139   1.059  13.810 -2.4007 -1.0805 -1.6427
15782TIP3   OH268836   6.693   6.218  11.766 -0.4108 -0.0469 -0.0988
15782TIP3    H168837   6.727   6.155  11.702 -0.2204  1.2471 -1.3245
15782TIP3    H268838   6.601   6.230  11.741 -0.0475  1.2946 -0.8496
15783TIP3   OH268839   4.800   2.806  11.039 -0.0253 -0.0594 -0.1621
15783TIP3    H168840   4.807   2.882  10.981  0.5764 -0.9288 -1.2536
15783TIP3    H268841   4.735   2.750  10.997 -1.1714  0.2389  1.1249
15784TIP3   OH268842   6.783   3.027   0.476 -0.4898 -0.3185  0.2429
15784TIP3    H168843   6.745   2.939   0.487  0.2581 -0.6152  0.5019
15784TIP3    H268844   6.877   3.014   0.486 -0.5087  0.9044  3.0255
15785TIP3   OH268845   4.422   0.510  10.827 -0.5986  0.8785  0.2199
15785TIP3    H168846   4.368   0.543  10.899 -0.7738  1.2681 -0.0811
15785TIP3    H268847   4.467   0.588  10.794 -0.4929  0.6977 -0.0648
15786TIP3   OH268848   2.193   0.411   6.055 -0.1836  0.0753  0.9019
15786TIP3    H168849   2.185   0.381   5.964 -0.5008  1.3053  0.5032
15786TIP3    H268850   2.287   0.426   6.067 -0.3018  1.5290  0.2094
15787TIP3   OH268851   3.328   3.821  16.768 -0.2533 -0.6262  0.4695
15787TIP3    H168852   3.338   3.794  16.860  0.3707 -2.3069 -0.0564
15787TIP3    H268853   3.276   3.751  16.728  0.1210 -0.2926 -0.6330
15788TIP3   OH268854   4.128   5.934   0.245  0.0409 -0.1785 -0.0101
15788TIP3    H168855   4.050   5.985   0.267  0.2041 -0.2647  0.8004
15788TIP3    H268856   4.099   5.843   0.251 -0.0078 -0.2003 -0.5358
15789TIP3   OH268857   0.238   5.358  15.778 -0.3266 -0.4139  0.0826
15789TIP3    H168858   0.239   5.356  15.874  1.3263 -1.6183  0.0841
15789TIP3    H268859   0.314   5.305  15.752 -0.8125 -0.2166 -1.8986
15790TIP3   OH268860   4.342   6.041  10.455 -0.0315 -0.3509  0.5070
15790TIP3    H168861   4.387   6.059  10.373 -0.0217 -0.1621  0.5507
15790TIP3    H268862   4.329   6.128  10.494 -0.4450 -0.4011  0.4863
15791TIP3   OH268863   1.796   5.115   3.857 -0.0755 -0.0391  0.6439
15791TIP3    H168864   1.736   5.104   3.930 -0.0429  0.7611  0.8096
15791TIP3    H268865   1.825   5.027   3.834  2.2788 -0.1815  3.5534
15792TIP3   OH268866   2.176   2.427   6.027 -0.1871 -0.3440 -0.2524
15792TIP3    H168867   2.157   2.347   6.076  0.1792 -0.0467  0.3880
15792TIP3    H268868   2.265   2.452   6.054 -1.2932  1.8405  1.7978
15793TIP3   OH268869   5.290   5.140   5.771  0.1905 -0.7472  0.9815
15793TIP3    H168870   5.347   5.066   5.789 -0.9723 -2.0286 -0.4217
15793TIP3    H268871   5.203   5.102   5.762 -0.6188  0.9407  1.2946
15794TIP3   OH268872   3.486   4.610  12.724 -0.0750  0.5397 -0.4280
15794TIP3    H168873   3.552   4.575  12.784  1.3354  0.5472 -1.9137
15794TIP3    H268874   3.471   4.539  12.662  1.1526  1.7084 -2.1478
15795TIP3   OH268875   4.276   0.730  15.482 -0.2237 -0.2709  0.5180
15795TIP3    H168876   4.194   0.691  15.449  0.9540 -1.3577 -1.3125
15795TIP3    H268877   4.257   0.823  15.490 -1.5771 -0.4630 -0.1540
15796TIP3   OH268878   1.220   0.079  13.818 -0.6563 -0.5937  0.2540
15796TIP3    H168879   1.158   0.059  13.889 -2.2476  0.9292 -0.6263
15796TIP3    H268880   1.232   0.174  13.823 -0.4769 -0.5222 -1.2561
15797TIP3   OH268881   2.718   2.779  12.289  0.0897 -0.2970 -0.2768
15797TIP3    H168882   2.658   2.722  12.337  0.5005 -0.2354  0.3128
15797TIP3    H268883   2.767   2.825  12.356  1.6078 -1.1798 -0.7307
15798TIP3   OH268884   5.802   0.870   3.583  0.1286  0.3353 -0.1674
15798TIP3    H168885   5.743   0.845   3.512  1.1098  0.9192 -1.2307
15798TIP3    H268886   5.744   0.903   3.651 -0.8571 -0.4481 -0.5951
15799TIP3   OH268887   0.186   0.362  14.678 -0.2991 -0.1083  0.1734
15799TIP3    H168888   0.122   0.432  14.692  0.1341  0.2545  0.3535
15799TIP3    H268889   0.134   0.282  14.681 -1.1420  0.2772 -2.0247
15800TIP3   OH268890   3.303   5.936  15.057 -0.4790 -0.1011  0.5435
15800TIP3    H168891   3.247   5.877  15.006 -0.6441 -1.2636  2.0018
15800TIP3    H268892   3.331   5.883  15.131  2.7877  0.3312 -0.2361
15801TIP3   OH268893   2.408   2.072  11.365  0.6093 -0.0851 -0.2335
15801TIP3    H168894   2.447   2.065  11.278  0.4496 -1.8637 -0.2055
15801TIP3    H268895   2.328   2.019  11.360  1.1621 -1.1593  1.2727
15802TIP3   OH268896   3.220   1.573  11.857 -0.0597 -0.6874  0.6852
15802TIP3    H168897   3.243   1.497  11.911  0.5534 -1.4363 -0.5774
15802TIP3    H268898   3.126   1.583  11.869  0.2225 -0.1231  2.7600
15803TIP3   OH268899   2.174   4.507   2.057  0.4216  0.4200  0.4931
15803TIP3    H168900   2.259   4.513   2.100  1.1066 -0.6382 -0.6369
15803TIP3    H268901   2.179   4.427   2.004 -0.6194  1.2601 -0.9797
15804TIP3   OH268902   1.241   3.431   2.263  0.3887  0.1750  0.2634
15804TIP3    H168903   1.238   3.517   2.305 -1.3188 -1.0102  2.8474
15804TIP3    H268904   1.263   3.370   2.334  1.0544 -1.5985 -1.3803
15805TIP3   OH268905   5.124   6.251   0.258  0.0761  0.1593 -0.1657
15805TIP3    H168906   5.081   6.259   0.343 -0.8711 -0.1526 -0.6114
15805TIP3    H268907   5.067   6.296   0.196  0.6808  0.2544 -0.6717
15806TIP3   OH268908   1.117   2.044   1.575 -0.7592  0.0403  0.1986
15806TIP3    H168909   1.029   2.023   1.543 -0.0293 -0.0658 -1.9262
15806TIP3    H268910   1.139   2.126   1.531  0.8085 -0.7774 -0.6233
15807TIP3   OH268911   2.177   2.756  15.267  0.1232  0.2080  0.0155
15807TIP3    H168912   2.212   2.671  15.242 -1.1502 -0.0311 -1.0648
15807TIP3    H268913   2.183   2.810  15.188  1.8541  1.4795  0.9548
15808TIP3   OH268914   2.306   5.199   5.057  0.2819 -0.5076 -0.7493
15808TIP3    H168915   2.384   5.249   5.031  0.4892  0.1542  1.0316
15808TIP3    H268916   2.237   5.265   5.063  0.5056 -0.3949  1.3969
15809TIP3   OH268917   2.567   4.003  10.571 -0.2820  0.1721  0.3362
15809TIP3    H168918   2.531   3.921  10.538  1.8564 -0.3580 -0.8605
15809TIP3    H268919   2.600   3.981  10.659 -1.2809  0.2348  0.7394
15810TIP3   OH268920   5.121   0.014  14.183  0.6538  0.2202  0.2800
15810TIP3    H168921   5.194   0.064  14.146  0.4110  0.2143 -0.2253
15810TIP3    H268922   5.162  -0.051  14.240  1.0144  0.4986  0.3369
15811TIP3   OH268923   0.012   3.218   6.068  0.6274  0.1653  0.4503
15811TIP3    H168924   0.043   3.150   6.127  1.8116  1.5080  1.4744
15811TIP3    H268925  -0.083   3.209   6.069  0.6745 -0.5157  1.7617
15812TIP3   OH268926   0.221   1.734   5.323 -0.3142  0.6752  0.4088
15812TIP3    H168927   0.282   1.784   5.378 -0.2209  0.4258  0.5357
15812TIP3    H268928   0.200   1.657   5.375 -1.3030  1.1080  0.6566
15813TIP3   OH268929   2.762   4.513   2.447 -0.2354  0.1451 -0.0755
15813TIP3    H168930   2.717   4.535   2.365  1.1482 -0.1425 -0.9618
15813TIP3    H268931   2.702   4.541   2.516 -1.7674 -0.2778 -1.1790
15814TIP3   OH268932   0.526   3.320   2.367 -0.0498 -0.4277 -0.2149
15814TIP3    H168933   0.494   3.402   2.405  1.4342 -0.4496  1.2418
15814TIP3    H268934   0.590   3.348   2.301  0.1953 -0.4027  0.0313
15815TIP3   OH268935   0.525   5.906  10.960  0.0833  0.0389 -0.3152
15815TIP3    H168936   0.486   5.992  10.942 -1.3222 -0.7172 -1.0160
15815TIP3    H268937   0.519   5.859  10.878  3.7714  0.2769 -0.8949
15816TIP3   OH268938   2.695   2.527  15.875 -0.0655 -0.0309  0.0547
15816TIP3    H168939   2.606   2.561  15.883  0.3257  1.1125 -0.2921
15816TIP3    H268940   2.695   2.479  15.792 -0.3500 -0.0312  0.0540
15817TIP3   OH268941   3.196   0.390  11.408 -0.1869 -0.3689  0.3256
15817TIP3    H168942   3.290   0.377  11.401 -0.2449 -0.5332 -0.1980
15817TIP3    H268943   3.159   0.301  11.406 -0.4638 -0.2544 -1.3630
15818TIP3   OH268944   0.788   0.042   2.404  0.0022  0.1521  0.7200
15818TIP3    H168945   0.877   0.006   2.404  0.3700  0.9936  1.9887
15818TIP3    H268946   0.742  -0.009   2.471 -0.6610 -0.6683 -0.3301
15819TIP3   OH268947   3.680   6.256   5.626 -0.4815  0.2558  0.2700
15819TIP3    H168948   3.753   6.207   5.588  0.4818  1.5884  0.3249
15819TIP3    H268949   3.656   6.207   5.704  0.0084 -0.4785 -0.0269
15820TIP3   OH268950   0.276   1.135  16.812 -0.2786  0.2041 -0.4604
15820TIP3    H168951   0.277   1.164  16.721 -0.0615 -3.1654 -1.6956
15820TIP3    H268952   0.211   1.064  16.814  0.2754 -0.3425  1.8359
15821TIP3   OH268953   1.617   3.789  13.249  0.2677 -0.1033  0.2112
15821TIP3    H168954   1.562   3.718  13.283  0.3896 -0.9245 -1.1853
15821TIP3    H268955   1.558   3.839  13.192  0.2900  0.6890  0.8686
15822TIP3   OH268956   0.910   5.646   6.484 -0.0591  0.5670  0.2890
15822TIP3    H168957   0.949   5.582   6.544 -0.3698  0.1496  0.0504
15822TIP3    H268958   0.866   5.709   6.541  0.6478  0.8378  0.5458
15823TIP3   OH268959   0.716   6.534  12.080 -0.7232  0.3411 -0.2660
15823TIP3    H168960   0.678   6.560  11.996  1.7753  0.2153 -1.5116
15823TIP3    H268961   0.786   6.598  12.095 -0.1807 -0.5206  0.9988
15824TIP3   OH268962   5.678   6.490  13.531 -0.0500 -0.6244  0.3835
15824TIP3    H168963   5.596   6.478  13.579  0.5782 -0.3991  1.5458
15824TIP3    H268964   5.700   6.402  13.499 -1.0319 -0.5831 -0.4401
15825TIP3   OH268965   3.294   0.564  16.638 -0.5596 -0.3163 -0.0508
15825TIP3    H168966   3.269   0.475  16.664  0.3869 -0.9588 -1.2365
15825TIP3    H268967   3.229   0.589  16.572  0.4868 -1.0649 -1.4102
15826TIP3   OH268968   3.533   5.873   3.134  0.2728  0.2496  0.2107
15826TIP3    H168969   3.460   5.836   3.183 -0.5302 -0.3751 -1.4145
15826TIP3    H268970   3.585   5.918   3.201 -1.0193 -0.1676  1.5614
15827TIP3   OH268971   0.190   2.553   2.935 -0.1207 -0.5116  0.3126
15827TIP3    H168972   0.195   2.474   2.883  0.2694  0.0361 -0.5071
15827TIP3    H268973   0.234   2.531   3.017 -0.9476 -1.4551  0.5235
15828TIP3   OH268974   0.318   2.872   2.444  0.1238 -0.1166  0.4438
15828TIP3    H168975   0.332   2.964   2.420 -2.0244  0.2787  0.5424
15828TIP3    H268976   0.317   2.873   2.540  0.1936 -0.2592  0.4456
15829TIP3   OH268977   3.894   3.621   2.858  0.1444 -0.2658 -0.6403
15829TIP3    H168978   3.952   3.695   2.842 -0.3456  0.4693  0.7952
15829TIP3    H268979   3.905   3.564   2.781  2.3637  0.0792 -0.6268
15830TIP3   OH268980   2.147   3.611  13.905  0.5357 -0.6858 -0.0771
15830TIP3    H168981   2.185   3.626  13.991  2.9615 -1.1590 -0.9790
15830TIP3    H268982   2.139   3.516  13.898 -0.1013 -0.6300 -0.2213
15831TIP3   OH268983   3.900   6.502   4.175  0.4713 -0.1206  0.1045
15831TIP3    H168984   3.854   6.529   4.254 -0.3986 -0.6553 -0.2069
15831TIP3    H268985   3.893   6.577   4.116  2.9744  1.1435  1.2474
15832TIP3   OH268986   5.275   4.094  16.340 -0.0898  0.2403  0.2795
15832TIP3    H168987   5.357   4.141  16.354  0.9287 -1.1401 -0.8268
15832TIP3    H268988   5.276   4.071  16.247 -1.6847  0.0814  0.2693
15833TIP3   OH268989   1.274   1.912   3.097 -0.4462 -0.4766 -0.0571
15833TIP3    H168990   1.236   1.897   3.010 -2.0922  0.0026  0.5325
15833TIP3    H268991   1.258   2.005   3.113 -0.8719 -0.7383  1.0795
15834TIP3   OH268992   1.839   5.415  12.674  0.1799  0.3785  0.5781
15834TIP3    H168993   1.920   5.366  12.665 -0.0115  0.0123  0.8099
15834TIP3    H268994   1.856   5.478  12.743  0.3723  0.5264  0.3977
15835TIP3   OH268995   1.744   2.224  14.566  0.2176  0.5512  0.1843
15835TIP3    H168996   1.704   2.245  14.482  2.7793  0.0927 -1.2537
15835TIP3    H268997   1.729   2.302  14.620 -0.1018  1.5095 -1.2419
15836TIP3   OH268998   5.534   1.270   4.651  0.3542  0.2927  0.0611
15836TIP3    H168999   5.605   1.248   4.711 -0.8294 -1.1201  1.0101
15836TIP3    H269000   5.579   1.304   4.573  1.9692  1.1156  1.2847
15837TIP3   OH269001   4.007   4.768  13.044 -0.4906 -0.4794 -1.0578
15837TIP3    H169002   4.083   4.811  13.084 -0.1727 -0.1861 -1.9652
15837TIP3    H269003   4.041   4.683  13.015 -1.0561 -1.2786  0.5109
15838TIP3   OH269004   6.655   4.992   0.163  0.2713 -0.2952 -0.3336
15838TIP3    H169005   6.664   5.082   0.193  1.0257 -0.5507  0.2467
15838TIP3    H269006   6.699   4.940   0.230 -1.7844 -1.2935  0.3437
15839TIP3   OH269007   3.437   2.300  16.208 -0.1665  0.2399  0.1064
15839TIP3    H169008   3.414   2.361  16.138 -2.1333 -0.2096  0.3047
15839TIP3    H269009   3.425   2.350  16.289 -0.2468  0.0532  0.2100
15840TIP3   OH269010   3.413   3.120   5.267 -0.7278  0.1010 -0.6179
15840TIP3    H169011   3.484   3.150   5.211  0.8598 -0.6137  0.9071
15840TIP3    H269012   3.346   3.188   5.260  0.0316  0.7391 -2.1904
15841TIP3   OH269013   2.363   2.586  11.441  0.9665 -0.5411 -0.3067
15841TIP3    H169014   2.335   2.669  11.403  2.0435  0.2221  0.4913
15841TIP3    H269015   2.358   2.524  11.368 -3.5382 -0.7750 -0.0571
15842TIP3   OH269016   0.201   0.781   4.133  0.3379 -0.5258 -0.3395
15842TIP3    H169017   0.287   0.814   4.104  0.2087 -0.8672 -1.1215
15842TIP3    H269018   0.138   0.823   4.074 -0.0767 -0.0389  0.4240
15843TIP3   OH269019   5.125   6.251  14.944 -0.2569  0.0120 -0.0948
15843TIP3    H169020   5.037   6.221  14.924 -0.0992 -0.1306 -0.5818
15843TIP3    H269021   5.137   6.330  14.892  0.0978 -0.2725 -0.4500
15844TIP3   OH269022   1.374   1.050   0.820 -0.3401  0.2292 -0.6147
15844TIP3    H169023   1.357   1.142   0.799  0.1847  0.5775  0.3801
15844TIP3    H269024   1.341   1.040   0.910 -1.2453 -0.8155 -1.0372
15845TIP3   OH269025   3.192   1.522  12.885 -0.0193 -0.0376  0.4988
15845TIP3    H169026   3.260   1.527  12.952  1.0923 -1.4357 -0.4680
15845TIP3    H269027   3.126   1.464  12.923  0.7886 -1.1391  0.2583
15846TIP3   OH269028   0.863   4.440   5.651 -0.1563 -0.0466  0.4020
15846TIP3    H169029   0.915   4.413   5.727  0.4685  1.8960  0.7195
15846TIP3    H269030   0.799   4.502   5.687  0.5369  1.3751 -0.7005
15847TIP3   OH269031   3.740   6.817   1.115 -0.0453 -0.4056  0.2173
15847TIP3    H169032   3.758   6.782   1.028  0.1399  0.4750 -0.1053
15847TIP3    H269033   3.706   6.905   1.099  0.7141  0.0529  1.0745
15848TIP3   OH269034   6.032   4.073  14.515 -0.5045  0.1327 -0.1727
15848TIP3    H169035   5.946   4.035  14.495 -0.3398  1.0456 -3.1927
15848TIP3    H269036   6.071   4.013  14.579 -2.1992 -1.9858 -0.9886
15849TIP3   OH269037   0.495   3.666   3.651  0.0849  0.8322  0.5717
15849TIP3    H169038   0.434   3.596   3.673 -0.9138  1.3369 -0.4403
15849TIP3    H269039   0.443   3.727   3.598  1.6255  0.9920 -0.8330
15850TIP3   OH269040   2.185   6.382   3.740  0.1484  0.1621  1.4689
15850TIP3    H169041   2.246   6.414   3.673 -0.0523  0.2223  1.3135
15850TIP3    H269042   2.106   6.360   3.691 -0.5240  1.5680  1.8703
15851TIP3   OH269043   2.709   0.103  14.775 -0.2315  0.6766 -0.1407
15851TIP3    H169044   2.731   0.024  14.824 -0.2315  0.1524 -0.9650
15851TIP3    H269045   2.639   0.076  14.715  0.8193  0.8956 -1.5114
15852TIP3   OH269046   4.973   4.201  16.851  0.0217 -0.3569 -0.0764
15852TIP3    H169047   4.880   4.180  16.836 -0.0837 -0.7772  1.0408
15852TIP3    H269048   4.971   4.276  16.910  0.3152 -2.1544  2.3801
15853TIP3   OH269049   0.672   6.374  16.712 -0.1045 -0.1685  0.1628
15853TIP3    H169050   0.635   6.392  16.626  2.6934 -1.3106 -1.4167
15853TIP3    H269051   0.679   6.278  16.716 -0.9877 -0.2123  2.0891
15854TIP3   OH269052   4.255   4.230  12.331  0.0659  0.2827  0.5896
15854TIP3    H169053   4.321   4.168  12.300  0.3674  1.5707 -1.5255
15854TIP3    H269054   4.306   4.300  12.372  0.0170  0.9505 -0.4463
15855TIP3   OH269055   3.579   6.810  15.757 -0.5587  0.1016  0.5764
15855TIP3    H169056   3.552   6.719  15.743  0.7049 -0.4847  1.7485
15855TIP3    H269057   3.496   6.858  15.764 -1.2482 -0.7874 -0.9321
15856TIP3   OH269058   2.175   2.066   5.600 -0.3153  0.5144  0.4682
15856TIP3    H169059   2.128   2.017   5.533  2.6330 -0.3770 -1.1231
15856TIP3    H269060   2.136   2.037   5.683 -2.7121  0.1379 -0.7216
15857TIP3   OH269061   3.307   2.664   2.287 -0.4018  0.1180  0.2960
15857TIP3    H169062   3.304   2.757   2.267  1.0094 -0.0075 -0.5906
15857TIP3    H269063   3.374   2.656   2.355  0.8830 -0.4520 -0.9975
15858TIP3   OH269064   2.576   6.076  12.276  0.5441 -0.0071  0.1412
15858TIP3    H169065   2.513   6.058  12.347 -0.0705 -0.7946 -0.5728
15858TIP3    H269066   2.525   6.121  12.209  1.1431  0.8117  0.2179
15859TIP3   OH269067   2.903   2.538  10.915 -0.3277  0.2109 -0.2447
15859TIP3    H169068   2.976   2.599  10.905  0.2937 -0.7192 -2.0128
15859TIP3    H269069   2.840   2.565  10.849 -1.4582  0.7842  1.0309
15860TIP3   OH269070   3.631   4.360  14.566 -0.1559  0.5277 -0.1673
15860TIP3    H169071   3.547   4.343  14.610  0.2088 -0.8561  0.0656
15860TIP3    H269072   3.650   4.452  14.583 -1.6680  0.8806 -0.3001
15861TIP3   OH269073   6.022   3.524  13.463  0.1117  0.3760  0.4459
15861TIP3    H169074   5.989   3.558  13.546 -2.2884 -0.0086 -0.2644
15861TIP3    H269075   6.093   3.583  13.439  0.6135  0.7200  2.5591
15862TIP3   OH269076   5.978   1.056  11.331 -0.2875 -0.2274 -0.3534
15862TIP3    H169077   6.063   1.039  11.291 -0.4613 -0.3744 -0.6650
15862TIP3    H269078   5.961   0.980  11.386  0.4876  0.5016  0.9429
15863TIP3   OH269079   5.792   1.145  12.668  0.2487 -0.0722 -0.2510
15863TIP3    H169080   5.798   1.152  12.573  0.7237  0.0906 -0.2124
15863TIP3    H269081   5.790   1.236  12.699 -2.0515 -0.0704 -0.2150
15864TIP3   OH269082   0.876   3.941   3.027  0.5223  0.3574  0.6307
15864TIP3    H169083   0.891   4.006   2.959 -1.1255 -0.9838 -1.1583
15864TIP3    H269084   0.782   3.947   3.047 -0.0800 -2.4287 -0.7951
15865TIP3   OH269085   0.511   5.937   2.801 -0.1404  0.1190 -0.6100
15865TIP3    H169086   0.461   5.857   2.784 -0.4795  0.6254 -2.0984
15865TIP3    H269087   0.446   6.002   2.825  0.2435 -0.3182  1.8313
15866TIP3   OH269088   5.348   4.347  16.056  0.6133  0.3397  0.5495
15866TIP3    H169089   5.375   4.402  16.130 -0.0984  2.1463 -0.4535
15866TIP3    H269090   5.253   4.341  16.064  0.3845  1.5384 -0.7926
15867TIP3   OH269091   0.438   1.003   2.356  0.8790  0.3929  0.0099
15867TIP3    H169092   0.463   1.053   2.279  1.1241  1.3317  0.6795
15867TIP3    H269093   0.394   0.925   2.321  1.9264  0.2745 -1.0989
15868TIP3   OH269094   6.236   4.236   5.221 -0.2802  0.0889  0.7314
15868TIP3    H169095   6.247   4.263   5.312  2.6738  0.2646  0.4123
15868TIP3    H269096   6.180   4.158   5.226 -2.7765  1.8138  2.3267
15869TIP3   OH269097   0.362   1.234  13.842  0.1487 -0.7959  0.1531
15869TIP3    H169098   0.305   1.187  13.903  0.2450 -0.8463  0.2046
15869TIP3    H269099   0.325   1.216  13.756 -0.2925 -0.2952  0.2395
15870TIP3   OH269100   0.706   3.269   5.882 -0.4217 -0.9549 -0.2224
15870TIP3    H169101   0.762   3.324   5.937 -1.0442  0.5594 -1.0408
15870TIP3    H269102   0.619   3.277   5.922 -1.0429  0.7708 -1.7652
15871TIP3   OH269103   6.147   4.852  16.751 -0.0674 -0.2712  0.0110
15871TIP3    H169104   6.073   4.864  16.693  1.5647  2.1953 -1.7293
15871TIP3    H269105   6.209   4.921  16.727  2.3099 -1.4661  2.1630
15872TIP3   OH269106   6.536   4.982   2.006 -0.3796  0.1516 -0.4360
15872TIP3    H169107   6.485   4.902   1.993  0.0421 -0.2473  0.3048
15872TIP3    H269108   6.553   4.985   2.100  1.0349  0.2266 -0.6737
15873TIP3   OH269109   4.874   6.511  12.394  0.2676  0.0767 -0.3186
15873TIP3    H169110   4.864   6.442  12.329  1.4697 -1.1442  0.7402
15873TIP3    H269111   4.794   6.563  12.386 -0.6654 -1.4251 -1.1600
15874TIP3   OH269112   1.415   3.784  13.715 -0.0972  0.4378  0.2273
15874TIP3    H169113   1.453   3.816  13.633  1.0439 -0.6867  0.2869
15874TIP3    H269114   1.445   3.846  13.782 -2.0615  2.0948 -0.3229
15875TIP3   OH269115   1.178   6.682  12.945  0.3073  0.1042 -1.2329
15875TIP3    H169116   1.111   6.616  12.965  0.4687  0.1708 -0.4390
15875TIP3    H269117   1.166   6.749  13.013  1.1254  0.1516 -1.1286
15876TIP3   OH269118   3.565   5.766  13.884 -0.0099 -0.2151  0.3569
15876TIP3    H169119   3.616   5.753  13.804  0.8806 -3.5449  1.3103
15876TIP3    H269120   3.564   5.860  13.897  2.2418  0.2410 -2.0199
15877TIP3   OH269121   2.707   3.420  11.304 -0.0190  0.4209 -0.0011
15877TIP3    H169122   2.760   3.447  11.229 -0.9758 -0.1380 -0.9080
15877TIP3    H269123   2.650   3.351  11.270 -1.3777  1.0413  0.8970
15878TIP3   OH269124   6.026   5.970  15.634 -0.3229  0.7035 -0.2577
15878TIP3    H169125   6.105   5.944  15.680 -0.8552 -1.3639 -0.4012
15878TIP3    H269126   5.964   5.993  15.703  0.7638  3.7115 -0.1709
15879TIP3   OH269127   1.991   3.803   6.718  0.4381 -0.3069 -0.1618
15879TIP3    H169128   2.015   3.734   6.780  1.9398  0.2146 -0.1328
15879TIP3    H269129   2.070   3.856   6.708  0.2097 -0.2812 -2.4168
15880TIP3   OH269130   1.207   2.088  14.138 -0.2815 -0.1868 -0.5222
15880TIP3    H169131   1.246   2.002  14.126 -0.6364 -0.5153  0.4957
15880TIP3    H269132   1.280   2.149  14.137 -0.0820 -0.4188 -1.8292
15881TIP3   OH269133   2.772   3.549  11.058 -0.2570 -0.3486 -0.3418
15881TIP3    H169134   2.784   3.599  10.977  1.1500 -0.2634 -0.1049
15881TIP3    H269135   2.737   3.464  11.029  1.4070 -0.7860 -1.2065
15882TIP3   OH269136   5.004   2.319   3.012 -0.3574  0.4467  0.2754
15882TIP3    H169137   5.060   2.303   3.088 -1.7593  0.6235  1.3705
15882TIP3    H269138   5.022   2.245   2.954 -1.7314 -1.5868  2.2743
15883TIP3   OH269139   4.548   4.104  12.539 -0.6987 -0.1573 -0.2538
15883TIP3    H169140   4.532   4.082  12.447 -0.2810 -0.3729 -0.2780
15883TIP3    H269141   4.467   4.147  12.568 -1.0398 -0.5831 -0.5663
15884TIP3   OH269142   4.476   0.394   5.022 -0.1691 -0.0731 -0.0977
15884TIP3    H169143   4.498   0.449   5.097 -0.4873  0.0418 -0.0856
15884TIP3    H269144   4.528   0.315   5.034  0.1144  0.1281  0.0093
15885TIP3   OH269145   6.358   5.797  15.709  0.0217 -0.6148 -0.1523
15885TIP3    H169146   6.402   5.765  15.789  1.5988 -0.3792 -0.8842
15885TIP3    H269147   6.326   5.884  15.733 -1.6397 -1.4755  0.9307
15886TIP3   OH269148   4.207   2.074  11.239  0.2743  0.1720 -0.2105
15886TIP3    H169149   4.241   2.159  11.268  0.0673  0.3263 -0.4032
15886TIP3    H269150   4.256   2.009  11.289 -0.2372  0.4347  0.6592
15887TIP3   OH269151   4.796   0.063   0.238  0.6066 -0.1649  0.2286
15887TIP3    H169152   4.824   0.031   0.323 -0.0191 -1.0568  0.1082
15887TIP3    H269153   4.742   0.139   0.257  1.2865  0.2446  0.5659
15888TIP3   OH269154   4.544   5.746   3.301 -0.1306 -0.5787 -0.1025
15888TIP3    H169155   4.480   5.730   3.232  0.9802 -0.9522 -1.0827
15888TIP3    H269156   4.625   5.704   3.270  0.4625 -0.5749  1.3283
15889TIP3   OH269157   3.710   1.064  16.357 -0.5279 -0.0648  0.0454
15889TIP3    H169158   3.769   1.003  16.400  0.8421 -0.3251 -2.0634
15889TIP3    H269159   3.651   1.008  16.306 -1.8563  0.2548  1.1617
15890TIP3   OH269160   2.171   1.335  11.097  0.4170  0.3534 -0.0249
15890TIP3    H169161   2.242   1.374  11.149  0.7864 -0.2231 -0.0885
15890TIP3    H269162   2.171   1.386  11.016 -0.0623  1.1591  0.4697
15891TIP3   OH269163   4.937   1.849  12.551 -0.0927 -0.5882 -0.0472
15891TIP3    H169164   4.989   1.777  12.515  1.2465 -0.7836  2.1221
15891TIP3    H269165   4.918   1.822  12.641 -0.0110  1.5246  0.6490
15892TIP3   OH269166   5.303   1.675  16.462 -0.3248  0.3961 -0.2308
15892TIP3    H169167   5.316   1.750  16.404 -1.0014 -0.3142 -1.3472
15892TIP3    H269168   5.389   1.634  16.468 -0.2160  0.5585 -0.6355
15893TIP3   OH269169   1.532   3.850  16.860 -0.2349 -0.5990  0.3289
15893TIP3    H169170   1.600   3.794  16.824 -0.1485 -1.0373  1.1427
15893TIP3    H269171   1.525   3.822  16.952 -1.2208 -0.2831  0.3551
15894TIP3   OH269172   0.062   2.288  15.892  0.0709  0.1027 -0.7503
15894TIP3    H169173   0.030   2.367  15.849  3.5813  2.4637  0.5381
15894TIP3    H269174   0.095   2.234  15.821 -0.5118  0.7120 -1.5082
15895TIP3   OH269175   2.143   0.665   6.223 -0.8654 -0.8184  0.4609
15895TIP3    H169176   2.217   0.713   6.186 -1.6658 -0.3274 -0.5249
15895TIP3    H269177   2.183   0.589   6.266  0.3910  0.5405  1.8094
15896TIP3   OH269178   5.823   6.516  15.601  0.3222 -0.4643 -0.6049
15896TIP3    H169179   5.885   6.449  15.570 -1.0064 -2.0803  0.0555
15896TIP3    H269180   5.737   6.480  15.581 -0.4771  0.3371  1.1638
15897TIP3   OH269181   0.664   0.451  17.027  0.7849 -0.0611  0.3239
15897TIP3    H169182   0.718   0.373  17.030  0.9472 -0.0019 -0.6244
15897TIP3    H269183   0.589   0.426  16.973  1.0936  0.5797 -0.4164
15898TIP3   OH269184   4.132   3.911   4.063 -0.1603  0.8020 -0.6909
15898TIP3    H169185   4.139   3.989   4.118 -0.6859 -0.7283  1.6472
15898TIP3    H269186   4.178   3.842   4.111 -3.4426 -1.4329 -0.4675
15899TIP3   OH269187   0.882   4.202  14.917  0.0758 -0.0995  0.7484
15899TIP3    H169188   0.948   4.204  14.985  1.5840  0.0348 -0.6687
15899TIP3    H269189   0.847   4.113  14.919  2.7518 -1.2994 -0.6751
15900TIP3   OH269190   1.454   3.887  10.563 -0.8289  0.0545  0.2694
15900TIP3    H169191   1.436   3.965  10.510 -1.7560 -0.8838 -0.8539
15900TIP3    H269192   1.529   3.912  10.617  1.8685  0.3638 -3.2001
15901TIP3   OH269193   6.691   5.992  11.591  0.2467 -0.4657  0.0447
15901TIP3    H169194   6.685   5.924  11.658  0.7028 -0.8275 -0.2693
15901TIP3    H269195   6.785   6.005  11.579  0.1853 -0.9449 -1.0561
15902TIP3   OH269196   6.082   4.506   3.864  0.5162 -0.1800  0.8897
15902TIP3    H169197   6.054   4.416   3.883  0.2695 -0.3892 -0.3748
15902TIP3    H269198   6.022   4.561   3.915 -0.3238 -0.7018  0.4903
15903TIP3   OH269199   4.049   4.323  14.220  0.3538 -0.3424 -0.3169
15903TIP3    H169200   4.138   4.359  14.217  0.7768 -1.3996 -1.5745
15903TIP3    H269201   4.062   4.230  14.238 -0.6498 -0.1259  1.6971
15904TIP3   OH269202   1.888   3.092  16.278  0.5422 -0.1580  0.2776
15904TIP3    H169203   1.793   3.091  16.288  0.3784  2.1907 -0.2442
15904TIP3    H269204   1.902   3.076  16.185  0.6354 -0.3503  0.3261
15905TIP3   OH269205   4.045   0.105   4.109  0.3130  0.1701 -0.0832
15905TIP3    H169206   3.960   0.064   4.093  0.6153 -0.1335 -0.9469
15905TIP3    H269207   4.037   0.142   4.197 -0.1148 -1.3831  0.5684
15906TIP3   OH269208   1.102   3.576   2.583 -0.3635 -0.5604  0.1148
15906TIP3    H169209   1.067   3.502   2.533  2.8735 -0.9249 -1.8775
15906TIP3    H269210   1.156   3.536   2.651  0.6335 -0.0418 -0.3652
15907TIP3   OH269211   5.536   4.993  15.591  0.3323 -0.6894  0.1346
15907TIP3    H169212   5.458   4.990  15.645 -0.4107 -0.7995 -0.9165
15907TIP3    H269213   5.608   4.974  15.652 -0.2464  1.1008  1.4674
15908TIP3   OH269214   4.814   6.542  13.079  0.5592  0.2958  0.5576
15908TIP3    H169215   4.901   6.577  13.097  0.5889 -0.5777  2.3671
15908TIP3    H269216   4.828   6.476  13.011  0.8940  1.8225 -0.9173
15909TIP3   OH269217   3.608   4.049  11.543 -0.0766 -0.4752 -0.2528
15909TIP3    H169218   3.565   4.040  11.628 -0.3667  0.0531 -0.3421
15909TIP3    H269219   3.701   4.058  11.565 -0.1986  0.1022  0.0331
15910TIP3   OH269220   0.785   3.578   5.712 -0.0491  0.0839  0.0175
15910TIP3    H169221   0.759   3.533   5.792 -1.7109 -0.8402 -0.9796
15910TIP3    H269222   0.806   3.667   5.739 -1.5411  0.0636  1.3292
15911TIP3   OH269223   5.377   2.211  15.246  0.4619  0.2827 -0.0824
15911TIP3    H169224   5.306   2.244  15.190 -0.7302 -1.2129  0.4896
15911TIP3    H269225   5.384   2.118  15.223 -1.0926 -0.7738  3.2409
15912TIP3   OH269226   1.974   4.942   0.424 -0.0322  0.3317 -0.3199
15912TIP3    H169227   2.066   4.919   0.436  0.3596  2.1408  0.4783
15912TIP3    H269228   1.967   4.963   0.330  0.6187  1.1038 -0.2097
15913TIP3   OH269229   3.872   4.737   2.845 -0.2257  0.3425 -0.0416
15913TIP3    H169230   3.900   4.800   2.779 -1.3500  1.0198  0.1072
15913TIP3    H269231   3.787   4.705   2.814  0.6744 -1.7605 -0.5475
15914TIP3   OH269232   0.230   5.545  10.329 -0.0016  0.3517 -0.0819
15914TIP3    H169233   0.162   5.529  10.395  0.2622  1.5070  0.4900
15914TIP3    H269234   0.194   5.508  10.248 -0.9199  0.1422  0.4101
15915TIP3   OH269235   0.199   0.605   0.568 -0.0003  0.1199 -0.1333
15915TIP3    H169236   0.149   0.686   0.561  1.5355  0.9959 -2.3013
15915TIP3    H269237   0.267   0.613   0.502 -0.4335 -3.4582 -1.2512
15916TIP3   OH269238   6.444   4.834  11.719  0.1526 -0.0741 -0.1784
15916TIP3    H169239   6.348   4.839  11.722 -0.0518 -2.7646  0.2238
15916TIP3    H269240   6.473   4.897  11.785 -1.4285 -0.7590  1.2453
15917TIP3   OH269241   2.968   0.184   3.327  0.3833  0.3756 -0.2865
15917TIP3    H169242   2.968   0.218   3.416  0.4190 -0.1142 -0.0987
15917TIP3    H269243   2.877   0.162   3.309  0.8161 -2.7366  0.8743
15918TIP3   OH269244   0.934   1.029   4.918  0.3147 -0.2214 -0.3706
15918TIP3    H169245   0.998   1.095   4.892  1.5359  0.1017  2.9792
15918TIP3    H269246   0.859   1.045   4.861  1.2264  2.9248 -0.8717
15919TIP3   OH269247   3.801   5.230   4.932 -0.0203 -0.7317  0.1364
15919TIP3    H169248   3.713   5.235   4.971  0.1401 -0.6809  0.4980
15919TIP3    H269249   3.856   5.198   5.003  0.5205  0.6365  0.3599
15920TIP3   OH269250   1.151   4.776  12.451 -0.1357 -0.1262 -0.2207
15920TIP3    H169251   1.159   4.681  12.454  0.7857 -0.0364  0.5963
15920TIP3    H269252   1.215   4.808  12.515 -0.3192  1.0488 -0.5982
15921TIP3   OH269253   1.187   6.780  14.683 -0.6979  0.1054 -0.0688
15921TIP3    H169254   1.230   6.764  14.599  0.4936 -1.3256  0.7631
15921TIP3    H269255   1.146   6.696  14.706 -0.5900  0.3310  1.0045
15922TIP3   OH269256   0.781   4.561  16.071 -0.6345 -0.3060  0.3329
15922TIP3    H169257   0.763   4.467  16.071 -0.3468 -0.3649  0.2654
15922TIP3    H269258   0.857   4.570  16.129 -0.5697 -0.1369  0.2224
15923TIP3   OH269259   5.189   1.923  11.875  0.1024  0.3069 -0.5951
15923TIP3    H169260   5.219   1.858  11.938 -1.3554  0.8935  0.7495
15923TIP3    H269261   5.120   1.971  11.920  0.2168  1.9193 -2.0186
15924TIP3   OH269262   0.454   2.380   5.739  0.0744  0.3968 -0.1506
15924TIP3    H169263   0.454   2.286   5.757 -1.0487  0.5312  0.6702
15924TIP3    H269264   0.541   2.410   5.767  0.7597 -0.5259 -1.2334
15925TIP3   OH269265   5.891   6.467  12.299  0.4725  0.5492 -0.1668
15925TIP3    H169266   5.867   6.510  12.217  0.8348  0.4431 -0.3294
15925TIP3    H269267   5.841   6.385  12.298  0.8141  0.3428 -0.4888
15926TIP3   OH269268   0.152   1.089  13.384 -0.4583  0.1030  0.1110
15926TIP3    H169269   0.215   1.047  13.326 -0.3021  1.1364 -0.4974
15926TIP3    H269270   0.094   1.019  13.412 -0.8248 -0.3398 -1.6753
15927TIP3   OH269271   5.026   4.532   3.226  0.1770 -0.4570  0.4566
15927TIP3    H169272   5.111   4.505   3.261  0.4877 -0.2195 -0.0894
15927TIP3    H269273   5.024   4.494   3.138  0.6860  1.3440 -0.3839
15928TIP3   OH269274   5.173   2.289   2.603  0.4155 -0.0696  0.3248
15928TIP3    H169275   5.086   2.258   2.625  0.2668  0.6076  0.7121
15928TIP3    H269276   5.192   2.357   2.668  1.7743 -1.1115  1.0763
15929TIP3   OH269277   5.609   4.864  12.102 -0.4298 -0.1984  0.8125
15929TIP3    H169278   5.526   4.909  12.089  0.3225  0.2293 -4.2495
15929TIP3    H269279   5.588   4.771  12.093 -0.4340 -0.1080 -0.1864
15930TIP3   OH269280   0.307   6.208  15.531 -0.5772 -0.1014  0.1086
15930TIP3    H169281   0.268   6.138  15.584  0.5699 -0.5537  0.3857
15930TIP3    H269282   0.338   6.164  15.452 -1.0725  0.3402 -0.3379
15931TIP3   OH269283   5.360   1.020  12.410 -0.7190  0.7774 -0.0690
15931TIP3    H169284   5.308   1.089  12.451  0.1675 -0.5791  3.7636
15931TIP3    H269285   5.357   0.947  12.472  1.4243 -1.2977 -2.1702
15932TIP3   OH269286   3.925   6.175  13.357  0.8097  0.0249 -0.2584
15932TIP3    H169287   3.959   6.100  13.307  2.4980  1.1972 -0.9672
15932TIP3    H269288   3.995   6.197  13.417 -0.6953 -0.5351  1.8146
15933TIP3   OH269289   4.410   3.104   3.478  0.4302 -0.1070  0.0317
15933TIP3    H169290   4.315   3.112   3.491  0.5068  1.7210 -0.1925
15933TIP3    H269291   4.434   3.025   3.526 -1.0662 -0.0817  0.9148
15934TIP3   OH269292   1.003   0.681   2.216  0.3186 -0.4551  0.0238
15934TIP3    H169293   0.969   0.637   2.294  0.1408  0.2097  0.3295
15934TIP3    H269294   1.077   0.732   2.248 -0.0545  0.2040 -0.1408
15935TIP3   OH269295   5.442   5.161   5.070  0.5628  0.5798 -0.4437
15935TIP3    H169296   5.412   5.080   5.110  0.6416  0.5195 -0.5064
15935TIP3    H269297   5.391   5.168   4.989  1.6027 -0.1673 -1.1886
15936TIP3   OH269298   6.778   2.477  15.731 -0.0574 -0.0989  0.6039
15936TIP3    H169299   6.683   2.478  15.745 -0.1395 -1.1085  0.1746
15936TIP3    H269300   6.788   2.455  15.639  0.6103 -1.3835  0.9594
15937TIP3   OH269301   2.052   4.943  16.220  0.3539  0.3366  0.3279
15937TIP3    H169302   1.959   4.930  16.238  0.2172  1.9092  0.9299
15937TIP3    H269303   2.088   4.854  16.217 -1.2137 -0.3172 -0.2837
15938TIP3   OH269304   1.031   5.944   2.216 -0.2883  0.4518 -0.1945
15938TIP3    H169305   1.018   6.035   2.244 -2.0715 -0.0255  0.6824
15938TIP3    H269306   1.058   5.898   2.296  0.3392  0.1479 -0.5754
15939TIP3   OH269307   4.135   0.095   5.592 -0.1825 -0.2204 -0.0448
15939TIP3    H169308   4.181   0.020   5.630  0.4316 -0.6391 -1.5613
15939TIP3    H269309   4.191   0.123   5.520 -1.5137  0.2897 -0.9071
15940TIP3   OH269310   5.425   5.410  11.409  0.0035 -0.0954  0.5398
15940TIP3    H169311   5.498   5.421  11.469  0.1712  0.2005  0.2865
15940TIP3    H269312   5.440   5.323  11.370 -0.2771 -0.4214  1.1449
15941TIP3   OH269313   1.590   1.416   3.064  0.3200 -0.0356 -0.5465
15941TIP3    H169314   1.517   1.475   3.086  1.8516  1.5043  0.7645
15941TIP3    H269315   1.598   1.358   3.140  1.4730  0.9379  0.1228
15942TIP3   OH269316   4.577   6.062   0.876 -0.0393 -0.0491  0.0514
15942TIP3    H169317   4.652   6.003   0.869 -0.4593 -0.4650 -1.2448
15942TIP3    H269318   4.551   6.057   0.968  0.8747 -0.6989  0.2902
15943TIP3   OH269319   3.170   6.521   0.665  0.1185 -0.0911 -0.2803
15943TIP3    H169320   3.092   6.518   0.719 -0.5525 -1.2342 -1.2579
15943TIP3    H269321   3.162   6.602   0.615 -0.4223 -0.1839 -0.3444
15944TIP3   OH269322   2.542   3.014   6.083 -0.4397 -0.2584  0.3578
15944TIP3    H169323   2.591   2.945   6.039  0.0305 -0.5027  1.2394
15944TIP3    H269324   2.608   3.082   6.101 -0.9324  0.5215 -0.6720
15945TIP3   OH269325   0.576   4.300   1.582 -0.1404 -0.2546 -0.6347
15945TIP3    H169326   0.663   4.301   1.622 -0.3536  0.4632 -0.1639
15945TIP3    H269327   0.581   4.366   1.513 -0.9849  1.5394  0.9321
15946TIP3   OH269328   1.488   4.327   1.088  0.2010 -0.1218 -0.1037
15946TIP3    H169329   1.513   4.239   1.116  0.6055  0.3791  1.2002
15946TIP3    H269330   1.500   4.327   0.994  1.0192 -1.2099 -0.0121
15947TIP3   OH269331   3.711   6.518  13.700 -0.4191  0.1502  0.1019
15947TIP3    H169332   3.629   6.514  13.749 -1.1412 -0.1643 -1.0790
15947TIP3    H269333   3.779   6.512  13.766 -1.3501  0.5724  1.1249
15948TIP3   OH269334   0.978   5.409   5.494  0.2503  0.0516 -0.2763
15948TIP3    H169335   0.938   5.454   5.419 -0.9389  1.5460  1.1820
15948TIP3    H269336   1.044   5.470   5.526 -0.3246  0.1175  0.8145
15949TIP3   OH269337   5.268   3.344   2.504  0.1603 -0.4691 -0.9032
15949TIP3    H169338   5.333   3.362   2.435 -0.7846  0.6761 -1.5326
15949TIP3    H269339   5.217   3.424   2.510 -0.1826 -0.7723  0.7301
15950TIP3   OH269340   4.938   2.113   3.485  0.5934  0.3561  0.8909
15950TIP3    H169341   4.910   2.062   3.562  0.3106  0.0470  0.5869
15950TIP3    H269342   4.918   2.204   3.508 -1.2052  0.1041  0.4682
15951TIP3   OH269343   2.684   5.738  14.658  0.3078  0.4718 -0.2099
15951TIP3    H169344   2.666   5.690  14.577 -1.4928  0.2106  0.2850
15951TIP3    H269345   2.730   5.817  14.630 -2.0578  1.3966 -1.7727
15952TIP3   OH269346   6.747   2.567  13.099 -0.1908 -0.2611  0.3817
15952TIP3    H169347   6.655   2.551  13.123 -1.5757  2.2941 -2.4454
15952TIP3    H269348   6.759   2.661  13.111  2.0856 -0.5258  0.5989
15953TIP3   OH269349   1.246   4.006  11.157  0.4839 -0.2872  0.2966
15953TIP3    H169350   1.183   3.934  11.168  0.6599 -0.6241 -0.7699
15953TIP3    H269351   1.191   4.081  11.134  0.3482 -0.2137  0.8474
15954TIP3   OH269352   4.918   5.182   4.842 -0.4682  0.0325  0.2678
15954TIP3    H169353   4.860   5.254   4.867 -1.7188 -1.0835  0.6740
15954TIP3    H269354   4.931   5.133   4.922  0.7020 -0.0009  0.0787
15955TIP3   OH269355   2.539   6.842   0.672 -0.4714  0.3683 -0.2908
15955TIP3    H169356   2.520   6.877   0.585 -2.4240 -0.1970 -0.1471
15955TIP3    H269357   2.467   6.874   0.727 -1.0468 -1.8448  0.3655
15956TIP3   OH269358   5.526   0.613  16.015  0.5867  0.1605 -0.1314
15956TIP3    H169359   5.517   0.618  15.920  0.0031  1.1990 -0.0381
15956TIP3    H269360   5.442   0.579  16.046  1.6314 -2.6081 -0.1342
15957TIP3   OH269361   1.032   6.584  14.452 -0.2435  0.3261 -0.1985
15957TIP3    H169362   1.124   6.609  14.443  0.1606 -0.2109  1.9791
15957TIP3    H269363   0.996   6.647  14.515 -1.5674  0.9272 -1.4962
15958TIP3   OH269364   3.725   1.186  15.131 -0.4984  0.3153 -0.0805
15958TIP3    H169365   3.708   1.244  15.056 -1.0214 -0.6775 -0.7488
15958TIP3    H269366   3.676   1.225  15.203  0.4145  1.5649 -0.1054
15959TIP3   OH269367   6.103   3.660  15.643 -0.4356 -0.1814 -0.2284
15959TIP3    H169368   6.101   3.584  15.585 -0.5948 -0.1188 -0.3064
15959TIP3    H269369   6.160   3.634  15.715 -0.3097 -0.2931 -0.3671
15960TIP3   OH269370   1.311   6.781  11.755  0.4356  0.5890 -0.4934
15960TIP3    H169371   1.254   6.854  11.732  1.2842  1.8879  1.2985
15960TIP3    H269372   1.384   6.787  11.694 -0.1781  0.3426 -1.2697
15961TIP3   OH269373   2.954   0.840   4.061  0.6064  0.1407  0.6841
15961TIP3    H169374   3.047   0.818   4.075  0.2096 -1.7413  0.6060
15961TIP3    H269375   2.909   0.802   4.137 -0.3394 -0.8117 -0.3327
15962TIP3   OH269376   5.920   2.483  11.636  0.4445 -0.1043  0.0298
15962TIP3    H169377   5.941   2.562  11.586 -0.7322 -0.2026 -0.6643
15962TIP3    H269378   5.825   2.484  11.644  0.5708 -0.1737  2.1883
15963TIP3   OH269379   3.188   0.120  12.250 -0.4295 -0.3225 -0.0140
15963TIP3    H169380   3.161   0.184  12.184 -0.5842  0.9512  1.2419
15963TIP3    H269381   3.217   0.172  12.324 -1.4954 -1.6995  1.4544
15964TIP3   OH269382   0.892   4.994  16.252 -0.0815 -0.0099  0.5554
15964TIP3    H169383   0.814   4.942  16.272  0.2009 -0.9808 -0.7007
15964TIP3    H269384   0.963   4.950  16.298  0.1801 -0.8500 -0.6166
15965TIP3   OH269385   5.105   1.548   5.003 -0.1581 -0.6259 -0.4084
15965TIP3    H169386   5.020   1.580   4.972  0.0728 -0.2618 -0.6744
15965TIP3    H269387   5.163   1.558   4.928  0.4517  0.4317  0.1793
15966TIP3   OH269388   1.672   0.990  15.227 -0.1240 -0.5644 -0.0176
15966TIP3    H169389   1.767   0.999  15.216  0.0831 -0.1936  1.7746
15966TIP3    H269390   1.645   1.072  15.267 -1.0576 -1.0369  0.3344
15967TIP3   OH269391   5.759   3.216   3.177 -0.0163  0.0379 -0.1527
15967TIP3    H169392   5.787   3.171   3.257 -0.1250  0.4596  0.1287
15967TIP3    H269393   5.835   3.268   3.151  0.3617 -0.8663 -0.8911
15968TIP3   OH269394   2.449   3.115   3.060  0.4699  0.0548  0.1351
15968TIP3    H169395   2.427   3.104   3.152  0.2341 -0.9362 -0.0246
15968TIP3    H269396   2.469   3.208   3.050 -0.5004  0.3570  0.9602
15969TIP3   OH269397   1.126   2.049   4.842 -0.2336  0.0244  0.1022
15969TIP3    H169398   1.132   2.005   4.927  0.2498  1.1789  0.6863
15969TIP3    H269399   1.153   1.982   4.779  2.2426 -0.0445  1.1332
15970TIP3   OH269400   2.138   2.113   3.211 -0.2137  0.2597 -0.6064
15970TIP3    H169401   2.182   2.070   3.137  0.4356  2.1940 -1.4102
15970TIP3    H269402   2.047   2.086   3.204  0.2890 -1.6373 -0.5452
15971TIP3   OH269403   3.487   0.149  16.476 -0.3740 -0.0797  0.0463
15971TIP3    H169404   3.459   0.065  16.513  1.2930 -0.8778 -0.4131
15971TIP3    H269405   3.422   0.169  16.409 -2.0475  0.1499  1.6356
15972TIP3   OH269406   1.217   4.151  16.281  0.2331 -0.0253  0.5132
15972TIP3    H169407   1.257   4.172  16.365  1.5743 -1.8859  0.3863
15972TIP3    H269408   1.290   4.148  16.219 -0.2304 -2.0905 -0.0109
15973TIP3   OH269409   4.916   0.273   2.355 -0.1930 -0.3795  0.6256
15973TIP3    H169410   5.005   0.252   2.383 -0.0318 -1.7856 -0.7715
15973TIP3    H269411   4.918   0.367   2.338  1.7997 -0.7553 -1.7985
15974TIP3   OH269412   2.557   2.901  13.654  0.3436  0.3752 -0.4083
15974TIP3    H169413   2.507   2.824  13.625 -0.3605  0.8330 -0.4281
15974TIP3    H269414   2.596   2.935  13.574  0.8730 -0.1073 -0.3617
15975TIP3   OH269415   5.802   0.968   6.048  0.5690  0.1370 -0.1160
15975TIP3    H169416   5.717   0.952   6.090  1.3692 -2.8834  0.5895
15975TIP3    H269417   5.831   1.050   6.085 -1.7177  0.9151  0.1440
15976TIP3   OH269418   2.105   2.159   3.998 -0.5184  0.0225 -0.0198
15976TIP3    H169419   2.120   2.163   3.904 -0.5138  2.3515  0.0212
15976TIP3    H269420   2.058   2.076   4.012 -0.0939 -0.5889 -1.9715
15977TIP3   OH269421   4.968   0.001   4.389  0.0192  0.4397  0.0966
15977TIP3    H169422   5.025  -0.069   4.422  1.1758  0.8517 -0.9283
15977TIP3    H269423   4.977   0.071   4.453 -0.9669 -0.2376  1.0107
15978TIP3   OH269424   2.717   4.024   4.168 -0.3083  0.4875  0.4173
15978TIP3    H169425   2.812   4.019   4.160 -0.3583  1.5317 -1.2179
15978TIP3    H269426   2.697   4.118   4.167 -1.3097  0.3333  1.8479
15979TIP3   OH269427   3.332   6.040   4.584  0.0942 -0.3126  0.1073
15979TIP3    H169428   3.247   6.083   4.569 -1.0547 -2.0403  1.1962
15979TIP3    H269429   3.368   6.084   4.661 -0.4451 -0.3881  0.4121
15980TIP3   OH269430   1.673   2.422   2.081  0.4764  0.6070  0.1840
15980TIP3    H169431   1.704   2.331   2.081  0.0108  0.4379  0.8777
15980TIP3    H269432   1.752   2.473   2.098  0.7838  0.3493 -0.4507
15981TIP3   OH269433   5.103   6.670  12.312 -0.3885 -0.1024 -0.1475
15981TIP3    H169434   5.153   6.638  12.386 -0.6720  0.6024  0.3638
15981TIP3    H269435   5.022   6.619  12.313  0.2597 -1.1902 -0.9300
15982TIP3   OH269436   0.472   2.967   3.572 -0.1021  0.1743  0.4465
15982TIP3    H169437   0.529   2.984   3.647  0.8256  0.1986 -0.2571
15982TIP3    H269438   0.530   2.933   3.504 -0.6673  1.4757 -0.7483
15983TIP3   OH269439   3.850   2.970   5.677 -0.1060 -0.3169 -0.3409
15983TIP3    H169440   3.813   3.057   5.662 -2.1228 -0.7625  1.5304
15983TIP3    H269441   3.778   2.920   5.716  1.6535 -2.1520  0.7234
15984TIP3   OH269442   2.546   0.155  13.304  0.5410  0.6084 -0.3662
15984TIP3    H169443   2.467   0.193  13.341  0.0970 -0.3100 -0.3738
15984TIP3    H269444   2.590   0.113  13.377  0.5321  0.2791 -0.5497
15985TIP3   OH269445   0.851   3.668  14.247 -0.2687 -0.1795  0.1415
15985TIP3    H169446   0.944   3.650  14.266  0.3752  1.6953 -0.9968
15985TIP3    H269447   0.805   3.590  14.278  1.6522 -1.0397  1.0024
15986TIP3   OH269448   1.450   3.734  11.062 -0.0264 -0.4356  0.0136
15986TIP3    H169449   1.446   3.797  10.990 -2.0249 -0.7124 -0.1800
15986TIP3    H269450   1.407   3.779  11.135 -0.5714 -1.1912  0.1720
15987TIP3   OH269451   2.776   2.339  10.258 -0.7900 -0.2082 -0.2069
15987TIP3    H169452   2.803   2.292  10.337 -2.9509  0.3653  0.9499
15987TIP3    H269453   2.713   2.282  10.216  0.2165 -0.4331 -1.4892
15988TIP3   OH269454   1.204   0.774  13.472 -0.5389 -0.5278  0.1172
15988TIP3    H169455   1.276   0.711  13.468 -0.2691 -0.2639  0.7135
15988TIP3    H269456   1.195   0.795  13.565 -2.9872 -2.3560  0.3781
15989TIP3   OH269457   5.407   2.106   5.073 -0.7103 -0.2906  0.0318
15989TIP3    H169458   5.486   2.053   5.063 -0.6910 -0.3234  0.3678
15989TIP3    H269459   5.363   2.070   5.150 -0.5141  0.4097  0.4773
15990TIP3   OH269460   3.482   6.637   1.095 -0.7222 -0.0859  0.2384
15990TIP3    H169461   3.559   6.684   1.125 -0.4702 -1.2229  1.4712
15990TIP3    H269462   3.422   6.705   1.063  0.5005  0.8573 -0.1034
15991TIP3   OH269463   6.167   2.047   1.396 -0.4787 -0.2800  0.0512
15991TIP3    H169464   6.177   1.959   1.432 -3.4816 -0.9856 -0.5169
15991TIP3    H269465   6.204   2.043   1.308  1.6858 -0.1928  0.9135
15992TIP3   OH269466   4.863   4.211  11.694  0.5261 -0.4938  0.1786
15992TIP3    H169467   4.930   4.228  11.628  0.7774  0.3308  0.6368
15992TIP3    H269468   4.785   4.257  11.663 -0.3332 -2.6714 -1.1237
15993TIP3   OH269469   1.926   2.434   3.019  0.3936 -0.4037 -0.6978
15993TIP3    H169470   1.843   2.390   3.002 -0.1530  0.4457 -0.2483
15993TIP3    H269471   1.902   2.523   3.045  1.3329 -0.6489  1.2040
15994TIP3   OH269472   6.771   5.650  15.470 -0.3883 -0.4123 -0.0597
15994TIP3    H169473   6.692   5.702  15.456 -1.2010 -1.7142 -0.4718
15994TIP3    H269474   6.835   5.686  15.408 -1.7113 -1.4431 -2.1359
15995TIP3   OH269475   4.030   4.066   0.448  0.5198  0.3060  0.0183
15995TIP3    H169476   3.955   4.015   0.419  0.2173 -0.3581  1.8624
15995TIP3    H269477   4.047   4.036   0.537  3.0738  0.3260 -0.3698
15996TIP3   OH269478   2.605   5.123   2.410  0.1272  0.3446  0.3132
15996TIP3    H169479   2.636   5.207   2.443  1.0312 -0.1594  0.7661
15996TIP3    H269480   2.520   5.110   2.452  0.3200  0.6931  0.8178
15997TIP3   OH269481   0.570   4.659   2.354 -0.0980  0.4218 -0.2508
15997TIP3    H169482   0.580   4.737   2.408  0.2462  1.2944 -1.5389
15997TIP3    H269483   0.498   4.680   2.294  0.2510 -0.0991 -0.8657
15998TIP3   OH269484   4.373   6.676   2.458 -0.2528  0.0730 -0.1295
15998TIP3    H169485   4.333   6.602   2.413 -0.3478  0.6230 -0.9819
15998TIP3    H269486   4.395   6.643   2.545  0.7196 -1.2723 -0.8587
15999TIP3   OH269487   0.665   2.743  16.931 -0.1318 -0.2714 -0.0846
15999TIP3    H169488   0.682   2.722  17.023  0.6530  0.2475 -0.0957
15999TIP3    H269489   0.701   2.668  16.883 -1.5920 -1.0925  0.0685
16000TIP3   OH269490   0.908   4.388   2.082  0.2450  0.3112 -0.0257
16000TIP3    H169491   0.937   4.298   2.100 -2.1521 -0.8156 -1.3061
16000TIP3    H269492   0.856   4.381   2.002 -0.9777  2.6388  0.4808
16001TIP3   OH269493   6.460   4.626   5.731  0.3667  0.2673  0.0119
16001TIP3    H169494   6.415   4.659   5.809  0.7068 -1.6303  1.0586
16001TIP3    H269495   6.389   4.599   5.672  0.1237 -0.3815  0.6015
16002TIP3   OH269496   4.264   5.793  11.085  0.4396  0.6671 -0.1475
16002TIP3    H169497   4.333   5.728  11.099  0.7998  1.1603  0.4215
16002TIP3    H269498   4.227   5.807  11.172  0.2304  1.0765 -0.3020
16003TIP3   OH269499   2.212   2.501   5.714 -0.0955  0.8835 -0.2864
16003TIP3    H169500   2.285   2.563   5.712  0.1194  0.6381 -0.0844
16003TIP3    H269501   2.185   2.499   5.806  2.0383 -1.8002  0.4072
16004TIP3   OH269502   2.923   6.220  11.812 -0.0850  0.1288  0.4577
16004TIP3    H169503   2.934   6.252  11.901 -0.0628  0.9857  0.1529
16004TIP3    H269504   3.006   6.242  11.769 -0.7853  1.4252 -0.2809
16005TIP3   OH269505   0.761   5.226  10.903 -0.0362  0.5049  0.9642
16005TIP3    H169506   0.749   5.148  10.849 -0.5981  1.2315  0.0007
16005TIP3    H269507   0.854   5.248  10.892  0.6819 -1.1910  2.9328
16006TIP3   OH269508   3.195   0.773  11.864  0.5218  0.0162 -0.4195
16006TIP3    H169509   3.283   0.742  11.846  1.6373 -0.5432  4.4507
16006TIP3    H269510   3.143   0.694  11.876 -0.0753  0.3147 -0.9572
16007TIP3   OH269511   0.779   5.460  14.913  0.1967  0.1624 -0.4163
16007TIP3    H169512   0.783   5.543  14.865  0.7160 -1.2514 -2.9615
16007TIP3    H269513   0.869   5.429  14.917 -0.1473 -0.9117 -0.6701
16008TIP3   OH269514   1.022   0.170   5.966  0.2147 -0.0005 -0.0213
16008TIP3    H169515   1.004   0.228   5.891 -0.2263 -0.1102 -0.0059
16008TIP3    H269516   1.099   0.120   5.939  0.9917  1.0243  0.2183
16009TIP3   OH269517   3.994   5.741  16.949 -0.0403  0.6009  0.3897
16009TIP3    H169518   4.006   5.682  17.024  0.6793 -0.1608 -0.3093
16009TIP3    H269519   3.945   5.689  16.886 -0.9790  1.3688  0.4505
16010TIP3   OH269520   6.580   0.660  16.221  0.6872  0.1871  0.1989
16010TIP3    H169521   6.496   0.614  16.230  0.9980 -0.3817  0.2203
16010TIP3    H269522   6.595   0.699  16.307 -0.3615  1.6998 -0.2762
16011TIP3   OH269523   1.472   2.290  13.881 -0.2392 -0.1514 -0.5124
16011TIP3    H169524   1.505   2.300  13.791 -1.3327  1.0425 -0.8150
16011TIP3    H269525   1.428   2.205  13.882  0.3735 -0.4776 -0.9037
16012TIP3   OH269526   2.199   1.777   0.308  0.3101  1.0398  0.3362
16012TIP3    H169527   2.212   1.820   0.223 -0.8084  0.5970 -0.0687
16012TIP3    H269528   2.278   1.799   0.358  2.2284 -0.8236 -1.6820
16013TIP3   OH269529   4.864   3.161  14.683  0.2334 -0.2618 -0.1098
16013TIP3    H169530   4.862   3.238  14.739 -1.3698 -0.1570 -0.2679
16013TIP3    H269531   4.884   3.089  14.742 -0.6224 -0.0429  0.4626
16014TIP3   OH269532   2.633   0.200   5.096 -0.9473 -0.1852  0.2340
16014TIP3    H169533   2.674   0.282   5.070 -2.1943  1.0723  1.9900
16014TIP3    H269534   2.703   0.135   5.093  0.7331  1.4852  1.3475
16015TIP3   OH269535   2.525   1.790  13.306 -0.1891  1.1023 -0.0187
16015TIP3    H169536   2.526   1.842  13.387 -0.9407 -0.0151  0.7385
16015TIP3    H269537   2.440   1.747  13.307  1.5897 -2.8628  1.1847
16016TIP3   OH269538   4.612   3.061   1.817 -0.3041 -0.4213  0.2914
16016TIP3    H169539   4.569   3.110   1.747 -0.8910  1.9113  2.1793
16016TIP3    H269540   4.561   3.081   1.895 -0.5208 -4.0175  1.2747
16017TIP3   OH269541   4.227   4.273   0.491 -0.1300  0.2171  0.0918
16017TIP3    H169542   4.171   4.197   0.478  0.3707 -0.0611 -0.4687
16017TIP3    H269543   4.216   4.325   0.411  0.2291  0.2806  0.0851
16018TIP3   OH269544   0.586   5.405   2.707 -0.2733  0.2425  0.0417
16018TIP3    H169545   0.576   5.475   2.771 -0.4221  0.7873 -0.5669
16018TIP3    H269546   0.670   5.364   2.729 -1.3157 -0.9948  1.9359
16019TIP3   OH269547   4.456   2.122  14.768 -0.1659  0.1634 -0.0468
16019TIP3    H169548   4.402   2.043  14.770  1.9023 -1.3523  2.3220
16019TIP3    H269549   4.433   2.168  14.849  2.9034 -1.2776  1.8201
16020TIP3   OH269550   3.075   4.063   2.046 -0.6006  0.2083 -0.2496
16020TIP3    H169551   3.060   3.996   1.979  0.0515  0.8049 -1.0008
16020TIP3    H269552   3.069   4.015   2.129 -2.6838 -0.3192 -0.6406
16021TIP3   OH269553   3.962   6.071  15.914 -0.1861  0.0965  0.3413
16021TIP3    H169554   3.889   6.069  15.976  0.7759 -0.4339  1.5248
16021TIP3    H269555   4.027   6.013  15.954  1.0946  0.9872 -0.4078
16022TIP3   OH269556   3.900   1.322   2.972  0.7331  0.1262  0.0037
16022TIP3    H169557   3.832   1.376   2.932 -0.3238 -0.0675  1.4395
16022TIP3    H269558   3.960   1.301   2.901  0.3655  1.9514 -0.9010
16023TIP3   OH269559   3.196   2.786   0.069  0.0444 -0.0651 -0.8006
16023TIP3    H169560   3.212   2.800  -0.024 -1.1019 -1.4850 -1.2512
16023TIP3    H269561   3.106   2.754   0.073  0.4457 -1.1087  0.6649
16024TIP3   OH269562   4.655   2.031  13.715 -0.6515  0.4055 -0.4577
16024TIP3    H169563   4.707   2.004  13.791  2.4890 -0.8887 -2.8122
16024TIP3    H269564   4.663   2.126  13.712 -0.0390  0.3862  0.3323
16025TIP3   OH269565   1.918   3.381  12.271 -0.1716  0.7439 -0.8063
16025TIP3    H169566   1.923   3.287  12.253  0.5906  0.2674  1.5798
16025TIP3    H269567   1.833   3.408  12.237 -0.9113 -1.0637 -0.4799
16026TIP3   OH269568   1.774   6.477  12.909 -0.1055  0.1021 -0.0456
16026TIP3    H169569   1.828   6.494  12.986 -0.3472  2.3602 -0.2969
16026TIP3    H269570   1.688   6.514  12.932 -0.2468  0.5864 -1.2775
16027TIP3   OH269571   5.106   0.810   2.280  0.5845  0.3616  0.0580
16027TIP3    H169572   5.088   0.851   2.365  1.1277  1.4115 -0.3058
16027TIP3    H269573   5.180   0.752   2.297  1.1745  1.1239  0.1684
16028TIP3   OH269574   2.810   1.800   1.335 -0.1963 -0.2585 -0.3379
16028TIP3    H169575   2.729   1.783   1.287 -0.6100  0.4743  0.0804
16028TIP3    H269576   2.824   1.894   1.325 -0.6770  0.0589  1.5267
16029TIP3   OH269577   0.420   1.104   3.240 -0.3183  0.1277  0.3733
16029TIP3    H169578   0.356   1.088   3.171 -1.3082 -0.7129  1.4303
16029TIP3    H269579   0.475   1.174   3.207 -1.6581  0.7218 -0.6778
16030TIP3   OH269580   3.701   2.970   4.214 -0.1849  0.2233 -0.3335
16030TIP3    H169581   3.720   3.064   4.224 -0.0456  0.2659 -0.9365
16030TIP3    H269582   3.710   2.934   4.302  1.1472  0.5338 -0.3177
16031TIP3   OH269583   3.862   5.298  15.383 -0.1100 -0.3868  0.1382
16031TIP3    H169584   3.899   5.308  15.471  0.7589  0.2045 -0.2772
16031TIP3    H269585   3.862   5.387  15.346 -1.3708 -0.4776 -0.1150
16032TIP3   OH269586   0.694   2.290   6.321  0.2315 -0.4505  0.2028
16032TIP3    H169587   0.659   2.224   6.381 -0.1920 -2.8118 -2.4484
16032TIP3    H269588   0.774   2.252   6.287 -0.0800  0.3136 -1.4935
16033TIP3   OH269589   5.968   2.141   3.517 -0.2448 -0.2784 -0.0760
16033TIP3    H169590   5.928   2.202   3.455 -3.2080  0.4697  2.3647
16033TIP3    H269591   5.941   2.054   3.486  1.7173 -0.3236 -1.9877
16034TIP3   OH269592   1.038   0.360  14.200  0.1228 -0.2276  0.2953
16034TIP3    H169593   1.046   0.265  14.198  1.2739 -0.1260 -1.2929
16034TIP3    H269594   1.119   0.390  14.242 -0.7085  0.0477  1.7922
16035TIP3   OH269595   1.335   5.435  16.906 -0.1723  0.1201  0.2329
16035TIP3    H169596   1.406   5.379  16.937  0.5996  0.7389 -0.3670
16035TIP3    H269597   1.369   5.524  16.917 -0.8789  0.4226 -0.0121
16036TIP3   OH269598   0.502   4.213  12.160 -0.1773 -0.2152 -0.0600
16036TIP3    H169599   0.479   4.293  12.208  0.6889 -0.5321  0.9304
16036TIP3    H269600   0.589   4.190  12.193  0.7565 -0.0999 -2.2904
16037TIP3   OH269601   3.188   1.009   5.682 -0.1446  0.6010  0.2810
16037TIP3    H169602   3.148   1.093   5.706 -0.5675  0.4993 -0.0518
16037TIP3    H269603   3.270   1.006   5.732  0.2984  1.6069 -0.3484
16038TIP3   OH269604   2.123   0.923   3.858  0.5122 -0.3675 -0.2071
16038TIP3    H169605   2.045   0.902   3.806  0.5431 -0.5891 -0.1631
16038TIP3    H269606   2.123   1.019   3.862  0.9352 -0.3051 -1.2750
16039TIP3   OH269607   5.360   1.650  13.753 -0.2817  0.2995  0.3118
16039TIP3    H169608   5.430   1.651  13.688 -0.4802  0.7999  0.1015
16039TIP3    H269609   5.339   1.743  13.767  2.0211  0.5275  3.5290
16040TIP3   OH269610   6.820   3.323  14.001  0.0998  0.1753 -0.7131
16040TIP3    H169611   6.871   3.386  13.950  0.7258  0.3987  0.1575
16040TIP3    H269612   6.814   3.362  14.088  0.7220 -1.0765 -0.0754
16041TIP3   OH269613   6.450   0.883  16.089  0.4249  0.0478 -0.1312
16041TIP3    H169614   6.402   0.927  16.160  0.0620  0.0226 -0.3588
16041TIP3    H269615   6.489   0.806  16.130 -1.6484 -1.2186 -0.4352
16042TIP3   OH269616   1.955   0.601  17.050 -0.3792  0.3672 -0.1843
16042TIP3    H169617   1.995   0.680  17.087 -0.8998 -0.0067  1.2562
16042TIP3    H269618   2.028   0.554  17.009  0.5506  0.1324  1.6145
16043TIP3   OH269619   6.422   4.055  12.509  0.1850 -0.0803  0.0523
16043TIP3    H169620   6.393   3.984  12.566  0.8042  1.4055  2.3663
16043TIP3    H269621   6.350   4.117  12.509 -0.5343 -0.7857 -2.3136
16044TIP3   OH269622   4.353   1.248   1.434  0.4811  0.0647  0.2431
16044TIP3    H169623   4.376   1.185   1.502  0.5877 -1.3963 -1.0971
16044TIP3    H269624   4.320   1.195   1.361 -1.2044  1.6809 -0.2581
16045TIP3   OH269625   5.924   6.668  15.388  0.0651  0.4618 -0.1379
16045TIP3    H169626   5.906   6.649  15.480 -0.1191 -0.1937 -0.3062
16045TIP3    H269627   6.007   6.624  15.370 -1.3284 -1.9888 -1.0580
16046TIP3   OH269628   2.442   3.045   2.582  0.3831  0.2853 -0.3371
16046TIP3    H169629   2.471   3.086   2.663  1.7234  0.5286 -0.9063
16046TIP3    H269630   2.476   3.103   2.513  0.4275 -0.6272 -1.0982
16047TIP3   OH269631   1.760   3.339  15.728 -0.3637 -0.1861 -0.2996
16047TIP3    H169632   1.789   3.386  15.650  1.7781  0.2225  0.6736
16047TIP3    H269633   1.777   3.400  15.800  2.4964 -2.2877  1.0151
16048TIP3   OH269634   4.370   2.558  15.004  0.2298  0.0502  0.5725
16048TIP3    H169635   4.442   2.616  15.029 -0.9688  1.7724  0.1904
16048TIP3    H269636   4.362   2.568  14.909 -0.9975  0.5242  0.7007
16049TIP3   OH269637   3.467   6.525   4.221  0.6871 -0.4866 -0.4860
16049TIP3    H169638   3.401   6.476   4.172  1.3851 -2.7265  0.6931
16049TIP3    H269639   3.473   6.480   4.305  2.0616  1.0947  0.3260
16050TIP3   OH269640   2.146   0.984  11.724  0.5366  0.0324 -0.2432
16050TIP3    H169641   2.190   0.955  11.644  0.7744 -0.5643  0.1025
16050TIP3    H269642   2.212   0.974  11.793 -0.7734 -3.1406  0.7257
16051TIP3   OH269643   6.267   0.055  14.570 -0.2025  0.2574  0.4630
16051TIP3    H169644   6.352   0.097  14.585  0.8648 -2.1852  2.0049
16051TIP3    H269645   6.205   0.106  14.622  0.8968  0.3583  1.7300
16052TIP3   OH269646   6.130   1.379   4.574 -0.3688 -0.2615 -0.3024
16052TIP3    H169647   6.214   1.347   4.606 -0.8791 -0.2010  1.1729
16052TIP3    H269648   6.141   1.384   4.479  1.7423  1.0571 -0.0558
16053TIP3   OH269649   4.869   6.442   4.020 -0.3438  0.0026 -0.7312
16053TIP3    H169650   4.899   6.476   4.104 -1.5307 -1.1469  0.2021
16053TIP3    H269651   4.788   6.491   4.002 -1.5665 -1.5970  0.1750
16054TIP3   OH269652   3.817   1.465   2.005 -0.2882 -0.1081  0.1309
16054TIP3    H169653   3.775   1.473   1.920 -0.7079  0.9737  0.4258
16054TIP3    H269654   3.746   1.482   2.068  0.4335  1.1092  0.6456
16055TIP3   OH269655   5.488   1.202  14.937 -0.1822  0.1407 -0.3438
16055TIP3    H169656   5.415   1.258  14.963  1.1256  1.8050 -0.0391
16055TIP3    H269657   5.532   1.181  15.019 -1.3148 -2.4264 -0.3025
16056TIP3   OH269658   4.361   0.852  11.204 -0.4847 -0.0243 -0.6034
16056TIP3    H169659   4.281   0.856  11.257  0.4838 -1.0475  0.9852
16056TIP3    H269660   4.420   0.796  11.254  1.1381  0.4904 -1.8912
16057TIP3   OH269661   6.755   5.584  10.800 -0.2948  0.3073  0.0727
16057TIP3    H169662   6.723   5.518  10.738 -0.4063  0.0164  0.4341
16057TIP3    H269663   6.798   5.533  10.869 -0.4752  0.6045  0.4064
16058TIP3   OH269664   3.974   0.118  11.992 -0.6203 -0.4827 -0.2108
16058TIP3    H169665   4.048   0.172  11.964 -1.0439  0.3152  0.1844
16058TIP3    H269666   4.003   0.028  11.977 -0.3296 -0.1293 -1.9628
16059TIP3   OH269667   0.191   2.065   5.729 -0.1742  0.4754  0.1472
16059TIP3    H169668   0.170   2.006   5.802  1.1158 -4.0494 -2.7472
16059TIP3    H269669   0.107   2.105   5.706 -0.7091  1.7616  3.6133
16060TIP3   OH269670   2.821   0.260   1.615  0.3402  0.0212 -0.0256
16060TIP3    H169671   2.762   0.225   1.548 -1.7263  0.2162  1.5937
16060TIP3    H269672   2.849   0.345   1.581 -0.2083 -0.1373 -0.8863
16061TIP3   OH269673   2.191   1.706   5.360 -0.4795  0.7426  0.5229
16061TIP3    H169674   2.199   1.635   5.424  0.2343  0.2283 -0.1199
16061TIP3    H269675   2.176   1.663   5.276  1.6348  1.2206 -0.1685
16062TIP3   OH269676   3.869   6.031   5.735 -0.6186 -0.3792 -0.6482
16062TIP3    H169677   3.943   6.086   5.762  1.3739 -3.3590  0.5188
16062TIP3    H269678   3.797   6.059   5.791  0.5717  0.4755  0.5324
16063TIP3   OH269679   0.133   2.047  12.867 -0.1127 -0.0128  0.6436
16063TIP3    H169680   0.219   2.017  12.896 -0.3937 -0.1968  1.3046
16063TIP3    H269681   0.102   1.977  12.810 -0.2618 -0.4289  1.2322
16064TIP3   OH269682   5.239   4.464   6.146  0.1225  0.0775 -0.4035
16064TIP3    H169683   5.280   4.464   6.233 -0.2336  0.1890 -0.2309
16064TIP3    H269684   5.212   4.555   6.133 -1.2742 -0.2402  0.0731
16065TIP3   OH269685   3.559   1.619  14.199 -0.0659 -1.0283  0.6975
16065TIP3    H169686   3.652   1.629  14.219  0.1189 -0.4249 -0.3757
16065TIP3    H269687   3.554   1.540  14.145  0.1770  0.1411 -1.1521
16066TIP3   OH269688   0.895   3.307  16.878  0.0949  0.0338 -0.4263
16066TIP3    H169689   0.874   3.399  16.890  1.2503  0.5710 -2.0664
16066TIP3    H269690   0.989   3.306  16.859 -0.3412 -1.1487 -3.0132
16067TIP3   OH269691   5.250   6.521   1.010 -0.2948  0.0135  0.2690
16067TIP3    H169692   5.232   6.565   0.927 -1.0700 -1.6349 -0.4643
16067TIP3    H269693   5.191   6.447   1.012  1.6761 -1.6462  0.9692
16068TIP3   OH269694   3.423   0.405  16.995  0.1717  0.0062 -0.5029
16068TIP3    H169695   3.381   0.476  17.043 -0.0788 -1.0746  0.9230
16068TIP3    H269696   3.455   0.446  16.914 -0.0909  1.6923  0.2198
16069TIP3   OH269697   4.826   6.205  13.454  0.2643 -0.1362  0.6836
16069TIP3    H169698   4.793   6.257  13.381  0.1639 -0.0567  0.7851
16069TIP3    H269699   4.835   6.117  13.418 -0.9658 -0.3717  0.9004
16070TIP3   OH269700   4.168   2.000  13.299  0.0423  0.0137  0.2833
16070TIP3    H169701   4.157   1.972  13.208 -1.6402  0.6940  0.2357
16070TIP3    H269702   4.205   2.088  13.292 -1.5039  0.6943  0.1576
16071TIP3   OH269703   5.020   3.038   1.437 -0.5186  0.0114 -0.3111
16071TIP3    H169704   5.008   2.944   1.424 -1.3636 -0.6110  3.6979
16071TIP3    H269705   5.114   3.052   1.426 -0.5880 -0.8900 -2.5980
16072TIP3   OH269706   5.352   3.036  12.780 -0.0829  0.4452 -0.7661
16072TIP3    H169707   5.266   3.073  12.762 -0.4445 -0.2970 -0.5883
16072TIP3    H269708   5.410   3.080  12.718 -0.3587  1.8429 -0.0632
16073TIP3   OH269709   4.274   5.221  11.327 -0.0893 -0.2111 -0.1033
16073TIP3    H169710   4.255   5.295  11.271 -1.1023  0.0341  0.5371
16073TIP3    H269711   4.189   5.185  11.350  0.3983 -1.9453 -0.8712
16074TIP3   OH269712   5.258   6.093  11.217  0.4919 -0.3482 -0.2374
16074TIP3    H169713   5.251   6.146  11.138  1.1378  0.4270  0.2039
16074TIP3    H269714   5.322   6.025  11.194  1.4827  0.4956 -0.0787
16075TIP3   OH269715   3.827   1.475  15.631 -0.5131 -0.1352  0.4158
16075TIP3    H169716   3.869   1.478  15.717 -0.2583 -0.0586  0.2911
16075TIP3    H269717   3.836   1.564  15.597 -0.9523 -0.0686  0.4681
16076TIP3   OH269718   5.474   2.807  13.439  0.3881 -0.0282 -0.2900
16076TIP3    H169719   5.426   2.745  13.494  2.0953  1.3192  3.0383
16076TIP3    H269720   5.406   2.849  13.387 -1.8486  0.1921  2.5092
16077TIP3   OH269721   2.058   1.338   1.263  0.3012  0.1959 -0.0015
16077TIP3    H169722   2.078   1.378   1.347  0.8737 -0.2245  0.0620
16077TIP3    H269723   2.042   1.412   1.204 -1.1442  0.4927  0.7095
16078TIP3   OH269724   4.071   4.002  15.550 -0.1223  0.5060 -0.1156
16078TIP3    H169725   4.119   3.920  15.542 -1.0325  0.1005 -1.7681
16078TIP3    H269726   4.007   4.000  15.479 -2.2577  1.2605  1.6900
16079TIP3   OH269727   3.100   0.211  16.056 -0.1728 -0.1413 -0.0711
16079TIP3    H169728   3.072   0.271  15.987 -0.8314  0.0803  0.3822
16079TIP3    H269729   3.190   0.188  16.031 -0.2305  0.3011 -0.7472
16080TIP3   OH269730   1.967   6.061  12.061 -0.2583  0.3763  0.3837
16080TIP3    H169731   1.960   6.141  12.113 -1.0857 -1.2494  2.9852
16080TIP3    H269732   1.894   6.006  12.092 -0.1733 -1.1185 -1.8289
16081TIP3   OH269733   3.477   6.237  12.890 -0.7264 -0.3300 -0.1885
16081TIP3    H169734   3.514   6.272  12.810 -0.5294 -0.9577 -0.3807
16081TIP3    H269735   3.457   6.313  12.944  0.2325  0.0411 -0.3487
16082TIP3   OH269736   2.952   6.267  14.562 -0.1342 -0.5202 -0.4092
16082TIP3    H169737   2.876   6.325  14.563  0.1553 -0.1333 -0.6144
16082TIP3    H269738   3.026   6.325  14.579 -0.1653 -1.3701  3.2634
16083TIP3   OH269739   2.237   0.391  16.592 -0.3959  0.3801  0.4021
16083TIP3    H169740   2.152   0.349  16.579  0.2109 -0.4594 -1.1279
16083TIP3    H269741   2.218   0.485  16.593 -1.2612  0.2335 -0.6034
16084TIP3   OH269742   0.430   6.394   0.763  0.2035 -0.1364 -0.1370
16084TIP3    H169743   0.507   6.385   0.707 -0.2146  0.0448 -0.7493
16084TIP3    H269744   0.356   6.398   0.703 -0.2495  0.1717  0.4237
16085TIP3   OH269745   5.485   4.939  14.294  0.3433  0.2461 -0.0225
16085TIP3    H169746   5.400   4.937  14.338 -1.1970  0.9281 -2.6904
16085TIP3    H269747   5.463   4.939  14.201  3.3506 -1.0570 -0.8601
16086TIP3   OH269748   3.452   5.610   0.046  0.2222  0.7083  0.0684
16086TIP3    H169749   3.427   5.701   0.061 -2.4637 -0.0876  0.9098
16086TIP3    H269750   3.442   5.567   0.131  2.4474 -0.2110 -0.0663
16087TIP3   OH269751   5.364   3.469  11.746 -0.1728 -0.9152 -0.0732
16087TIP3    H169752   5.359   3.551  11.696 -0.0861 -1.2991 -0.7172
16087TIP3    H269753   5.446   3.477  11.795  0.2405 -0.9510 -0.7442
16088TIP3   OH269754   3.405   0.717  13.083 -0.1666  0.2022 -0.2341
16088TIP3    H169755   3.375   0.682  12.999 -0.9418 -0.4455  0.2971
16088TIP3    H269756   3.443   0.802  13.061  0.2143 -0.2297 -1.3200
16089TIP3   OH269757   3.447   2.868  15.613 -0.2828 -0.1059 -0.3499
16089TIP3    H169758   3.530   2.823  15.628  0.1021  0.1998 -1.4756
16089TIP3    H269759   3.447   2.941  15.676  0.5733  0.2319 -0.7242
16090TIP3   OH269760   5.845   2.310   5.282 -0.0217 -0.3254  0.3942
16090TIP3    H169761   5.885   2.326   5.367 -0.0726  0.2550  0.3148
16090TIP3    H269762   5.757   2.346   5.289  0.2455  0.4945 -0.1528
16091TIP3   OH269763   3.659   2.114  11.514 -0.1163  0.5443 -0.1157
16091TIP3    H169764   3.716   2.072  11.579 -0.4318  0.2630 -0.0174
16091TIP3    H269765   3.681   2.207  11.520 -0.3229  0.5580  0.5852
16092TIP3   OH269766   5.508   1.713   5.743  0.5687  0.5620 -0.1919
16092TIP3    H169767   5.576   1.677   5.800 -0.2038  1.4283  1.3305
16092TIP3    H269768   5.505   1.652   5.669  0.4286 -1.6202  1.4969
16093TIP3   OH269769   0.569   1.853   2.838 -0.0245 -0.3823  0.0473
16093TIP3    H169770   0.634   1.785   2.819  2.1218  1.4339  0.5244
16093TIP3    H269771   0.524   1.821   2.917  1.1820 -1.1113  0.4763
16094TIP3   OH269772   6.743   5.164  15.109  0.3089 -0.9217  0.1229
16094TIP3    H169773   6.729   5.072  15.089  0.5718 -0.6020 -1.7450
16094TIP3    H269774   6.668   5.209  15.068 -0.1754 -0.3418  1.5778
16095TIP3   OH269775   1.318   3.008  12.221  0.2695  0.3855 -0.3674
16095TIP3    H169776   1.289   2.983  12.309 -0.0945  0.2247 -0.5280
16095TIP3    H269777   1.376   3.082  12.234  0.7126 -0.0278  0.0602
16096TIP3   OH269778   2.741   3.020  11.844 -0.0970  0.6745  0.4831
16096TIP3    H169779   2.729   3.016  11.939 -3.1266 -1.5350  0.1428
16096TIP3    H269780   2.667   3.071  11.813 -0.7233 -0.9930 -0.8628
16097TIP3   OH269781   1.457   4.708  12.344  0.6927 -0.0225  0.1780
16097TIP3    H169782   1.452   4.803  12.350 -1.1732  0.0545 -1.3773
16097TIP3    H269783   1.550   4.687  12.359  0.8432  1.8394  2.2417
16098TIP3   OH269784   4.084   1.594   0.724 -0.9309 -0.4902  0.1775
16098TIP3    H169785   4.040   1.659   0.779  0.3568 -1.0881  2.0103
16098TIP3    H269786   4.158   1.641   0.686 -0.4049 -0.6512  0.9541
16099TIP3   OH269787   2.296   3.900  11.693 -0.2911 -0.0321 -0.1767
16099TIP3    H169788   2.313   3.922  11.602  1.6729 -0.0558  0.1303
16099TIP3    H269789   2.383   3.897  11.734 -1.1756  1.2090  1.9881
16100TIP3   OH269790   2.516   4.736   2.975 -0.3129 -0.2418 -0.4975
16100TIP3    H169791   2.457   4.769   2.908 -1.0746  1.9669  1.1696
16100TIP3    H269792   2.562   4.813   3.007  1.2429 -1.4838  0.4181
16101TIP3   OH269793   5.487   1.346  11.990  0.0401  0.5334  0.5665
16101TIP3    H169794   5.450   1.318  11.906  1.0657  0.5361  0.0874
16101TIP3    H269795   5.543   1.273  12.017  0.9244  1.1431  0.4593
16102TIP3   OH269796   5.467   5.275  12.556  0.1325  0.3032  0.0854
16102TIP3    H169797   5.399   5.310  12.499  0.8219  0.4823 -0.6543
16102TIP3    H269798   5.513   5.353  12.588 -1.4501  0.3395  2.4918
16103TIP3   OH269799   0.913   2.279  12.378  0.4280 -0.3595  0.0199
16103TIP3    H169800   0.954   2.207  12.330  2.7097  0.1041  1.1384
16103TIP3    H269801   0.928   2.356  12.323  1.0748 -0.1942  0.4163
16104TIP3   OH269802   4.531   0.134   4.365 -0.0595 -0.6297 -0.2455
16104TIP3    H169803   4.597   0.117   4.298 -1.3462  1.2697 -2.1029
16104TIP3    H269804   4.461   0.073   4.346 -0.7593  0.4248 -1.1920
16105TIP3   OH269805   1.360   2.248   0.612 -0.4016 -0.2464 -0.4858
16105TIP3    H169806   1.383   2.179   0.548  0.9381 -0.7588  0.5071
16105TIP3    H269807   1.444   2.278   0.646 -1.0644 -1.9573  3.0852
16106TIP3   OH269808   4.543   3.302  13.759 -0.2732  0.0727 -0.3002
16106TIP3    H169809   4.483   3.361  13.805  0.4184 -1.2431  2.5171
16106TIP3    H269810   4.630   3.336  13.780  0.1240 -1.6490  1.0631
16107TIP3   OH269811   6.072   5.406  14.947  0.3220 -0.5433 -0.5085
16107TIP3    H169812   6.066   5.374  15.037 -1.8988  1.6658  0.2620
16107TIP3    H269813   5.984   5.439  14.928  1.6089  2.2981 -2.1837
16108TIP3   OH269814   3.732   2.255   4.374 -0.9147  0.1987 -0.0361
16108TIP3    H169815   3.718   2.199   4.451 -2.1388 -0.4957 -0.7337
16108TIP3    H269816   3.826   2.273   4.375 -1.2334  2.7225  3.3352
16109TIP3   OH269817   4.958   6.421   4.942  0.5323 -0.2339 -0.6935
16109TIP3    H169818   4.984   6.384   5.027 -0.7694  1.0717  0.3401
16109TIP3    H269819   4.977   6.352   4.879 -1.5923 -2.6313  1.0750
16110TIP3   OH269820   5.884   0.300  13.544  0.5554 -0.3726  0.5361
16110TIP3    H169821   5.948   0.364  13.512  0.3318 -0.1389  0.5445
16110TIP3    H269822   5.903   0.292  13.637  0.0896  0.2793  0.6977
16111TIP3   OH269823   4.888   3.192  11.064 -0.0584  0.0128  0.1255
16111TIP3    H169824   4.980   3.183  11.038 -0.3299  0.8692 -1.2431
16111TIP3    H269825   4.884   3.151  11.150  1.6070 -0.0537  0.2195
16112TIP3   OH269826   0.431   3.631   5.001 -0.1641  0.1423  0.2500
16112TIP3    H169827   0.414   3.582   4.921  0.6439  1.1616 -0.5710
16112TIP3    H269828   0.433   3.723   4.973 -0.8380  0.6048  1.6033
16113TIP3   OH269829   4.389   4.702   2.753  0.1001  0.0401  0.2072
16113TIP3    H169830   4.433   4.629   2.797 -1.5151 -1.6399 -0.8260
16113TIP3    H269831   4.296   4.686   2.768 -0.3035  1.8955 -0.0900
16114TIP3   OH269832   1.305   5.154   2.974 -0.5878 -0.7054 -0.0930
16114TIP3    H169833   1.273   5.239   3.003 -0.8294 -0.4699 -1.0337
16114TIP3    H269834   1.273   5.092   3.040 -0.9334 -0.1508  0.2610
16115TIP3   OH269835   1.327   5.074   4.367  0.3504  0.0739  0.2421
16115TIP3    H169836   1.316   4.987   4.331  0.5512  0.9058 -1.9950
16115TIP3    H269837   1.315   5.133   4.292 -0.7186  2.0266  1.8467
16116TIP3   OH269838   0.975   5.124   1.414  0.1467 -0.3094 -0.5846
16116TIP3    H169839   0.920   5.190   1.373 -0.6702  0.5863  1.7938
16116TIP3    H269840   0.949   5.124   1.506  1.9879 -2.0777  0.0243
16117TIP3   OH269841   3.520   4.446  12.159 -0.4441  0.0966 -0.1891
16117TIP3    H169842   3.468   4.523  12.184 -0.7904 -0.4835  0.9039
16117TIP3    H269843   3.560   4.416  12.240  0.6416 -0.1912 -0.8142
16118TIP3   OH269844   0.811   1.242   0.606  0.0362 -0.2121  0.1739
16118TIP3    H169845   0.726   1.279   0.630 -0.6096 -0.0680 -2.0802
16118TIP3    H269846   0.839   1.294   0.531  0.8717 -1.8689 -0.7350
16119TIP3   OH269847   4.261   6.242  10.818  0.0571 -0.0629 -0.1825
16119TIP3    H169848   4.335   6.183  10.829  0.5336  0.7999  1.5045
16119TIP3    H269849   4.299   6.320  10.778  0.2325  0.6737  1.3767
16120TIP3   OH269850   0.282   5.840  15.821 -0.0904 -0.0673  0.1151
16120TIP3    H169851   0.253   5.930  15.832 -0.8164 -0.1996 -0.6547
16120TIP3    H269852   0.212   5.798  15.771  0.7324 -0.7921 -0.4443
16121TIP3   OH269853   3.999   3.029  10.425 -0.0761 -0.1071 -0.0936
16121TIP3    H169854   4.089   3.048  10.401  0.0857 -0.3411  0.3165
16121TIP3    H269855   4.003   3.010  10.519 -0.3842 -1.2108 -0.3005
16122TIP3   OH269856   1.262   2.406  16.741  0.4549 -0.4249 -0.6443
16122TIP3    H169857   1.337   2.372  16.789  0.6270 -1.0635 -1.3414
16122TIP3    H269858   1.217   2.328  16.708 -1.0380 -0.1108  0.4989
16123TIP3   OH269859   3.871   6.342   1.519 -0.4460 -1.0628 -0.0514
16123TIP3    H169860   3.895   6.424   1.476 -1.4875 -1.4984 -1.5231
16123TIP3    H269861   3.947   6.321   1.574 -0.1801  0.9011  0.4173
16124TIP3   OH269862   3.574   5.280  12.588  0.5353  0.2160 -0.0073
16124TIP3    H169863   3.630   5.249  12.660 -0.4730 -0.7852  0.3887
16124TIP3    H269864   3.489   5.240  12.606  0.1895  0.1750 -1.6285
16125TIP3   OH269865   2.216   2.623   1.540  0.2238  0.4449 -0.3203
16125TIP3    H169866   2.165   2.552   1.500  0.5880  0.0588 -0.1147
16125TIP3    H269867   2.212   2.695   1.477 -0.4673  0.3747 -0.3641
16126TIP3   OH269868   0.753   0.197  10.496  0.5269  0.0219 -0.1703
16126TIP3    H169869   0.712   0.119  10.458  0.4756 -0.3541  0.6460
16126TIP3    H269870   0.841   0.198  10.458  0.5592 -0.4849 -0.1183
16127TIP3   OH269871   3.031   1.513   1.050  0.5703 -0.1630 -0.1442
16127TIP3    H169872   3.095   1.577   1.020  0.2855  0.4550  0.5236
16127TIP3    H269873   2.972   1.502   0.976  1.5119 -0.8374 -0.8115
16128TIP3   OH269874   4.118   0.564  11.590 -0.1436 -0.0999  0.1453
16128TIP3    H169875   4.135   0.656  11.610  0.5491  0.1217 -1.3311
16128TIP3    H269876   4.193   0.537  11.538 -0.2151 -1.5894  0.7803
16129TIP3   OH269877   1.556   0.143   3.937  0.3332  0.1865 -0.1395
16129TIP3    H169878   1.608   0.159   3.859  0.9816  1.2433  0.4912
16129TIP3    H269879   1.617   0.157   4.010 -0.3637 -0.3757  0.5639
16130TIP3   OH269880   5.394   3.050   4.154 -0.4124  0.0139  0.1080
16130TIP3    H169881   5.319   3.028   4.209 -1.7746  1.6030 -1.0211
16130TIP3    H269882   5.466   3.067   4.215 -1.6533  0.9361  1.3510
16131TIP3   OH269883   6.057   6.626  15.916 -0.0483  0.8075  0.5779
16131TIP3    H169884   5.990   6.644  15.850  0.0449  0.3102  0.3436
16131TIP3    H269885   6.059   6.531  15.924  0.3268  0.8370  0.8998
16132TIP3   OH269886   0.372   4.018  13.530 -0.5219  0.2176  0.1497
16132TIP3    H169887   0.338   3.929  13.516 -1.7787  0.8203 -0.8248
16132TIP3    H269888   0.425   4.036  13.452 -1.1700  0.7248 -0.1774
16133TIP3   OH269889   3.426   3.108  11.351  0.6832  0.0363 -0.8378
16133TIP3    H169890   3.484   3.172  11.309 -0.5506  1.3004 -0.7179
16133TIP3    H269891   3.385   3.157  11.422 -0.4516 -0.8373 -0.8658
16134TIP3   OH269892   4.216   6.136   3.183 -0.2292  0.0368 -0.3940
16134TIP3    H169893   4.311   6.140   3.169 -0.4097  0.2211 -1.7159
16134TIP3    H269894   4.195   6.216   3.230  0.4590 -0.7280  1.3216
16135TIP3   OH269895   3.162   5.760  16.458 -0.2277  0.0220  0.0086
16135TIP3    H169896   3.118   5.844  16.443 -0.0819  0.3603  1.3631
16135TIP3    H269897   3.116   5.698  16.401 -1.0740  0.7950 -0.1746
16136TIP3   OH269898   4.625   5.300  16.101 -0.3554  0.1387  0.3883
16136TIP3    H169899   4.699   5.329  16.154 -0.8754  1.3933  0.4490
16136TIP3    H269900   4.575   5.379  16.082 -1.1916 -0.5502 -0.4291
16137TIP3   OH269901   5.003   6.028   1.196  0.1327 -0.0984 -0.5729
16137TIP3    H169902   4.928   6.082   1.169  0.5135  1.1599  0.7676
16137TIP3    H269903   5.012   6.044   1.290 -1.9019 -5.2200  0.8141
16138TIP3   OH269904   2.006   0.348  13.746 -0.6663 -0.0119 -0.3566
16138TIP3    H169905   2.023   0.393  13.829 -0.0789  2.5174 -1.7492
16138TIP3    H269906   1.997   0.256  13.770  2.2819  0.1927  2.2006
16139TIP3   OH269907   5.110   3.175   5.824 -0.0676 -0.9594 -0.0453
16139TIP3    H169908   5.104   3.215   5.737  1.1504 -1.8341 -0.5647
16139TIP3    H269909   5.075   3.241   5.884 -0.0657  0.0269 -1.1066
16140TIP3   OH269910   0.117   1.503   4.712  0.1540 -0.0118  0.0723
16140TIP3    H169911   0.189   1.562   4.689 -0.3096  0.6723  0.3241
16140TIP3    H269912   0.064   1.497   4.633  1.4716 -2.0335 -0.7279
16141TIP3   OH269913   4.520   2.947   2.299  0.1183  0.0352 -0.1890
16141TIP3    H169914   4.461   3.007   2.344  0.2772 -0.5609  0.8594
16141TIP3    H269915   4.519   2.868   2.353  1.9758  0.0507 -0.0470
16142TIP3   OH269916   5.323   0.972  15.076  0.9059 -0.3338  0.3585
16142TIP3    H169917   5.234   0.936  15.082  0.1167  1.4755  0.0218
16142TIP3    H269918   5.318   1.056  15.122  2.3540 -0.0365  0.0068
16143TIP3   OH269919   0.106   0.185  13.439 -0.2053 -0.5359  0.1833
16143TIP3    H169920   0.017   0.168  13.408  0.0298  1.3926 -1.8100
16143TIP3    H269921   0.135   0.102  13.476 -2.1820 -1.7262 -0.7730
16144TIP3   OH269922   0.253   5.420   1.818  0.4547 -0.3790  0.2634
16144TIP3    H169923   0.248   5.511   1.789 -1.8911 -0.5275 -0.0404
16144TIP3    H269924   0.251   5.425   1.913 -0.7547 -0.1069  0.2410
16145TIP3   OH269925   6.269   6.016   0.727  0.0494 -0.4569 -0.1025
16145TIP3    H169926   6.217   6.021   0.647 -0.4617  0.2013  0.2607
16145TIP3    H269927   6.334   5.947   0.710 -2.7135 -3.4412  0.4309
16146TIP3   OH269928   5.336   5.180   5.496  0.2471  0.1368  0.0506
16146TIP3    H169929   5.332   5.188   5.591  2.6152  0.1273  0.2142
16146TIP3    H269930   5.319   5.087   5.479  2.7465 -0.5208  0.7756
16147TIP3   OH269931   0.279   4.475   3.009 -0.1311  0.1703 -0.6796
16147TIP3    H169932   0.292   4.410   2.940  0.9629 -2.0479  1.4565
16147TIP3    H269933   0.249   4.553   2.963 -0.3269 -1.4448 -3.5342
16148TIP3   OH269934   4.301   0.243   0.168  0.1029  0.5594 -0.2506
16148TIP3    H169935   4.234   0.232   0.101  0.5239  0.6588 -0.6970
16148TIP3    H269936   4.261   0.212   0.248 -0.1163 -0.3846 -0.7093
16149TIP3   OH269937   3.826   2.059  12.204 -0.1307  0.3654  0.0703
16149TIP3    H169938   3.881   2.087  12.277  0.4823  0.1852 -0.3168
16149TIP3    H269939   3.808   1.967  12.222 -0.8029  0.5764  0.5033
16150TIP3   OH269940   3.931   4.201  16.613  0.4683  0.0493  0.1853
16150TIP3    H169941   3.937   4.179  16.705 -0.4228 -0.8341  0.0411
16150TIP3    H269942   3.870   4.275  16.610 -1.2169 -1.2738  0.1395
16151TIP3   OH269943   2.801   0.571  11.479  0.3690 -0.1546 -0.6330
16151TIP3    H169944   2.813   0.500  11.417 -0.0539 -1.0773  0.3197
16151TIP3    H269945   2.815   0.531  11.565 -1.4641  0.5142  0.0228
16152TIP3   OH269946   4.046   4.463  12.192  0.6444  0.6244 -0.1467
16152TIP3    H169947   4.097   4.488  12.115  0.1082 -1.3400 -1.2017
16152TIP3    H269948   4.002   4.382  12.167 -1.3939  1.1536  1.4488
16153TIP3   OH269949   2.676   4.288   4.120  0.5422 -0.0695  0.1468
16153TIP3    H169950   2.616   4.306   4.192  0.6775 -0.5016  0.3707
16153TIP3    H269951   2.719   4.372   4.103 -0.1056  0.2321  0.0039
16154TIP3   OH269952   1.727   2.832  16.659 -0.5574 -0.4049  0.9949
16154TIP3    H169953   1.790   2.849  16.729  0.1647 -2.7835  0.9982
16154TIP3    H269954   1.773   2.775  16.599 -1.3340  1.1879 -1.2459
16155TIP3   OH269955   6.574   3.211   3.599 -0.7947  0.4235 -0.3116
16155TIP3    H169956   6.597   3.175   3.513 -0.5833  1.1479 -0.5678
16155TIP3    H269957   6.574   3.306   3.586  0.9125  0.6241  0.9109
16156TIP3   OH269958   3.833   1.679   4.751 -0.0783  0.3285  0.7539
16156TIP3    H169959   3.790   1.762   4.733  0.3749  0.1741 -1.2495
16156TIP3    H269960   3.760   1.617   4.764 -0.4217  1.1858  3.3069
16157TIP3   OH269961   3.556   6.174  12.092  0.1798 -0.7290 -0.6395
16157TIP3    H169962   3.481   6.227  12.067  0.2751 -1.3810 -2.4489
16157TIP3    H269963   3.562   6.107  12.024 -0.2206 -3.4207  1.7858
16158TIP3   OH269964   1.969   5.896  12.612 -0.5123  0.8607  0.3819
16158TIP3    H169965   2.061   5.920  12.601 -0.7884  1.8332  0.1027
16158TIP3    H269966   1.950   5.839  12.538 -0.1550  0.7166  0.3972
16159TIP3   OH269967   6.681   2.725  13.776  0.4809 -0.2609  0.0153
16159TIP3    H169968   6.636   2.713  13.860  0.4148 -1.9792 -0.2213
16159TIP3    H269969   6.701   2.819  13.772 -1.2261  0.1852  1.0660
16160TIP3   OH269970   1.412   3.083  16.697  0.3836 -0.3393 -0.1365
16160TIP3    H169971   1.398   3.134  16.777 -0.5486 -1.3148  0.3452
16160TIP3    H269972   1.440   3.148  16.632 -0.0944  0.6694  0.6363
16161TIP3   OH269973   0.100   5.699   1.958 -0.3782 -0.0022  0.1728
16161TIP3    H169974   0.027   5.693   2.019  0.0351  2.1847  0.9898
16161TIP3    H269975   0.159   5.628   1.984 -1.3479 -0.6451  0.6859
16162TIP3   OH269976   5.959   6.237   5.109  0.3353 -0.0477  0.2877
16162TIP3    H169977   5.939   6.146   5.132 -0.0724 -0.6518 -2.1360
16162TIP3    H269978   5.873   6.277   5.097  0.3865 -0.6062 -2.8464
16163TIP3   OH269979   3.933   1.983   6.007 -0.1152 -0.3323 -0.5705
16163TIP3    H169980   4.009   1.966   5.951  0.6639  1.1880 -0.0331
16163TIP3    H269981   3.970   2.019   6.087 -1.4315  0.9941 -0.5205
16164TIP3   OH269982   1.361   4.076  12.216  0.4060 -0.4148 -0.6486
16164TIP3    H169983   1.401   4.141  12.274  1.0506  0.3328 -1.8954
16164TIP3    H269984   1.430   4.012  12.200  0.7031  0.1460 -1.7067
16165TIP3   OH269985   2.889   0.453  14.641  0.0349  0.0819  0.5812
16165TIP3    H169986   2.801   0.467  14.677  0.0507  1.0029  0.2924
16165TIP3    H269987   2.930   0.540  14.644  1.3216 -0.5295  1.7001
16166TIP3   OH269988   1.987   2.192   6.836 -0.3606 -0.5680 -0.5067
16166TIP3    H169989   1.949   2.159   6.755 -3.0293  1.5224 -0.2541
16166TIP3    H269990   2.046   2.261   6.808  0.0925 -1.0429 -0.7333
16167TIP3   OH269991   1.754   1.902   5.721 -0.6172  0.0292 -0.3702
16167TIP3    H169992   1.776   1.981   5.671  0.7620  0.3314  0.6564
16167TIP3    H269993   1.799   1.832   5.674 -0.0867  0.1794 -0.1002
16168TIP3   OH269994   5.463   0.104  10.941  0.4392  0.5519 -0.1797
16168TIP3    H169995   5.416   0.032  10.899  1.8481 -0.0331 -0.7931
16168TIP3    H269996   5.443   0.095  11.034  1.4058 -1.2875 -0.1076
16169TIP3   OH269997   2.231   6.547  10.595 -0.4831  0.3294  0.4021
16169TIP3    H169998   2.141   6.563  10.565 -1.4133 -1.0222  2.2438
16169TIP3    H269999   2.284   6.548  10.516 -2.0491  1.5853 -0.6922
16170TIP3   OH270000   4.944   6.374   2.294  0.2566 -0.4226  0.4131
16170TIP3    H170001   4.866   6.351   2.344 -0.6966 -0.8690 -1.1960
16170TIP3    H270002   4.910   6.421   2.217  1.7338  1.1358  0.6422
16171TIP3   OH270003   4.187   5.395   3.362  0.2791  0.5293  0.2739
16171TIP3    H170004   4.133   5.349   3.426  1.0605 -0.5941  0.1610
16171TIP3    H270005   4.219   5.473   3.409  2.7400 -1.4366  2.1464
16172TIP3   OH270006   5.106   2.731   1.208 -0.6987  0.8340 -0.1199
16172TIP3    H170007   5.118   2.640   1.181 -0.3101  0.7338  0.3737
16172TIP3    H270008   5.121   2.730   1.303 -0.2541  1.4793 -0.1741
16173TIP3   OH270009   4.043   2.663   4.761  0.0824 -0.5670 -0.2636
16173TIP3    H170010   4.052   2.699   4.849 -0.1789 -0.9137 -0.0951
16173TIP3    H270011   3.960   2.616   4.763 -0.7988  0.8581 -1.1997
16174TIP3   OH270012   3.839   2.587  13.443 -0.1483  0.0473  0.1710
16174TIP3    H170013   3.929   2.558  13.457  0.0979  0.6845 -0.0429
16174TIP3    H270014   3.785   2.509  13.458  0.4515 -0.3768  0.1314
16175TIP3   OH270015   0.792   5.225   2.750  0.2959  0.0612 -0.3275
16175TIP3    H170016   0.858   5.295   2.754  0.5556 -0.1390 -1.0008
16175TIP3    H270017   0.785   5.204   2.657  0.1440 -0.7407 -0.1407
16176TIP3   OH270018   5.941   4.541  16.730  0.3147 -0.2169 -0.1387
16176TIP3    H170019   5.881   4.594  16.783 -0.1277  0.4123 -1.2444
16176TIP3    H270020   6.022   4.592  16.728  0.1505  0.0417 -0.5136
16177TIP3   OH270021   4.071   2.927  12.362 -0.5638  0.5258  0.0625
16177TIP3    H170022   3.994   2.884  12.325 -0.6338  1.6871 -1.2369
16177TIP3    H270023   4.051   3.021  12.358  1.3363  0.9352 -1.3810
16178TIP3   OH270024   4.907   6.409  12.862 -0.3326 -0.8203  0.2384
16178TIP3    H170025   4.978   6.407  12.797  0.3762  1.9280  0.7936
16178TIP3    H270026   4.830   6.378  12.814  0.1370  1.2581 -2.0497
16179TIP3   OH270027   5.495   3.057   4.665  0.2786 -0.4284 -0.1531
16179TIP3    H170028   5.519   3.093   4.751  0.7090 -1.3765  0.1319
16179TIP3    H270029   5.446   3.128   4.622 -1.7126 -0.6095  1.6483
16180TIP3   OH270030   5.058   5.785  12.084  0.0785  0.2383  0.1556
16180TIP3    H170031   5.114   5.792  12.161 -0.3275  1.8834  0.3581
16180TIP3    H270032   5.093   5.850  12.022 -0.1990 -0.3541 -0.6393
16181TIP3   OH270033   6.053   3.306  11.998 -0.2934  0.1918 -0.1311
16181TIP3    H170034   6.103   3.334  11.922  0.1120 -1.2367 -0.4098
16181TIP3    H270035   6.068   3.212  12.004 -0.7082  0.1961  1.4326
16182TIP3   OH270036   0.937   4.054  16.131 -0.1499 -0.2287 -0.0639
16182TIP3    H170037   0.885   4.040  16.210  0.3865  1.3725  0.6248
16182TIP3    H270038   0.990   4.131  16.151  0.9640 -0.5738 -1.5132
16183TIP3   OH270039   0.955   2.630   4.181  0.0187  0.4808 -0.4045
16183TIP3    H170040   1.038   2.673   4.198 -0.2946  1.4173 -1.1855
16183TIP3    H270041   0.935   2.651   4.090 -0.6618 -0.4521 -0.4900
16184TIP3   OH270042   6.395   4.656  12.389  0.0462  0.4982  0.2316
16184TIP3    H170043   6.365   4.725  12.329 -0.4713 -1.3696 -1.8066
16184TIP3    H270044   6.472   4.619  12.346 -1.2801 -1.9690 -0.2602
16185TIP3   OH270045   0.480   6.743   0.278  0.1889 -0.0991 -0.0753
16185TIP3    H170046   0.444   6.657   0.254  1.3333 -1.1115  1.5881
16185TIP3    H270047   0.430   6.768   0.356 -0.0959  0.7288 -0.5183
16186TIP3   OH270048   0.246   0.832   6.005 -0.2394  0.9135 -0.5370
16186TIP3    H170049   0.182   0.880   5.952  0.3475  0.7404 -1.4138
16186TIP3    H270050   0.226   0.858   6.095 -0.3453  2.3165 -0.9386
16187TIP3   OH270051   6.384   0.291  13.844 -0.3173  0.1388  0.7707
16187TIP3    H170052   6.312   0.326  13.791  0.7278  1.6905  0.3256
16187TIP3    H270053   6.391   0.351  13.918 -0.1875 -0.6497  1.4206
16188TIP3   OH270054   5.456   0.130   0.788 -0.0833 -0.0056  0.1936
16188TIP3    H170055   5.481   0.138   0.696  0.8084  1.2855  0.5177
16188TIP3    H270056   5.449   0.036   0.803 -0.8188 -0.2223 -1.3375
16189TIP3   OH270057   1.285   1.085  13.917  0.5109 -0.1981 -0.6746
16189TIP3    H170058   1.190   1.094  13.922  0.2786 -2.2915 -0.3581
16189TIP3    H270059   1.318   1.140  13.989 -0.6694 -1.6009  1.0341
16190TIP3   OH270060   4.879   0.741   4.160 -0.4686  0.5069  0.2361
16190TIP3    H170061   4.929   0.767   4.238  0.5798 -1.2741  0.2033
16190TIP3    H270062   4.796   0.709   4.196  1.0527 -3.0295  1.0308
16191TIP3   OH270063   1.343   1.806   4.922 -0.3642  0.0338  0.1259
16191TIP3    H170064   1.296   1.843   4.997  0.5173  0.0955  0.6658
16191TIP3    H270065   1.435   1.829   4.937 -0.1199 -0.2928 -0.7774
16192TIP3   OH270066   5.481   6.491  12.155  0.6729  0.0292 -0.0478
16192TIP3    H170067   5.549   6.532  12.102  1.7872  0.4335  1.5903
16192TIP3    H270068   5.399   6.531  12.124  1.3555  0.7941 -0.9366
16193TIP3   OH270069   6.176   6.107  14.440 -0.6319  0.2046  0.1878
16193TIP3    H170070   6.114   6.037  14.459  0.5890 -0.9347  0.1161
16193TIP3    H270071   6.130   6.164  14.379 -1.0077 -1.5925 -1.2821
16194TIP3   OH270072   6.733   1.033   4.470  0.0771 -0.0706 -0.6307
16194TIP3    H170073   6.641   1.062   4.468 -0.2793 -1.1184 -0.0376
16194TIP3    H270074   6.744   0.993   4.557  1.3793  0.9140 -0.3118
16195TIP3   OH270075   2.217   1.158   4.567 -0.0949 -0.0265 -0.4900
16195TIP3    H170076   2.285   1.094   4.589  0.1859 -0.1483 -1.6499
16195TIP3    H270077   2.260   1.243   4.576  0.4485 -0.1250 -1.9022
16196TIP3   OH270078   1.225   3.736   1.229 -0.2032 -0.1272  0.2997
16196TIP3    H170079   1.207   3.682   1.307  0.5269  0.1293  0.6531
16196TIP3    H270080   1.199   3.824   1.256  0.7546  0.0943  0.5192
16197TIP3   OH270081   0.481   3.003  11.341 -0.0986 -0.0835 -0.8938
16197TIP3    H170082   0.539   2.999  11.265 -0.6765 -2.1389 -1.2862
16197TIP3    H270083   0.508   2.931  11.397 -0.6836  0.4510  0.1162
16198TIP3   OH270084   4.734   1.151  14.040  0.3576 -0.4478 -0.8280
16198TIP3    H170085   4.765   1.065  14.071  0.8292 -1.0603 -2.8341
16198TIP3    H270086   4.727   1.141  13.945 -1.3416  1.2130 -0.9337
16199TIP3   OH270087   5.964   4.552   2.393  0.3469 -0.1704  0.5131
16199TIP3    H170088   6.014   4.510   2.464  0.0320 -0.2267  0.7067
16199TIP3    H270089   5.873   4.530   2.413  0.2600 -0.2370  0.0529
16200TIP3   OH270090   5.180   4.059   1.401 -0.0145  0.8589 -0.4105
16200TIP3    H170091   5.217   4.119   1.336  0.9173  2.7306  1.7530
16200TIP3    H270092   5.086   4.076   1.398  0.1511  1.8203 -0.4087
16201TIP3   OH270093   5.122   0.449   3.864  0.4159 -0.0086  0.2049
16201TIP3    H170094   5.161   0.418   3.945 -3.3150  1.2528  2.7083
16201TIP3    H270095   5.042   0.398   3.854 -0.1206  1.0974 -1.7574
16202TIP3   OH270096   1.542   1.199  15.533  0.0422 -0.1374 -0.0538
16202TIP3    H170097   1.523   1.253  15.610  0.5015  1.2107 -0.8704
16202TIP3    H270098   1.610   1.138  15.564 -0.2888 -0.0917  0.8012
16203TIP3   OH270099   6.117   0.715  11.904 -0.2290 -0.5360 -0.1947
16203TIP3    H170100   6.163   0.757  11.832  0.7548 -1.1727  0.0430
16203TIP3    H270101   6.035   0.684  11.866 -0.0913 -0.1330 -0.8330
16204TIP3   OH270102   0.130   4.425   2.592  0.5787  0.1874 -0.0305
16204TIP3    H170103   0.040   4.456   2.584  0.9273  0.9023 -1.5797
16204TIP3    H270104   0.131   4.377   2.675 -2.0733 -2.6858 -1.4502
16205TIP3   OH270105   2.047   5.243  14.535  0.4568  0.0958  0.1485
16205TIP3    H170106   2.135   5.248  14.498 -0.0376  0.9845 -0.9833
16205TIP3    H270107   2.027   5.150  14.539  0.7444 -0.0436 -1.3394
16206TIP3   OH270108   3.245   2.958   3.907  0.4312  0.0352  0.6961
16206TIP3    H170109   3.312   2.993   3.965  0.1870 -0.6543  1.4135
16206TIP3    H270110   3.293   2.900   3.847  0.5012 -0.3512  1.1210
16207TIP3   OH270111   2.712   2.309  10.557 -0.4508  0.8722  0.4508
16207TIP3    H170112   2.617   2.310  10.558 -0.4513  1.5559  2.3820
16207TIP3    H270113   2.739   2.384  10.610  1.1692  0.4751  0.2666
16208TIP3   OH270114   0.938   6.767  12.783  0.2493 -0.2211 -0.5153
16208TIP3    H170115   1.023   6.728  12.764 -0.3337 -2.0670  0.4214
16208TIP3    H270116   0.923   6.747  12.875 -0.3065  1.9238 -0.0726
16209TIP3   OH270117   6.440   5.773  13.372  0.4743 -0.1031 -0.1651
16209TIP3    H170118   6.534   5.789  13.362  0.5470 -1.0337 -1.1337
16209TIP3    H270119   6.421   5.799  13.463  1.8240 -0.6793  0.3064
16210TIP3   OH270120   5.768   3.081  14.719 -0.5709 -0.4803  0.4340
16210TIP3    H170121   5.695   3.125  14.762 -1.6183  1.9226 -3.3231
16210TIP3    H270122   5.838   3.145  14.717 -0.3903 -0.6780 -0.8520
16211TIP3   OH270123   2.277   4.508  15.853 -0.9354  0.0661 -0.7351
16211TIP3    H170124   2.361   4.555  15.851 -0.5410 -0.6322 -0.7551
16211TIP3    H270125   2.240   4.524  15.766 -2.1166  2.6528  0.1546
16212TIP3   OH270126   0.755   5.580   2.293 -0.1350  0.7410 -0.2514
16212TIP3    H170127   0.799   5.557   2.211  1.5785 -2.3353  1.3558
16212TIP3    H270128   0.819   5.633   2.341  0.2096 -0.2220  0.3836
16213TIP3   OH270129   3.508   4.757   3.753 -0.0711 -0.6195 -0.0545
16213TIP3    H170130   3.563   4.832   3.778  1.0112 -1.2618 -0.3996
16213TIP3    H270131   3.419   4.783   3.776  0.0578  1.4128 -1.6007
16214TIP3   OH270132   5.831   4.935   1.760  0.0276  0.1961 -0.3493
16214TIP3    H170133   5.756   4.933   1.819  1.0815  1.7684  1.1748
16214TIP3    H270134   5.828   4.852   1.713 -0.8691 -1.1771  1.9698
16215TIP3   OH270135   2.761   5.141   5.822 -0.7349  0.6764  0.3745
16215TIP3    H170136   2.727   5.148   5.732  0.6125  1.1583 -0.1240
16215TIP3    H270137   2.821   5.066   5.818 -1.6422 -0.1191  1.2176
16216TIP3   OH270138   2.396   6.137   1.410  0.1963 -0.6683 -0.3406
16216TIP3    H170139   2.342   6.186   1.472  3.2169  0.4087  1.6644
16216TIP3    H270140   2.414   6.054   1.455  2.1319 -0.0180  0.1561
16217TIP3   OH270141   3.657   0.614  14.351  0.8616 -0.2011 -0.1440
16217TIP3    H170142   3.629   0.609  14.442  1.1168 -0.3932 -0.0740
16217TIP3    H270143   3.579   0.590  14.300  0.5971  0.3338  0.0041
16218TIP3   OH270144   0.478   2.048  15.453  0.4736 -0.1995 -0.0783
16218TIP3    H170145   0.391   2.044  15.493  0.5558 -1.1662  0.0284
16218TIP3    H270146   0.461   2.065  15.360  0.2550  1.4086  0.2277
16219TIP3   OH270147   3.239   2.423  14.959  0.1926  0.7412 -0.1808
16219TIP3    H170148   3.157   2.411  15.007  0.0421  0.7795 -0.4245
16219TIP3    H270149   3.280   2.337  14.961 -0.1087  0.5851 -0.5140
16220TIP3   OH270150   5.042   0.364   3.057 -0.2943 -0.3203 -0.0028
16220TIP3    H170151   5.052   0.446   3.105  0.7210 -0.1344 -0.5081
16220TIP3    H270152   4.947   0.352   3.051 -0.5110  1.4909 -1.0434
16221TIP3   OH270153   5.921   0.559   0.305 -0.4696 -0.6174 -0.5388
16221TIP3    H170154   5.917   0.463   0.307 -0.3107 -0.6196 -0.2171
16221TIP3    H270155   6.010   0.580   0.333 -0.2919 -0.3923 -1.2581
16222TIP3   OH270156   1.476   5.947  17.126  0.3077  0.0701 -0.0076
16222TIP3    H170157   1.422   5.902  17.192 -0.0916  1.7044  0.8316
16222TIP3    H270158   1.419   5.953  17.049 -0.1587  0.4160  0.3580
16223TIP3   OH270159   3.671   3.164  13.351 -0.3178  0.1551  0.4998
16223TIP3    H170160   3.637   3.156  13.440 -2.3367  1.5302 -0.0921
16223TIP3    H270161   3.693   3.256  13.341 -0.3882  0.0765 -0.5084
16224TIP3   OH270162   0.406   5.259   1.629 -0.6039  0.2023  0.0464
16224TIP3    H170163   0.446   5.202   1.695  1.4932 -0.2946 -1.5567
16224TIP3    H270164   0.343   5.311   1.679  2.1856  1.2078  2.9096
16225TIP3   OH270165   4.115   2.041  15.051  0.2153 -0.0616  0.4119
16225TIP3    H170166   4.065   2.040  14.969 -1.9510 -1.2922  1.6388
16225TIP3    H270167   4.082   2.118  15.097 -0.3941 -0.7203  1.1064
16226TIP3   OH270168   4.960   4.837  13.219 -0.2997  0.9174  0.1573
16226TIP3    H170169   4.981   4.745  13.203 -1.3149  0.7797 -0.4676
16226TIP3    H270170   5.039   4.873  13.259 -0.7061 -0.8240  2.8314
16227TIP3   OH270171   0.048   3.906   5.912 -0.6631  0.3834  0.3510
16227TIP3    H170172   0.043   3.988   5.962 -0.7259  1.2254 -0.9998
16227TIP3    H270173   0.054   3.934   5.821  1.1595 -1.0685 -0.0447
16228TIP3   OH270174   2.004   6.807  15.450  0.1949 -0.3547  0.2249
16228TIP3    H170175   2.039   6.763  15.527 -0.6819 -0.3606  0.6337
16228TIP3    H270176   1.959   6.738  15.402  1.0332 -0.4236 -0.4872
16229TIP3   OH270177   6.510   0.183  10.800 -0.5294  0.0390  0.0312
16229TIP3    H170178   6.437   0.121  10.801  0.5821 -1.3475  1.5656
16229TIP3    H270179   6.494   0.240  10.875 -0.4768  0.2929 -0.1486
16230TIP3   OH270180   0.217   2.249   4.299 -0.9008  0.1953  0.2955
16230TIP3    H170181   0.276   2.180   4.269  0.8870  1.6826  0.2059
16230TIP3    H270182   0.153   2.257   4.229 -1.3623 -1.5792  0.4722
16231TIP3   OH270183   0.227   4.071   0.653  0.4801 -0.3379  0.4416
16231TIP3    H170184   0.276   4.152   0.641 -1.7334  0.9088 -0.8736
16231TIP3    H270185   0.263   4.011   0.587  0.1741  0.6002 -0.6121
16232TIP3   OH270186   6.322   1.238   4.048 -0.0555  0.4990  0.3186
16232TIP3    H170187   6.234   1.211   4.074  0.0211 -1.1976 -0.9960
16232TIP3    H270188   6.348   1.173   3.982  1.7343  1.6279 -0.1411
16233TIP3   OH270189   6.750   0.712   4.223  0.1079 -0.5486  0.2731
16233TIP3    H170190   6.787   0.690   4.138  0.5748 -0.0777  0.3412
16233TIP3    H270191   6.700   0.792   4.208 -0.0223 -0.6091  0.3849
16234TIP3   OH270192   0.513   5.251  13.946 -0.1762  0.0389  0.8595
16234TIP3    H170193   0.486   5.217  13.861  1.9862  0.1561  0.0548
16234TIP3    H270194   0.436   5.297  13.979 -1.1982 -0.3687 -0.8352
16235TIP3   OH270195   2.280   1.047  16.003 -0.3425 -0.1578 -0.1417
16235TIP3    H170196   2.268   1.135  15.969  1.7948  0.0293 -0.5604
16235TIP3    H270197   2.287   0.992  15.925 -0.6657 -0.5578  0.1057
16236TIP3   OH270198   0.509   2.238  14.985 -0.1450  0.2248 -0.2540
16236TIP3    H170199   0.540   2.163  15.037 -0.0835  1.7169  2.0343
16236TIP3    H270200   0.414   2.234  14.992 -0.2613 -0.8264 -1.9925
16237TIP3   OH270201   5.507   4.680   1.299  0.5230 -0.4233 -0.0981
16237TIP3    H170202   5.554   4.726   1.368  1.4680 -0.5907 -0.6135
16237TIP3    H270203   5.540   4.590   1.302 -0.0090 -0.6317 -0.2574
16238TIP3   OH270204   5.440   4.924  16.487  0.1112 -0.3181 -0.2255
16238TIP3    H170205   5.486   4.843  16.467  0.3294 -0.4052  0.5675
16238TIP3    H270206   5.419   4.963  16.402 -0.7766 -1.6362 -0.6361
16239TIP3   OH270207   6.484   2.062   3.561  0.1968 -0.0223 -0.7812
16239TIP3    H170208   6.403   2.051   3.511 -0.5201  0.2034  0.2987
16239TIP3    H270209   6.457   2.057   3.653  1.1949  1.4607 -0.3767
16240TIP3   OH270210   6.565   4.486   0.294 -0.2341  0.4154  0.8768
16240TIP3    H170211   6.637   4.425   0.307  0.0491  0.1126 -1.6517
16240TIP3    H270212   6.605   4.563   0.253 -0.9888  1.2734  1.6822
16241TIP3   OH270213   5.527   5.732  16.225  0.1023  0.1195 -0.1194
16241TIP3    H170214   5.485   5.705  16.307 -2.6468  0.7211 -1.2129
16241TIP3    H270215   5.615   5.696  16.230 -0.4872 -1.2130  2.3926
16242TIP3   OH270216   2.339   3.946  11.123  0.3358  0.1591  0.2653
16242TIP3    H170217   2.370   4.034  11.101  0.4123  0.4846  1.6340
16242TIP3    H270218   2.407   3.888  11.088  0.3588  0.6415 -0.5146
16243TIP3   OH270219   1.137   0.355   1.120  0.0316  0.1615  0.1108
16243TIP3    H170220   1.054   0.313   1.145 -0.7201  1.3444 -0.3363
16243TIP3    H270221   1.169   0.394   1.200 -0.7433  1.1871 -0.0591
16244TIP3   OH270222   4.909   2.599  14.569  0.3601 -0.4408  0.4802
16244TIP3    H170223   4.862   2.523  14.603  1.0071 -0.9680  0.2010
16244TIP3    H270224   4.999   2.570  14.558  0.8962  0.7250  1.5282
16245TIP3   OH270225   6.291   5.030  16.110  0.3056  0.1375 -0.3014
16245TIP3    H170226   6.302   5.068  16.024 -0.2235  1.7137  0.2905
16245TIP3    H270227   6.252   4.944  16.094 -3.5327  1.8929 -1.5560
16246TIP3   OH270228   2.272   5.618   0.980 -0.1222 -0.7232  0.5880
16246TIP3    H170229   2.351   5.582   1.020  0.4277 -1.6469 -1.2377
16246TIP3    H270230   2.200   5.570   1.023  0.5086 -2.6671 -0.4026
16247TIP3   OH270231   3.512   0.601   2.380 -0.0458  0.4419 -0.0777
16247TIP3    H170232   3.464   0.609   2.462 -1.1176 -1.3523 -0.4701
16247TIP3    H270233   3.444   0.585   2.314  0.9390 -0.4530 -0.9156
16248TIP3   OH270234   4.764   6.540   3.003  0.3668  0.4493 -0.1328
16248TIP3    H170235   4.709   6.617   3.017 -0.6071 -0.1050 -0.7925
16248TIP3    H270236   4.819   6.562   2.928  0.0884  0.4981 -0.3207
16249TIP3   OH270237   3.980   3.188  11.095 -0.1928  0.4222  0.3117
16249TIP3    H170238   3.927   3.159  11.169 -0.9768 -0.8743 -0.7085
16249TIP3    H270239   3.922   3.178  11.019  1.1432  0.0104 -0.6973
16250TIP3   OH270240   3.549   6.810   4.206  0.4281 -0.4450  0.3386
16250TIP3    H170241   3.526   6.719   4.187 -0.6929 -0.0049 -0.5096
16250TIP3    H270242   3.553   6.815   4.301 -0.5387 -1.1369  0.4250
16251TIP3   OH270243   1.221   4.481  10.960  0.5003 -0.0692 -0.1296
16251TIP3    H170244   1.207   4.568  10.998  0.2955 -0.6559  1.2108
16251TIP3    H270245   1.293   4.444  11.011  0.1171 -0.9445 -0.1934
16252TIP3   OH270246   3.233   1.445   1.504  0.2555 -0.4730 -0.5132
16252TIP3    H170247   3.187   1.515   1.550  0.6998 -0.6014  0.1420
16252TIP3    H270248   3.228   1.370   1.564  2.2927 -0.1723  0.1106
16253TIP3   OH270249   5.281   2.602  11.854 -0.1878 -0.0898  0.1315
16253TIP3    H170250   5.338   2.627  11.927 -1.2030  1.3765  0.4717
16253TIP3    H270251   5.235   2.524  11.885  0.5999 -0.4673  0.3892
16254TIP3   OH270252   4.800   0.784  12.191  0.6874  0.7630 -0.2481
16254TIP3    H170253   4.871   0.773  12.126 -0.4487 -1.0740 -1.2785
16254TIP3    H270254   4.771   0.694  12.209  0.5554  1.2699  2.4131
16255TIP3   OH270255   4.307   4.392   1.594  0.6731  0.0454 -0.0809
16255TIP3    H170256   4.229   4.381   1.649  0.7239  2.5182  0.5837
16255TIP3    H270257   4.293   4.476   1.549  3.0099  0.6338  0.1729
16256TIP3   OH270258   5.319   1.785  12.090 -0.3962  0.2967  0.0316
16256TIP3    H170259   5.336   1.860  12.147  0.8483 -0.0272  0.0982
16256TIP3    H270260   5.399   1.733  12.093 -1.1246 -0.8811 -0.2666
16257TIP3   OH270261   3.148   4.644   5.467  0.3644 -0.4522  0.2662
16257TIP3    H170262   3.136   4.680   5.379  1.2561 -0.8394 -0.0217
16257TIP3    H270263   3.061   4.647   5.507  0.2405  1.1754 -0.0704
16258TIP3   OH270264   5.792   2.770  11.871  0.1330  0.2820  0.5726
16258TIP3    H170265   5.767   2.808  11.787  0.1216 -1.2365 -0.1520
16258TIP3    H270266   5.835   2.841  11.919  2.4477  0.5569 -1.7149
16259TIP3   OH270267   3.896   2.026   3.198 -0.0184  0.5857  0.4326
16259TIP3    H170268   3.853   2.085   3.137  0.7525  0.4184 -0.2932
16259TIP3    H270269   3.898   2.074   3.281  1.5919  2.0640 -0.4024
16260TIP3   OH270270   4.066   1.613  13.066 -0.0146  0.1305 -0.2541
16260TIP3    H170271   3.975   1.629  13.094 -0.2205  0.5738 -1.1490
16260TIP3    H270272   4.114   1.602  13.148 -0.5959  1.4288  0.3007
16261TIP3   OH270273   1.847   6.560  14.113 -0.2943  0.2753 -1.1820
16261TIP3    H170274   1.774   6.578  14.173  0.5238  2.0243 -0.6508
16261TIP3    H270275   1.836   6.467  14.090 -1.1022 -0.2603  1.0418
16262TIP3   OH270276   6.634   4.186   2.250  0.0028 -1.0269 -0.1823
16262TIP3    H170277   6.704   4.249   2.234 -0.0905 -1.1707 -1.2667
16262TIP3    H270278   6.611   4.199   2.342 -0.1128  0.6330 -0.4014
16263TIP3   OH270279   1.564   5.162  16.202  0.5352 -0.3516 -0.3141
16263TIP3    H170280   1.611   5.151  16.285 -0.0474  0.8735  0.2008
16263TIP3    H270281   1.601   5.095  16.144  2.2336 -0.0300  0.3630
16264TIP3   OH270282   3.013   6.434   5.497 -0.1391  0.0800 -0.3169
16264TIP3    H170283   3.048   6.523   5.486  1.1670 -0.3209  0.3575
16264TIP3    H270284   2.919   6.444   5.485 -0.2762  1.8945  1.5900
16265TIP3   OH270285   5.927   4.415  10.999 -0.2805 -0.2225  0.1636
16265TIP3    H170286   5.895   4.446  10.915 -0.8946 -0.9381  0.1206
16265TIP3    H270287   5.955   4.324  10.983  0.9991  0.1032  0.3927
16266TIP3   OH270288   3.207   1.258   5.272  0.6328 -0.6278 -0.0432
16266TIP3    H170289   3.244   1.313   5.203 -0.8678  0.9816  0.3655
16266TIP3    H270290   3.282   1.214   5.311  1.4714 -2.4638 -3.3385
16267TIP3   OH270291   3.645   0.893  15.130 -0.6296  0.0160  0.1397
16267TIP3    H170292   3.642   0.797  15.137 -0.2155 -0.0573 -0.5519
16267TIP3    H270293   3.739   0.914  15.133 -0.7079  0.3789  0.0572
16268TIP3   OH270294   3.395   3.506   1.859 -0.0113  0.5078 -0.7558
16268TIP3    H170295   3.461   3.467   1.802 -0.7290 -3.3179  0.7234
16268TIP3    H270296   3.343   3.432   1.890 -1.0108  2.5770  3.1630
16269TIP3   OH270297   0.477   3.413  13.871  0.3772  0.3305  0.3476
16269TIP3    H170298   0.448   3.331  13.911  2.0100 -0.7709 -0.6071
16269TIP3    H270299   0.566   3.425  13.903  0.4662  1.2788 -0.2119
16270TIP3   OH270300   1.312   4.747   3.377 -0.3434 -0.5374  0.0851
16270TIP3    H170301   1.264   4.681   3.428 -0.3206  0.1037  0.9617
16270TIP3    H270302   1.403   4.739   3.408  0.2050 -1.8246 -1.6405
16271TIP3   OH270303   1.731   1.776  12.463  0.2860  0.0983  0.2956
16271TIP3    H170304   1.652   1.732  12.495  0.9974 -2.3432 -1.0513
16271TIP3    H270305   1.795   1.764  12.533 -0.3013  1.4595  1.0901
16272TIP3   OH270306   6.440   0.796   6.099 -0.6581  0.3052  0.3418
16272TIP3    H170307   6.368   0.745   6.061 -0.1482  0.9001 -1.5833
16272TIP3    H270308   6.502   0.730   6.130 -0.7927 -0.2603 -0.5320
16273TIP3   OH270309   5.237   5.281   2.879  0.6980 -0.1965 -0.1662
16273TIP3    H170310   5.320   5.235   2.868  1.5177  1.0569  0.4678
16273TIP3    H270311   5.172   5.212   2.891  1.7024 -1.1902 -0.2874
16274TIP3   OH270312   3.642   1.553  16.769  0.3355  0.1939 -0.3743
16274TIP3    H170313   3.641   1.581  16.678  2.2391  0.6899 -0.2952
16274TIP3    H270314   3.734   1.563  16.796 -0.4421  1.7553  2.0996
16275TIP3   OH270315   0.493   6.195  13.695 -0.2192  0.4827 -0.0877
16275TIP3    H170316   0.522   6.271  13.745  0.1636 -0.4165  1.0887
16275TIP3    H270317   0.540   6.202  13.611 -2.0779  2.8576 -1.0382
16276TIP3   OH270318   6.509   0.194  16.373 -0.0493  0.1642 -0.1881
16276TIP3    H170319   6.502   0.099  16.359  0.7305  0.1239 -0.3771
16276TIP3    H270320   6.444   0.232  16.314 -0.8516 -0.2814  0.3947
16277TIP3   OH270321   4.410   2.104  16.912  0.1030 -0.3567 -0.0368
16277TIP3    H170322   4.462   2.079  16.989  0.6694 -1.2548 -0.6928
16277TIP3    H270323   4.326   2.133  16.948  0.5898 -0.1504  0.9558
16278TIP3   OH270324   4.769   2.213   4.944 -0.1206 -0.5612 -0.1344
16278TIP3    H170325   4.684   2.220   4.901 -1.0041  1.6372  1.7847
16278TIP3    H270326   4.827   2.267   4.891 -0.6269  0.2277  0.1013
16279TIP3   OH270327   5.765   2.755   3.010  0.3754 -0.5604 -0.4397
16279TIP3    H170328   5.778   2.744   3.105 -1.3311  2.8806  0.3188
16279TIP3    H270329   5.690   2.699   2.990  1.0265 -1.6744  0.0644
16280TIP3   OH270330   3.828   3.391  15.084 -0.4029  0.1176  0.2833
16280TIP3    H170331   3.797   3.407  14.995  0.8132 -0.2123 -0.2250
16280TIP3    H270332   3.758   3.341  15.126 -1.3102  0.9142 -0.2471
16281TIP3   OH270333   1.326   4.509  14.564  0.3150 -0.5052  0.1030
16281TIP3    H170334   1.280   4.593  14.561 -0.0843 -0.7390 -1.1915
16281TIP3    H270335   1.292   4.466  14.643  0.1799  0.3469  0.5214
16282TIP3   OH270336   4.977   5.834  15.455  0.4536  0.1752  0.4724
16282TIP3    H170337   5.065   5.863  15.479 -0.0802  1.0690  1.4163
16282TIP3    H270338   4.946   5.785  15.531  0.3264 -0.6056 -0.0680
16283TIP3   OH270339   1.506   1.127   0.138 -0.2046  0.0030  0.5674
16283TIP3    H170340   1.516   1.146   0.232  1.1185 -0.1871  0.4874
16283TIP3    H270341   1.438   1.187   0.108 -0.6437  0.0670  1.6475
16284TIP3   OH270342   4.722   3.767   5.311  0.3032 -0.2175 -0.4054
16284TIP3    H170343   4.694   3.686   5.268  0.8084 -1.0925  0.8639
16284TIP3    H270344   4.811   3.782   5.277  0.8754 -1.1514  0.6325
16285TIP3   OH270345   3.646   1.431   2.863 -0.0178 -0.1770  0.2443
16285TIP3    H170346   3.616   1.503   2.808  0.3413  0.1141  0.4200
16285TIP3    H270347   3.576   1.420   2.928  0.4138  0.7537  0.8878
16286TIP3   OH270348   0.974   4.513  16.914 -0.5723  0.6324  0.1954
16286TIP3    H170349   1.034   4.443  16.889 -0.1153  0.5930  1.3392
16286TIP3    H270350   0.938   4.486  16.998 -2.3606  0.5821 -0.5610
16287TIP3   OH270351   2.085   4.123   5.185 -0.3651  0.1974 -0.3439
16287TIP3    H170352   1.990   4.120   5.173 -0.7145  0.7431  1.8604
16287TIP3    H270353   2.116   4.182   5.116 -1.4133 -1.0168 -1.9473
16288TIP3   OH270354   2.551   2.459   5.366 -0.4127  0.0894 -0.3027
16288TIP3    H170355   2.515   2.372   5.350  0.7900 -0.4062 -0.4520
16288TIP3    H270356   2.475   2.517   5.369 -1.4309 -1.2201  1.6095
16289TIP3   OH270357   5.727   5.233  17.176  0.6242 -0.8305 -0.0572
16289TIP3    H170358   5.661   5.209  17.241  0.4477  1.3212  0.6364
16289TIP3    H270359   5.805   5.183  17.201 -0.3123 -2.3972 -0.1079
16290TIP3   OH270360   4.029   2.976   5.022 -0.6027 -0.0025  0.1157
16290TIP3    H170361   4.058   2.962   5.112  1.0066  0.7938 -0.2385
16290TIP3    H270362   4.033   2.890   4.982 -0.6249 -0.2361  0.6103
16291TIP3   OH270363   4.888   2.531   4.101  0.6637 -0.1815 -0.4845
16291TIP3    H170364   4.879   2.555   4.194  0.9930  1.8904 -0.9390
16291TIP3    H270365   4.935   2.448   4.103 -2.1231 -1.8665  1.2928
16292TIP3   OH270366   0.153   3.690  11.067  0.2821 -0.7158 -0.4439
16292TIP3    H170367   0.157   3.594  11.068  1.1815 -0.6910 -0.8597
16292TIP3    H270368   0.233   3.718  11.111  1.4580 -0.1740 -2.7515
16293TIP3   OH270369   6.232   3.296   0.619  0.0414  0.1724 -0.2753
16293TIP3    H170370   6.252   3.204   0.636  0.2858  0.2859  0.0760
16293TIP3    H270371   6.263   3.310   0.529  1.0221  0.1850  0.0475
16294TIP3   OH270372   4.309   4.751  16.634 -0.6918  0.1273  0.7381
16294TIP3    H170373   4.304   4.801  16.552 -2.6601 -1.8114 -0.4595
16294TIP3    H270374   4.305   4.817  16.703  1.8131  1.8939 -0.6340
16295TIP3   OH270375   1.986   4.385  14.873 -0.0627 -0.1309  0.1120
16295TIP3    H170376   1.938   4.318  14.922  2.3180 -0.3061  2.4418
16295TIP3    H270377   1.964   4.467  14.918 -0.5229  0.2319 -0.7520
16296TIP3   OH270378   0.108   1.717  13.079  0.0900  0.2778  0.1796
16296TIP3    H170379   0.124   1.680  12.993  0.7773  2.7885 -0.8630
16296TIP3    H270380   0.185   1.693  13.131  0.4164  0.0790 -0.3895
16297TIP3   OH270381   5.867   2.149   1.929 -0.5376 -0.1033  0.2733
16297TIP3    H170382   5.906   2.111   1.851 -2.9469  0.0174 -1.0778
16297TIP3    H270383   5.864   2.243   1.911 -2.0563 -0.1829  0.0173
16298TIP3   OH270384   1.704   3.277  17.131  0.4932 -0.2968  0.0570
16298TIP3    H170385   1.701   3.181  17.125 -1.5402 -0.1966 -1.9394
16298TIP3    H270386   1.797   3.298  17.137  1.0108 -2.3781  0.0406
16299TIP3   OH270387   6.800   3.417   2.577  0.3312 -0.4058 -0.0850
16299TIP3    H170388   6.846   3.406   2.660  1.6948  0.0911 -0.7388
16299TIP3    H270389   6.834   3.499   2.541 -1.0352 -0.0567 -0.6536
16300TIP3   OH270390   5.190   3.375   1.916 -0.1320 -0.3711  0.3577
16300TIP3    H170391   5.163   3.292   1.876  0.1243 -0.3139  0.0602
16300TIP3    H270392   5.275   3.395   1.875  0.2549 -0.4346  1.1134
16301TIP3   OH270393   4.466   0.333  12.520 -0.2060 -0.2460 -0.0713
16301TIP3    H170394   4.459   0.253  12.469  1.1015 -1.5316  1.6125
16301TIP3    H270395   4.377   0.351  12.550 -1.0761  0.7586 -2.9581
16302TIP3   OH270396   1.163   4.469  15.288 -0.4560  0.0646  0.0215
16302TIP3    H170397   1.076   4.505  15.270 -1.6976 -1.2210  2.8172
16302TIP3    H270398   1.146   4.389  15.339  2.3519 -0.8315 -0.2611
16303TIP3   OH270399   1.241   3.374  13.163  0.0967  0.3777  0.3023
16303TIP3    H170400   1.206   3.461  13.183  1.6280  1.1456 -0.2383
16303TIP3    H270401   1.321   3.369  13.214 -0.7691 -1.3893  1.5921
16304TIP3   OH270402   0.224   4.832   0.698  0.3929  0.4652 -0.7732
16304TIP3    H170403   0.167   4.759   0.678  1.7294 -1.3222  1.4376
16304TIP3    H270404   0.165   4.901   0.731 -0.8152  0.1848 -2.2700
16305TIP3   OH270405   6.735   3.903   2.412 -0.7222  0.1342  0.1193
16305TIP3    H170406   6.733   3.909   2.316 -0.4351 -1.8060 -0.0551
16305TIP3    H270407   6.663   3.843   2.433  0.8097 -1.5475  0.8605
16306TIP3   OH270408   4.062   0.429  13.860  0.4200  0.0045 -0.3921
16306TIP3    H170409   4.141   0.446  13.810  1.0164  0.1984  0.6007
16306TIP3    H270410   4.089   0.433  13.951 -0.6064 -0.5369 -0.0403
16307TIP3   OH270411   1.381   6.565   1.048 -0.6870 -0.2979 -0.0931
16307TIP3    H170412   1.458   6.600   1.092 -1.1878  0.4621  0.2085
16307TIP3    H270413   1.331   6.643   1.023 -0.6343 -0.7258 -1.6119
16308TIP3   OH270414   4.420   4.452  12.336  0.2348 -0.4339  0.3917
16308TIP3    H170415   4.447   4.530  12.287  1.6592 -1.2577 -0.1862
16308TIP3    H270416   4.394   4.485  12.422  2.1733  0.5442  0.6480
16309TIP3   OH270417   4.460   5.667  14.342 -0.5857 -0.0808 -0.2301
16309TIP3    H170418   4.420   5.666  14.429 -1.2251 -0.6979 -0.5142
16309TIP3    H270419   4.484   5.758  14.326 -0.3593  0.0167  0.6337
16310TIP3   OH270420   4.386   5.796  15.994 -0.0074 -0.1720  0.0322
16310TIP3    H170421   4.473   5.832  16.013  0.1765 -0.0012 -1.0582
16310TIP3    H270422   4.374   5.812  15.901 -0.5580 -1.5857 -0.1636
16311TIP3   OH270423   6.306   5.681   3.023  0.3484 -0.2726  0.6814
16311TIP3    H170424   6.232   5.728   2.982  1.7305  0.6351 -0.8968
16311TIP3    H270425   6.333   5.617   2.957  0.3597 -1.2973  1.6531
16312TIP3   OH270426   4.674   3.033  10.325  0.3029 -0.3815 -0.4001
16312TIP3    H170427   4.725   2.953  10.338 -1.0256 -1.1881  0.1381
16312TIP3    H270428   4.592   3.017  10.373  0.4009  1.7218  0.5550
16313TIP3   OH270429   4.808   6.494  11.367  0.1510  0.0506  0.2441
16313TIP3    H170430   4.754   6.551  11.311  2.5840  1.0434 -1.2157
16313TIP3    H270431   4.836   6.423  11.310  1.9159  0.5844  0.3915
16314TIP3   OH270432   1.461   2.178  16.101  0.5871 -0.6036 -0.2928
16314TIP3    H170433   1.494   2.258  16.143 -0.1651 -0.3354 -0.2092
16314TIP3    H270434   1.485   2.108  16.161  4.1406 -0.9129 -1.8072
16315TIP3   OH270435   0.552   3.818  15.563  0.1605 -0.9293 -0.2610
16315TIP3    H170436   0.515   3.735  15.535 -1.7908 -0.1825 -0.0259
16315TIP3    H270437   0.532   3.879  15.491 -1.3141  0.0623  0.9371
16316TIP3   OH270438   5.641   3.717  16.677  0.1939 -0.4719  0.0020
16316TIP3    H170439   5.640   3.753  16.766 -1.4674 -0.8429  0.1659
16316TIP3    H270440   5.550   3.721  16.648  0.6791 -0.5105 -1.6385
16317TIP3   OH270441   6.579   1.493  10.957  0.2867  0.3460  0.0342
16317TIP3    H170442   6.563   1.588  10.960  0.5194  0.3829  2.6273
16317TIP3    H270443   6.663   1.484  10.913  0.4973  1.3949  0.1926
16318TIP3   OH270444   5.707   5.188   1.740  0.2529  0.1369  0.2718
16318TIP3    H170445   5.668   5.131   1.675  0.9400 -0.7060  0.5791
16318TIP3    H270446   5.772   5.133   1.785 -1.0817  0.3141  2.5484
16319TIP3   OH270447   3.136   3.097  16.138  0.6966 -0.4221 -0.1689
16319TIP3    H170448   3.059   3.052  16.103  1.1436  0.1810 -2.0514
16319TIP3    H270449   3.106   3.185  16.157  0.8569 -0.2558 -0.6770
16320TIP3   OH270450   3.613   3.532   3.180  0.8170 -0.6529 -0.1291
16320TIP3    H170451   3.590   3.614   3.136 -0.8506 -0.0059  1.8110
16320TIP3    H270452   3.622   3.555   3.272  0.6675 -2.5734  0.4261
16321TIP3   OH270453   2.533   1.874  12.613  0.2406 -0.1419 -0.2628
16321TIP3    H170454   2.607   1.825  12.578  0.5377  0.6079 -0.6925
16321TIP3    H270455   2.460   1.850  12.557 -0.0931 -1.6426  0.7530
16322TIP3   OH270456   3.447   1.260  14.937  0.3892  0.0029 -0.1116
16322TIP3    H170457   3.524   1.276  14.882  0.2604  1.6143  0.1205
16322TIP3    H270458   3.444   1.335  14.996 -0.4858 -0.8206  0.9278
16323TIP3   OH270459   3.405   4.141  12.805  0.0175  0.1159 -0.0136
16323TIP3    H170460   3.378   4.151  12.896  2.0950 -0.2033  0.7067
16323TIP3    H270461   3.352   4.069  12.772 -2.0274  1.3615  0.3535
16324TIP3   OH270462   1.063   0.170  14.617  0.2489 -0.3364  0.2469
16324TIP3    H170463   1.109   0.253  14.624 -1.6431  0.6503  1.6356
16324TIP3    H270464   1.116   0.109  14.669  1.0545  0.2276  0.1146
16325TIP3   OH270465   1.043   2.998  16.520 -0.3540  0.1913 -0.4499
16325TIP3    H170466   0.955   3.028  16.542  0.2405  0.7500  1.4200
16325TIP3    H270467   1.094   3.079  16.511  0.1013 -0.1405 -0.8665
16326TIP3   OH270468   2.716   0.497   5.507 -0.0364  0.1960 -0.1161
16326TIP3    H170469   2.676   0.421   5.550 -0.2201  0.9918  1.1731
16326TIP3    H270470   2.717   0.564   5.575  2.5161  0.5503 -0.4381
16327TIP3   OH270471   5.439   4.178  12.805 -0.6806 -0.1249  0.4703
16327TIP3    H170472   5.439   4.111  12.737  2.8983  0.8475 -0.7185
16327TIP3    H270473   5.458   4.259  12.758 -0.8037  1.0267  2.3283
16328TIP3   OH270474   3.568   0.547  11.291  0.0820  0.3317  0.5821
16328TIP3    H170475   3.533   0.463  11.322  0.3432  0.3327  0.8895
16328TIP3    H270476   3.655   0.552  11.331  1.6164 -0.9254 -2.2696
16329TIP3   OH270477   4.236   3.361  14.931  0.3075 -0.2840 -0.3523
16329TIP3    H170478   4.172   3.317  14.987  0.6137  2.0592  2.0817
16329TIP3    H270479   4.183   3.413  14.871 -0.0274 -2.1096 -1.6961
16330TIP3   OH270480   6.764   3.630  12.642  0.1429 -0.6385  0.2354
16330TIP3    H170481   6.737   3.574  12.714  0.4309 -0.2911  0.6222
16330TIP3    H270482   6.841   3.587  12.605  1.2725  0.2132  1.4645
16331TIP3   OH270483   4.889   5.345  13.896 -0.3980  0.1455 -0.4842
16331TIP3    H170484   4.826   5.274  13.883 -0.8079  0.4892 -0.3836
16331TIP3    H270485   4.930   5.325  13.980 -1.7111  0.9173  0.3815
16332TIP3   OH270486   5.206   4.353   2.818 -0.0247  0.3889  0.4762
16332TIP3    H170487   5.227   4.434   2.772  0.2096 -0.5965 -1.2486
16332TIP3    H270488   5.275   4.345   2.884  1.1455  0.5879 -0.6831
16333TIP3   OH270489   0.926   2.056   1.956  0.0394  0.1991  0.3007
16333TIP3    H170490   0.959   2.009   2.032 -1.2679 -0.3103  0.5675
16333TIP3    H270491   0.858   2.000   1.919 -0.1313  0.9503 -0.5813
16334TIP3   OH270492   4.232   6.163   1.288  0.2729  0.0797 -0.0750
16334TIP3    H170493   4.193   6.201   1.210 -0.9465 -0.2306  0.3609
16334TIP3    H270494   4.269   6.079   1.258  0.5705  0.3517 -0.4792
16335TIP3   OH270495   3.343   0.949   3.899  0.6482 -0.1491 -0.4465
16335TIP3    H170496   3.299   0.868   3.871  1.1552 -0.1109 -1.4067
16335TIP3    H270497   3.277   0.995   3.950  0.1430 -0.8858 -0.4141
16336TIP3   OH270498   2.145   5.614  16.261 -0.2403 -0.0340  0.0310
16336TIP3    H170499   2.051   5.596  16.259 -0.0141 -1.4151  0.6920
16336TIP3    H270500   2.164   5.629  16.353  0.0465  1.2331 -0.2085
16337TIP3   OH270501   0.905   6.783   6.062  0.0937  0.2456 -0.7262
16337TIP3    H170502   0.843   6.829   6.006 -1.1021  1.8349  1.7169
16337TIP3    H270503   0.968   6.850   6.089 -0.7020  0.1867  1.5619
16338TIP3   OH270504   1.512   4.411  11.610  0.1106  0.2353  0.1292
16338TIP3    H170505   1.477   4.321  11.615  0.0139  0.2969  0.6859
16338TIP3    H270506   1.460   4.459  11.675  0.7650  0.4868  0.4670
16339TIP3   OH270507   4.622   5.679  13.822 -0.1844 -0.1967 -0.8235
16339TIP3    H170508   4.571   5.717  13.894  0.4440 -0.8909 -0.0013
16339TIP3    H270509   4.565   5.612  13.785  0.1559 -1.0948  0.2090
16340TIP3   OH270510   6.444   4.940   0.014  0.0131 -0.3927 -0.3328
16340TIP3    H170511   6.520   4.954   0.070 -0.1518 -0.3444 -0.1174
16340TIP3    H270512   6.440   4.845   0.003  0.3104 -0.3725 -0.6386
16341TIP3   OH270513   6.202   2.219  15.837 -0.0563  0.2913  0.0381
16341TIP3    H170514   6.196   2.195  15.744 -0.6987 -4.3351  1.0386
16341TIP3    H270515   6.290   2.190  15.862 -0.3208  0.3967  1.0986
16342TIP3   OH270516   0.497   1.246   5.868  0.4878  0.5821 -0.1118
16342TIP3    H170517   0.461   1.180   5.808  1.2792  1.8125 -2.0054
16342TIP3    H270518   0.522   1.196   5.946 -2.0729 -0.8301 -0.0733
16343TIP3   OH270519   5.028   0.743   5.890 -0.1750  0.4590 -0.0752
16343TIP3    H170520   5.118   0.769   5.870  0.2929 -1.8878 -1.4795
16343TIP3    H270521   4.980   0.758   5.809 -0.1398 -1.6413 -0.5630
16344TIP3   OH270522   1.205   2.272   5.829  0.1297  0.1554  0.4002
16344TIP3    H170523   1.256   2.197   5.798  2.0305  0.5662  2.2608
16344TIP3    H270524   1.176   2.246   5.917 -1.6404  0.5358 -0.0383
16345TIP3   OH270525   5.525   2.650   3.669  0.4350  0.4909  0.0463
16345TIP3    H170526   5.561   2.585   3.609 -0.9138  0.6840 -0.9966
16345TIP3    H270527   5.579   2.727   3.656  1.8683 -0.2900  1.0855
16346TIP3   OH270528   5.293   1.896   3.544 -0.2461 -0.6701 -0.3040
16346TIP3    H170529   5.369   1.932   3.590  1.0424 -3.0036 -0.4130
16346TIP3    H270530   5.281   1.954   3.469 -2.3410  3.1777  2.6572
16347TIP3   OH270531   3.585   1.703  10.991 -0.1297  0.7151  0.2090
16347TIP3    H170532   3.632   1.625  10.964  1.1770  0.2831  3.2854
16347TIP3    H270533   3.584   1.759  10.914  1.3590 -1.1895 -1.2880
16348TIP3   OH270534   2.817   2.510  12.068  0.4272 -0.0257 -0.6863
16348TIP3    H170535   2.832   2.604  12.060 -0.4642 -0.0146 -3.1246
16348TIP3    H270536   2.723   2.500  12.060  0.5289 -1.1408 -0.6724
16349TIP3   OH270537   3.078   5.039  15.106 -0.4569  0.0851  0.5008
16349TIP3    H170538   3.095   5.013  15.015  2.0170 -1.2186  1.2372
16349TIP3    H270539   3.060   5.132  15.101  0.6801  0.2674 -1.2479
16350TIP3   OH270540   6.037   6.148   6.279  0.7894 -0.5638 -0.6178
16350TIP3    H170541   6.061   6.236   6.252  2.2698 -0.5726  0.4814
16350TIP3    H270542   6.083   6.090   6.218  1.1061 -0.5668 -0.3813
16351TIP3   OH270543   3.881   3.619   3.322 -0.3153 -0.2465  0.4277
16351TIP3    H170544   3.933   3.598   3.400  2.4242 -0.2525 -1.2851
16351TIP3    H270545   3.941   3.606   3.249 -2.7169 -0.0117 -1.7135
16352TIP3   OH270546   1.120   3.296   4.363  0.0150  0.2885 -0.3593
16352TIP3    H170547   1.059   3.370   4.369 -1.3646 -0.7627 -0.9419
16352TIP3    H270548   1.127   3.263   4.452 -0.5119  0.2344 -0.3363
16353TIP3   OH270549   6.141   2.141  13.133  0.2819 -0.5358 -0.5970
16353TIP3    H170550   6.188   2.175  13.057 -2.1236 -0.0798 -1.9615
16353TIP3    H270551   6.100   2.218  13.173  0.4421 -0.9494  0.3995
16354TIP3   OH270552   3.056   6.751  14.652  0.3532  0.0941  0.3832
16354TIP3    H170553   3.008   6.729  14.732 -1.2106  0.4577 -0.4307
16354TIP3    H270554   3.141   6.709  14.664 -0.2475 -0.8192  1.7480
16355TIP3   OH270555   0.756   2.571   2.099  0.1036  0.1778  0.0448
16355TIP3    H170556   0.830   2.511   2.094 -0.5551 -0.6755  0.3236
16355TIP3    H270557   0.687   2.528   2.049 -1.3544 -0.7546  2.6995
16356TIP3   OH270558   0.074   5.938   4.731 -0.2634 -0.0440 -0.3073
16356TIP3    H170559   0.042   5.985   4.807  1.1921  1.4358 -0.5489
16356TIP3    H270560   0.005   5.875   4.710 -0.7703 -0.3694  2.0934
16357TIP3   OH270561   0.664   4.616   5.722 -0.2713 -0.0550  0.2629
16357TIP3    H170562   0.595   4.589   5.784  2.8161 -2.0573  3.1469
16357TIP3    H270563   0.686   4.705   5.749 -1.1037  0.3081 -0.1839
16358TIP3   OH270564   6.516   1.926   2.117 -0.2934  0.1230 -0.5825
16358TIP3    H170565   6.548   1.942   2.029 -0.7821 -0.5356 -0.8886
16358TIP3    H270566   6.420   1.926   2.108 -0.3365 -0.9423 -0.2478
16359TIP3   OH270567   2.716   3.796   4.020  0.4826 -0.6588 -0.2086
16359TIP3    H170568   2.703   3.704   4.045 -2.3789 -0.0155  1.0984
16359TIP3    H270569   2.702   3.845   4.101  1.5782  0.9814 -0.9616
16360TIP3   OH270570   6.472   2.031   1.372  0.4568  0.2211  1.1680
16360TIP3    H170571   6.559   2.003   1.400  0.5944 -0.2790  0.2617
16360TIP3    H270572   6.428   1.952   1.343 -0.2205  0.5101  1.3611
16361TIP3   OH270573   4.701   4.045   2.456  0.3203  0.0920 -0.1194
16361TIP3    H170574   4.652   4.118   2.493  0.6771 -0.4682  1.5464
16361TIP3    H270575   4.791   4.078   2.447  0.5168 -0.1717  0.7871
16362TIP3   OH270576   4.828   3.323   4.502  0.3581 -0.1827 -0.3246
16362TIP3    H170577   4.851   3.242   4.548  1.2455  0.2436  0.0202
16362TIP3    H270578   4.737   3.339   4.523 -0.0986 -1.5721 -1.1343
16363TIP3   OH270579   5.863   0.495  15.906  0.0570 -0.0561 -0.1777
16363TIP3    H170580   5.809   0.469  15.981 -0.4760 -0.3477 -0.6529
16363TIP3    H270581   5.808   0.558  15.859  0.2779 -0.0880 -0.4779
16364TIP3   OH270582   0.657   0.849   3.965 -0.5475 -0.4310 -0.2538
16364TIP3    H170583   0.604   0.809   4.033  0.2565 -0.2559  0.4959
16364TIP3    H270584   0.712   0.778   3.932  0.2885 -0.1550  0.4993
16365TIP3   OH270585   2.802   3.176   4.720 -0.5544 -0.5810  0.3350
16365TIP3    H170586   2.741   3.247   4.742 -0.1894  0.3324 -1.4209
16365TIP3    H270587   2.884   3.201   4.763 -0.3265  0.2937 -0.5522
16366TIP3   OH270588   0.642   4.319  13.537  0.5132  0.1815 -0.3628
16366TIP3    H170589   0.658   4.242  13.481  1.3490  1.6593 -2.2511
16366TIP3    H270590   0.717   4.322  13.596 -0.6396 -1.7097  1.3575
16367TIP3   OH270591   2.530   6.433   1.591 -0.5914  0.0498  0.1136
16367TIP3    H170592   2.518   6.482   1.510 -1.2352 -0.0649  0.1363
16367TIP3    H270593   2.569   6.350   1.563  1.8495  1.0801  0.2108
16368TIP3   OH270594   6.133   3.916   6.142 -0.6563 -0.1331  0.1458
16368TIP3    H170595   6.038   3.920   6.154 -0.8206  0.8017 -1.2337
16368TIP3    H270596   6.166   3.879   6.224 -2.2297 -0.8002  0.5217
16369TIP3   OH270597   3.795   6.124  11.151  0.4624 -0.2282  0.2250
16369TIP3    H170598   3.859   6.195  11.143  0.5358 -0.1300  1.4262
16369TIP3    H270599   3.754   6.119  11.065 -0.4191  2.1142  0.4151
16370TIP3   OH270600   3.310   1.625  13.960  0.0196 -0.0615 -0.1986
16370TIP3    H170601   3.399   1.628  13.927  0.7306  0.6124  1.6725
16370TIP3    H270602   3.306   1.545  14.013 -0.4268 -0.0009 -0.1356
16371TIP3   OH270603   5.498   1.479   0.266 -0.0799 -0.0088  0.5105
16371TIP3    H170604   5.577   1.513   0.309  0.0469 -0.2425  0.4630
16371TIP3    H270605   5.441   1.556   0.258  0.9553  0.6402 -1.3183
16372TIP3   OH270606   4.294   1.665  16.777 -0.6921 -0.3381 -0.0914
16372TIP3    H170607   4.307   1.572  16.793  1.6045  0.1544  1.5401
16372TIP3    H270608   4.248   1.696  16.855  1.9602  0.4416  1.3036
16373TIP3   OH270609   4.977   2.024  12.334 -0.1277  0.4580 -0.3389
16373TIP3    H170610   4.963   1.959  12.403 -0.4227 -0.4569 -1.2438
16373TIP3    H270611   4.973   1.974  12.253  1.7480  1.2549 -0.9757
16374TIP3   OH270612   5.579   2.906   3.580  0.0400 -0.5497 -0.6520
16374TIP3    H170613   5.493   2.896   3.540 -0.5918  0.5918  0.3507
16374TIP3    H270614   5.580   2.996   3.613  1.3786 -0.7440 -0.0802
16375TIP3   OH270615   2.526   5.950  14.343 -0.2072 -0.2027  0.1071
16375TIP3    H170616   2.579   5.937  14.421  0.1813 -0.5081 -0.2050
16375TIP3    H270617   2.545   6.039  14.315 -0.0736 -0.2179  0.1526
16376TIP3   OH270618   6.338   5.162   5.058  0.3907  0.5821  0.6410
16376TIP3    H170619   6.282   5.123   5.125  1.1444  0.9884  1.5221
16376TIP3    H270620   6.415   5.106   5.055  0.1732  0.3216 -0.1966
16377TIP3   OH270621   5.060   0.574  17.116  0.7632 -0.6395 -0.4768
16377TIP3    H170622   4.997   0.551  17.184  0.3874 -0.0845 -0.6279
16377TIP3    H270623   5.145   0.545  17.150  0.7633  0.7546  0.8018
16378TIP3   OH270624   0.708   2.543  11.360  0.4670  0.9431  0.8033
16378TIP3    H170625   0.793   2.537  11.316  0.2797 -0.5744  0.5642
16378TIP3    H270626   0.689   2.452  11.385 -0.9588  1.3024  1.0801
16379TIP3   OH270627   4.445   4.488  12.808  0.0375  0.0748  0.0725
16379TIP3    H170628   4.473   4.553  12.872  2.3354  1.1963 -1.8700
16379TIP3    H270629   4.487   4.407  12.836 -0.1263  0.2171  0.7324
16380TIP3   OH270630   0.814   0.575  16.173 -0.4918  0.4895 -0.2231
16380TIP3    H170631   0.882   0.590  16.239  0.0394 -1.2399 -0.3218
16380TIP3    H270632   0.863   0.558  16.092 -1.1078  1.3215 -0.7785
16381TIP3   OH270633   5.308   1.905  13.801 -0.4965 -0.3114 -0.6081
16381TIP3    H170634   5.339   1.939  13.885 -0.9254  2.6894 -1.5551
16381TIP3    H270635   5.340   1.968  13.736  0.0204 -2.6571 -2.7762
16382TIP3   OH270636   1.322   2.067   3.663 -0.1311 -0.1000 -0.7169
16382TIP3    H170637   1.251   2.125   3.636  0.3568  0.4550 -0.8322
16382TIP3    H270638   1.402   2.112   3.635  0.5159  1.1140  2.6705
16383TIP3   OH270639   2.932   3.243  14.647 -0.5571  0.5950 -0.9729
16383TIP3    H170640   2.942   3.237  14.742  0.4909  1.0715 -1.0433
16383TIP3    H270641   2.838   3.230  14.633 -0.5897 -0.4242  0.0389
16384TIP3   OH270642   2.163   3.896  13.830 -0.1557 -0.1597 -0.3655
16384TIP3    H170643   2.172   3.801  13.842 -1.3457 -0.1071  1.3203
16384TIP3    H270644   2.084   3.906  13.778  1.9785 -0.1594 -3.8752
16385TIP3   OH270645   1.327   4.613   1.465  0.0777  0.5539  0.2165
16385TIP3    H170646   1.396   4.571   1.413  1.0189  0.9602  1.1110
16385TIP3    H270647   1.363   4.698   1.489 -1.0424  1.0933  0.0732
16386TIP3   OH270648   2.792   6.402   0.615 -0.4540  0.1705  0.2580
16386TIP3    H170649   2.832   6.428   0.533 -1.0940 -0.1337 -0.1625
16386TIP3    H270650   2.709   6.450   0.618 -0.7762 -0.3788  0.3660
16387TIP3   OH270651   0.920   0.933   0.004 -0.4577  0.2527 -0.2301
16387TIP3    H170652   0.938   1.024  -0.021 -0.2359  0.5038  0.7951
16387TIP3    H270653   0.919   0.934   0.099 -0.9131 -0.7435 -0.2112
16388TIP3   OH270654   4.950   0.439   5.710  0.0547  0.2886 -0.2856
16388TIP3    H170655   4.965   0.533   5.705 -0.5552  0.4727  0.9661
16388TIP3    H270656   4.884   0.421   5.644  2.4311  0.1659 -2.8133
16389TIP3   OH270657   6.277   0.257   4.440  0.0205 -0.0242  0.4663
16389TIP3    H170658   6.362   0.248   4.397  0.9080 -0.4893  2.2325
16389TIP3    H270659   6.217   0.204   4.387  1.0716 -0.6158 -0.1572
16390TIP3   OH270660   2.023   3.700   2.062 -0.2659  0.0642  0.1171
16390TIP3    H170661   2.107   3.666   2.094 -0.3681 -0.2538  0.0520
16390TIP3    H270662   2.044   3.784   2.022 -0.2267  0.7866  1.6052
16391TIP3   OH270663   6.036   3.981  16.151  0.3939 -0.4264  0.1119
16391TIP3    H170664   6.117   3.974  16.101  1.2147 -0.7588  1.4487
16391TIP3    H270665   6.025   4.074  16.167  0.6824 -0.4074  0.1979
16392TIP3   OH270666   4.444   2.677   1.292 -0.1950  0.2340 -0.6321
16392TIP3    H170667   4.510   2.745   1.302 -1.1519  0.8942  2.0167
16392TIP3    H270668   4.361   2.724   1.281 -0.9809 -0.3610  1.9924
16393TIP3   OH270669   1.180   6.316   0.776  0.0641 -0.4999  0.4561
16393TIP3    H170670   1.092   6.354   0.765  0.1165 -1.0522 -2.9221
16393TIP3    H270671   1.173   6.265   0.856 -2.1819  0.7903  1.1992
16394TIP3   OH270672   0.591   3.787  10.325  0.5344  0.3295 -0.2784
16394TIP3    H170673   0.496   3.785  10.314  0.1045  0.7129  2.5033
16394TIP3    H270674   0.618   3.870  10.284  0.1055 -0.8492 -3.1779
16395TIP3   OH270675   3.925   3.603  11.656 -0.3283  0.1108 -0.2944
16395TIP3    H170676   3.865   3.581  11.728 -0.1125 -0.3097 -0.2395
16395TIP3    H270677   4.012   3.581  11.689 -0.1743  0.3949 -0.5025
16396TIP3   OH270678   6.189   6.361   0.215 -0.5379 -0.3613 -0.0098
16396TIP3    H170679   6.210   6.379   0.307  0.5670  0.6827 -0.4242
16396TIP3    H270680   6.164   6.269   0.213 -3.0798  0.2050  1.7269
16397TIP3   OH270681   6.574   5.324  11.245  0.5891 -0.1755  0.1515
16397TIP3    H170682   6.641   5.379  11.285  2.0189 -1.6101 -0.1491
16397TIP3    H270683   6.554   5.367  11.162  1.2730  0.1904  0.1691
16398TIP3   OH270684   2.725   1.087   4.662 -0.6428  0.0466 -0.0739
16398TIP3    H170685   2.735   0.992   4.653  1.4430  0.1718  0.3402
16398TIP3    H270686   2.757   1.105   4.750 -1.3653  1.0996 -0.0243
16399TIP3   OH270687   3.707   4.402   2.382  0.1012 -0.4421  0.0114
16399TIP3    H170688   3.728   4.464   2.451  0.5363 -0.7522  0.1562
16399TIP3    H270689   3.784   4.400   2.326 -0.0076 -0.6676 -0.1341
16400TIP3   OH270690   2.205   0.416  13.135  0.6594  0.1947 -0.4782
16400TIP3    H170691   2.254   0.362  13.073  1.2981  0.2914 -0.0745
16400TIP3    H270692   2.222   0.506  13.108 -0.8057  0.2065 -1.4496
16401TIP3   OH270693   3.275   0.551  13.715 -0.2553 -0.4016  0.1752
16401TIP3    H170694   3.315   0.477  13.760  1.0069  0.0185 -0.1998
16401TIP3    H270695   3.280   0.528  13.622  1.2865  0.6396 -0.0452
16402TIP3   OH270696   2.680   6.252   1.282 -0.0326  0.0421  0.6781
16402TIP3    H170697   2.626   6.177   1.304  0.9293 -0.2888  2.0542
16402TIP3    H270698   2.755   6.246   1.342  0.4794  1.6276  0.2439
16403TIP3   OH270699   5.238   0.763  13.455 -0.3814 -0.3018  0.2884
16403TIP3    H170700   5.271   0.711  13.382 -0.2666 -2.4594  1.7955
16403TIP3    H270701   5.172   0.821  13.415  1.7012  0.6870 -1.9581
16404TIP3   OH270702   4.477   5.599  14.931 -0.0203  0.5872  0.0165
16404TIP3    H170703   4.552   5.545  14.954 -0.9804 -0.7005  0.2053
16404TIP3    H270704   4.468   5.660  15.005  0.0554 -0.0976  0.5952
16405TIP3   OH270705   2.204   6.524   1.629  0.4835  0.0629  0.0361
16405TIP3    H170706   2.251   6.550   1.549 -1.2221  0.9848 -0.7090
16405TIP3    H270707   2.117   6.561   1.619  0.0421 -0.2957  2.0927
16406TIP3   OH270708   4.507   5.827   5.509  0.5011  0.6912 -0.2488
16406TIP3    H170709   4.433   5.808   5.452  0.2557 -2.3426  0.9065
16406TIP3    H270710   4.577   5.770   5.477  0.8786  0.1677  1.4165
16407TIP3   OH270711   5.519   3.230  14.246 -0.4552  0.1018  0.3286
16407TIP3    H170712   5.543   3.265  14.160  0.7818  0.5491  0.8197
16407TIP3    H270713   5.527   3.305  14.305 -1.8498 -0.0708  0.7499
16408TIP3   OH270714   5.234   6.723  16.294 -0.8751  0.0539  0.2811
16408TIP3    H170715   5.311   6.696  16.243  0.3672  1.3824  1.3711
16408TIP3    H270716   5.223   6.816  16.274 -1.0903  0.3092  1.4886
16409TIP3   OH270717   1.533   1.074  12.620  0.5187 -0.0389  0.2183
16409TIP3    H170718   1.513   0.987  12.655  1.0611 -0.1374  0.2856
16409TIP3    H270719   1.575   1.119  12.693  5.0695 -1.4355 -1.2387
16410TIP3   OH270720   4.280   1.845  12.007 -0.3472 -0.0590  0.0606
16410TIP3    H170721   4.354   1.791  12.036 -0.4995  0.2264  1.0185
16410TIP3    H270722   4.297   1.931  12.046 -1.5409 -0.1803  0.8684
16411TIP3   OH270723   2.616   6.698  13.869 -0.0478 -0.5455  0.4721
16411TIP3    H170724   2.581   6.662  13.951  0.8490 -1.0796  0.6316
16411TIP3    H270725   2.555   6.667  13.802 -0.6624 -0.2938  0.9071
16412TIP3   OH270726   0.572   0.859   0.440  0.5630  0.2389 -0.0643
16412TIP3    H170727   0.528   0.926   0.492  0.4560 -1.1792  1.8089
16412TIP3    H270728   0.606   0.797   0.505  1.5223 -0.9920 -1.6564
16413TIP3   OH270729   6.455   4.771   4.820 -0.2136  0.1105 -0.2871
16413TIP3    H170730   6.396   4.825   4.872  1.4757  0.9148  0.8578
16413TIP3    H270731   6.465   4.820   4.738  0.3264  0.9344  0.2534
16414TIP3   OH270732   2.625   0.752  12.706 -0.3701 -0.2355 -0.2072
16414TIP3    H170733   2.640   0.843  12.680  0.3717 -0.2279  0.2232
16414TIP3    H270734   2.668   0.700  12.638 -0.1140 -0.2498 -0.0348
16415TIP3   OH270735   6.162   4.962   0.453 -0.3102  0.0153  0.2287
16415TIP3    H170736   6.190   4.880   0.495  0.0927  0.6262  1.1962
16415TIP3    H270737   6.243   5.012   0.443 -0.7159  0.8110  0.8313
16416TIP3   OH270738   4.580   1.196   1.188  0.4080 -0.3568 -0.6345
16416TIP3    H170739   4.493   1.157   1.192  0.4033 -0.3391 -0.5474
16416TIP3    H270740   4.582   1.256   1.263  0.0980  0.4589 -1.2679
16417TIP3   OH270741   4.828   5.911   4.249  0.0142  0.1440  0.1626
16417TIP3    H170742   4.735   5.912   4.226  0.4561  0.3996 -1.7517
16417TIP3    H270743   4.851   5.818   4.248 -0.5984 -0.1055  2.5291
16418TIP3   OH270744   6.040   5.429   1.513  0.4666 -0.5017  0.1124
16418TIP3    H170745   5.951   5.413   1.543 -0.0345  0.4189 -0.8078
16418TIP3    H270746   6.086   5.462   1.590 -0.8908  2.2112 -0.1181
16419TIP3   OH270747   2.372   4.891  15.530  0.1324  1.1583 -0.0336
16419TIP3    H170748   2.327   4.827  15.475  0.6635  1.4536 -0.8270
16419TIP3    H270749   2.458   4.851  15.548 -0.2399  0.8112  1.0686
16420TIP3   OH270750   1.393   6.310   1.131 -0.3613  0.2665 -0.6000
16420TIP3    H170751   1.375   6.399   1.099 -1.1811  0.3429  0.0368
16420TIP3    H270752   1.344   6.304   1.212 -1.5069 -1.2795 -1.3737
16421TIP3   OH270753   1.827   3.735   3.185  0.2507  0.1913  0.7279
16421TIP3    H170754   1.898   3.768   3.240  0.0538 -0.8435  1.6447
16421TIP3    H270755   1.854   3.646   3.162  0.1939  0.5071 -0.6381
16422TIP3   OH270756   3.761   1.722  16.524 -0.3644  0.0478 -0.0294
16422TIP3    H170757   3.720   1.665  16.459 -0.2617 -0.6042  0.4650
16422TIP3    H270758   3.841   1.753  16.482 -1.0059  0.8004 -0.7495
16423TIP3   OH270759   4.905   2.674  16.715 -0.1655 -0.7214 -0.1573
16423TIP3    H170760   4.985   2.716  16.748 -0.5653  0.4071 -0.5742
16423TIP3    H270761   4.915   2.582  16.739  2.7121 -1.2886 -2.8503
16424TIP3   OH270762   5.821   2.100   4.212  0.3378 -0.0728 -0.1323
16424TIP3    H170763   5.736   2.075   4.176  0.2533 -1.1629  0.7549
16424TIP3    H270764   5.881   2.032   4.182  0.4673 -0.4387  0.8850
16425TIP3   OH270765   2.080   5.020  15.148 -0.3408 -0.8229  0.3231
16425TIP3    H170766   2.116   5.107  15.166 -1.2426 -0.3038 -0.3440
16425TIP3    H270767   2.000   5.016  15.200 -2.8200  0.5717 -3.0391
16426TIP3   OH270768   2.403   3.365   1.524  0.3399 -0.1519  0.4756
16426TIP3    H170769   2.331   3.350   1.586  1.4611  0.0899  1.8889
16426TIP3    H270770   2.394   3.456   1.498 -2.0083 -1.0404 -2.2559
16427TIP3   OH270771   0.968   4.571  14.238  0.5626 -0.3115  0.5700
16427TIP3    H170772   0.983   4.478  14.257 -1.0395 -0.6735  0.2356
16427TIP3    H270773   1.036   4.593  14.173  1.2543 -1.1099  0.9948
16428TIP3   OH270774   1.615   6.074  16.672  0.4568  0.2759 -0.0463
16428TIP3    H170775   1.604   5.997  16.728  1.0493  1.1434  1.3200
16428TIP3    H270776   1.538   6.128  16.691  0.5989  0.5184 -0.1553
16429TIP3   OH270777   2.634   1.211  17.013 -0.1520  0.1200 -0.1926
16429TIP3    H170778   2.640   1.180  17.103 -0.0587  0.9522  0.1017
16429TIP3    H270779   2.569   1.282  17.016 -1.0343 -0.6287 -1.0149
16430TIP3   OH270780   5.588   6.531   1.489  0.0323  0.9505  0.9550
16430TIP3    H170781   5.531   6.473   1.539  2.5519  0.1473  3.1848
16430TIP3    H270782   5.674   6.488   1.492  0.8773  2.1779 -2.0253
16431TIP3   OH270783   0.877   3.402  12.571 -1.0474  0.4194  0.0638
16431TIP3    H170784   0.935   3.368  12.503 -1.5911  0.1731 -0.2814
16431TIP3    H270785   0.910   3.364  12.652 -1.7976 -1.1693 -0.3431
16432TIP3   OH270786   2.257   1.301   1.800  0.3964  0.0470 -0.5082
16432TIP3    H170787   2.313   1.342   1.866  0.9077  0.0187 -0.9163
16432TIP3    H270788   2.290   1.334   1.717 -0.0064 -0.2044 -0.7727
16433TIP3   OH270789   1.281   4.125   5.120  0.1072  0.7144  0.0542
16433TIP3    H170790   1.376   4.110   5.120  0.4271  2.2143 -2.1599
16433TIP3    H270791   1.272   4.219   5.105 -1.7197  0.3841 -1.1822
16434TIP3   OH270792   2.358   2.534   1.215  0.5273 -0.0758 -0.0850
16434TIP3    H170793   2.408   2.520   1.295 -0.6428 -0.8187  0.5439
16434TIP3    H270794   2.403   2.481   1.149  0.9600 -0.1946  0.3013
16435TIP3   OH270795   1.681   0.881   4.146  0.5581 -0.2917 -0.3280
16435TIP3    H170796   1.605   0.912   4.096  0.8147  1.1551  0.1256
16435TIP3    H270797   1.653   0.798   4.183 -0.5418 -0.1485 -0.7979
16436TIP3   OH270798   2.303   5.865  14.454 -0.1516  0.0583 -0.6175
16436TIP3    H170799   2.260   5.811  14.388  0.1213 -0.8131 -0.0988
16436TIP3    H270800   2.377   5.904  14.408 -0.0774 -0.3889 -0.8858
16437TIP3   OH270801   0.727   0.606   6.112 -0.4108 -0.1477  0.4529
16437TIP3    H170802   0.668   0.634   6.042  1.3913  0.2197 -0.9823
16437TIP3    H270803   0.720   0.510   6.112  0.2589 -0.2212 -0.9045
16438TIP3   OH270804   2.397   2.976   1.721  0.4687 -0.2302  0.1549
16438TIP3    H170805   2.415   3.051   1.778  2.3330  0.0030 -0.6750
16438TIP3    H270806   2.461   2.910   1.748  0.8826 -0.3845 -1.1412
16439TIP3   OH270807   4.168   4.468   0.273 -0.5579 -0.2251 -0.5609
16439TIP3    H170808   4.161   4.524   0.196 -0.5073 -0.6604 -0.8873
16439TIP3    H270809   4.081   4.470   0.313 -0.5531  0.0894 -0.5693
16440TIP3   OH270810   6.107   3.213  11.562  0.0896  0.0126 -0.0206
16440TIP3    H170811   6.092   3.291  11.509 -0.9733  0.1765  0.4984
16440TIP3    H270812   6.042   3.150  11.530 -1.1898  0.4197  1.6659
16441TIP3   OH270813   6.668   2.776   1.494 -0.0828 -0.2596  0.5142
16441TIP3    H170814   6.612   2.854   1.485  1.4296  1.0257  1.5827
16441TIP3    H270815   6.612   2.711   1.535 -1.0441  0.7299  0.8303
16442TIP3   OH270816   3.444   2.630   3.365  0.2107 -0.0449 -0.3195
16442TIP3    H170817   3.534   2.661   3.361 -0.6019  2.3865 -1.7733
16442TIP3    H270818   3.444   2.547   3.317  1.7190 -0.3027  0.0882
16443TIP3   OH270819   1.650   1.946   3.591  0.1900  0.4172  0.0801
16443TIP3    H170820   1.603   2.028   3.575  0.6833  0.4519 -1.3296
16443TIP3    H270821   1.663   1.908   3.504  3.1105  0.6062  0.3167
16444TIP3   OH270822   6.173   6.332  16.993  0.4982 -0.1623  0.1415
16444TIP3    H170823   6.079   6.348  16.994  0.3670 -0.6814 -1.6991
16444TIP3    H270824   6.181   6.237  16.980  1.2459  0.0902 -1.4669
16445TIP3   OH270825   1.493   6.785  11.484  0.1186 -0.0805 -0.0350
16445TIP3    H170826   1.415   6.752  11.438 -1.2185  0.5164  1.6981
16445TIP3    H270827   1.512   6.869  11.441  0.2096 -0.5073 -0.8626
16446TIP3   OH270828   4.471   4.648   4.500 -0.2899  0.9998  0.0193
16446TIP3    H170829   4.539   4.663   4.565 -1.0066 -0.1157  1.0768
16446TIP3    H270830   4.389   4.671   4.544 -1.0001 -1.7312  0.3128
16447TIP3   OH270831   0.029   1.623  14.822  0.4203  0.3548  0.2049
16447TIP3    H170832  -0.026   1.549  14.798  0.4926  0.4693 -0.3272
16447TIP3    H270833   0.109   1.612  14.771  1.2221 -0.2171  1.5340
16448TIP3   OH270834   3.545   5.772  10.680  0.3272  0.2428 -0.3248
16448TIP3    H170835   3.606   5.713  10.636  0.9354  0.3647  0.3446
16448TIP3    H270836   3.590   5.857  10.680 -0.7905  0.8860 -1.8317
16449TIP3   OH270837   3.839   2.826  13.604  0.5851  0.1404 -0.2421
16449TIP3    H170838   3.929   2.841  13.575 -0.2276  0.8576 -2.5481
16449TIP3    H270839   3.822   2.734  13.585  1.1546 -0.3256  1.2998
16450TIP3   OH270840   0.845   5.608   4.543  0.0016  0.6841  1.5753
16450TIP3    H170841   0.829   5.534   4.485 -0.9492 -1.4786  4.3758
16450TIP3    H270842   0.940   5.619   4.542  0.0484  0.3512  0.1064
16451TIP3   OH270843   5.507   0.111  15.066  0.1932  0.0612  0.2839
16451TIP3    H170844   5.590   0.089  15.022 -0.0649 -0.6126  0.1143
16451TIP3    H270845   5.534   0.157  15.145  0.7641 -0.7282  0.5632
16452TIP3   OH270846   5.786   6.271  16.511  0.2346 -0.1962 -0.6495
16452TIP3    H170847   5.740   6.355  16.516 -0.5840 -0.6622 -0.2978
16452TIP3    H270848   5.855   6.278  16.576  0.5189  0.4093 -1.0045
16453TIP3   OH270849   4.464   0.826   1.536 -0.6529  0.3560 -0.1034
16453TIP3    H170850   4.551   0.859   1.516  0.2358 -1.3143  0.8040
16453TIP3    H270851   4.445   0.763   1.467 -1.1683  0.7370 -0.3175
16454TIP3   OH270852   4.680   3.857  15.101  0.4089 -0.4413 -0.2612
16454TIP3    H170853   4.632   3.937  15.119  0.7994 -0.2248 -0.1717
16454TIP3    H270854   4.643   3.792  15.160 -2.1702 -1.2156 -2.4945
16455TIP3   OH270855   4.660   5.787  14.597  0.3621  0.0969  0.4405
16455TIP3    H170856   4.622   5.709  14.558 -0.1230  1.3747 -1.8313
16455TIP3    H270857   4.603   5.808  14.670 -0.7714 -0.4804 -0.2576
16456TIP3   OH270858   5.780   1.242   4.067 -0.3472  0.3546  0.1141
16456TIP3    H170859   5.824   1.318   4.105 -0.8234  0.1505  1.1291
16456TIP3    H270860   5.739   1.275   3.987  1.3844  0.6094 -0.7234
16457TIP3   OH270861   2.960   4.494   2.702  0.4683  0.0533  0.0322
16457TIP3    H170862   2.885   4.545   2.671 -1.2293 -0.4941  2.8749
16457TIP3    H270863   3.034   4.529   2.653 -1.6126  0.3268 -3.2983
16458TIP3   OH270864   4.133   3.003   0.479 -0.4292  0.6486  0.0508
16458TIP3    H170865   4.165   3.010   0.389  2.4174 -1.9544  0.7062
16458TIP3    H270866   4.122   2.909   0.494 -3.6219  1.1337  1.6291
16459TIP3   OH270867   3.378   4.140   1.378 -0.0301  0.2518 -0.1110
16459TIP3    H170868   3.404   4.231   1.363  0.2353  0.1942 -0.0139
16459TIP3    H270869   3.345   4.138   1.468 -0.6166  0.3774 -0.3216
16460TIP3   OH270870   0.052   4.580  12.727 -0.1167 -0.2315  0.4386
16460TIP3    H170871  -0.007   4.582  12.803 -0.4433  4.5081  0.3642
16460TIP3    H270872   0.120   4.644  12.748  0.8758 -0.1771 -2.5249
16461TIP3   OH270873   4.461   5.000  13.875 -0.1293 -0.0004 -0.1174
16461TIP3    H170874   4.429   4.925  13.825 -0.3991 -0.9969  1.4893
16461TIP3    H270875   4.433   4.983  13.965  3.2844 -0.0618  1.1010
16462TIP3   OH270876   5.060   2.839  11.357  0.0009 -0.1308 -0.4138
16462TIP3    H170877   5.140   2.842  11.304  0.0885 -0.7789 -0.3170
16462TIP3    H270878   5.072   2.763  11.414  0.3972  1.1514  1.3068
16463TIP3   OH270879   0.728   0.999   3.296 -0.1474 -0.1615 -0.1265
16463TIP3    H170880   0.712   0.969   3.206 -0.1694  0.9073 -0.4966
16463TIP3    H270881   0.674   0.941   3.350 -0.0120 -0.9236 -0.7826
16464TIP3   OH270882   6.234   1.390   0.462  0.4941  0.6371  0.3534
16464TIP3    H170883   6.179   1.314   0.445  0.6338  0.4135  0.8816
16464TIP3    H270884   6.216   1.450   0.388  1.4854 -0.5095 -0.8617
16465TIP3   OH270885   6.684   4.492   5.804 -0.4096  0.5091 -0.9693
16465TIP3    H170886   6.667   4.495   5.899  0.7328 -0.9967 -0.6784
16465TIP3    H270887   6.599   4.513   5.764 -1.3488 -0.5064  0.3972
16466TIP3   OH270888   1.298   2.992  11.929  0.4883 -0.2901 -0.2476
16466TIP3    H170889   1.287   3.014  12.021 -0.8159  1.3839 -0.7417
16466TIP3    H270890   1.392   2.976  11.918  0.9401  1.3535  0.9995
16467TIP3   OH270891   4.464   3.503  16.728 -0.4391 -0.2939  0.3303
16467TIP3    H170892   4.386   3.453  16.751 -0.3532 -0.8364 -0.5519
16467TIP3    H270893   4.443   3.544  16.645 -0.1154  0.3016  0.5346
16468TIP3   OH270894   4.717   3.117  17.092 -0.1371 -0.8401  0.0092
16468TIP3    H170895   4.778   3.184  17.123  0.0918 -1.0798  0.0801
16468TIP3    H270896   4.644   3.167  17.054  1.0096 -0.4965 -1.9270
16469TIP3   OH270897   1.692   4.332   3.049  0.0177  0.2223 -0.3526
16469TIP3    H170898   1.655   4.380   2.975  0.4078  0.2007 -0.5667
16469TIP3    H270899   1.639   4.253   3.057 -0.6793  0.7229  0.0509
16470TIP3   OH270900   2.956   1.528  13.972  0.0629 -0.2475 -0.1041
16470TIP3    H170901   2.956   1.553  13.880 -1.3167  1.3441  0.2824
16470TIP3    H270902   2.898   1.452  13.976 -0.7769  0.3571 -0.4135
16471TIP3   OH270903   3.634   3.158   5.100  0.1670  0.5994 -0.3874
16471TIP3    H170904   3.679   3.240   5.122 -1.3913  1.6908 -1.1300
16471TIP3    H270905   3.704   3.100   5.069  1.1989  1.9002 -0.5938
16472TIP3   OH270906   2.750   3.406  13.033  0.3494  0.2848 -0.5107
16472TIP3    H170907   2.751   3.441  13.122  0.6585 -2.5106  0.6997
16472TIP3    H270908   2.662   3.369  13.023  0.7355 -0.5672 -0.8485
16473TIP3   OH270909   6.513   0.390   3.250  0.2873 -0.0075 -0.0215
16473TIP3    H170910   6.514   0.380   3.346 -1.1037 -1.4633 -0.1201
16473TIP3    H270911   6.521   0.484   3.236  0.2225  0.2605  1.5361
16474TIP3   OH270912   1.877   2.461  14.958 -0.5831 -0.9265  0.1876
16474TIP3    H170913   1.922   2.416  14.886  1.3852  1.0525  0.0853
16474TIP3    H270914   1.912   2.420  15.037  2.6594  1.4356  0.1713
16475TIP3   OH270915   4.141   4.244   2.262 -0.0719 -0.2052  0.1246
16475TIP3    H170916   4.198   4.269   2.189  1.5127 -0.9740  1.0713
16475TIP3    H270917   4.192   4.181   2.313 -1.3471 -0.0924  1.6158
16476TIP3   OH270918   0.945   3.879   0.641  0.1430 -0.2062 -0.4543
16476TIP3    H170919   0.953   3.790   0.609  0.0233  0.5522 -2.7547
16476TIP3    H270920   0.954   3.871   0.736 -0.3021 -2.6938 -0.5535
16477TIP3   OH270921   0.564   0.452  14.187 -0.2088  0.4018  0.7096
16477TIP3    H170922   0.560   0.400  14.267 -1.3679 -0.9955 -0.2105
16477TIP3    H270923   0.645   0.503  14.196  0.7586 -1.2221  1.8538
16478TIP3   OH270924   6.792   5.378  13.208  0.1661 -0.4860 -0.2390
16478TIP3    H170925   6.762   5.388  13.299  2.2093 -1.6603  0.6325
16478TIP3    H270926   6.748   5.298  13.178 -0.1585 -0.3491 -0.1415
16479TIP3   OH270927   4.353   2.070   2.596 -0.0498  0.2773  0.1909
16479TIP3    H170928   4.386   2.160   2.594 -0.4762  0.4284  0.0375
16479TIP3    H270929   4.292   2.064   2.523 -1.6654  0.4970  1.4800
16480TIP3   OH270930   2.463   1.378   3.743  0.3628 -0.6902 -0.8207
16480TIP3    H170931   2.426   1.360   3.829 -0.0406 -0.2665 -0.9001
16480TIP3    H270932   2.473   1.291   3.703  0.2680 -0.8664 -0.4663
16481TIP3   OH270933   4.369   2.903  11.795  0.0051  0.1282  0.1186
16481TIP3    H170934   4.408   2.973  11.846 -0.1273  0.1574  0.1794
16481TIP3    H270935   4.315   2.948  11.730 -0.0753  0.0833  0.1540
16482TIP3   OH270936   0.031   2.696  17.099  0.2427 -0.3495 -0.2195
16482TIP3    H170937   0.099   2.652  17.049 -0.3507 -2.3519  0.6394
16482TIP3    H270938  -0.046   2.694  17.043  0.5397  0.8239 -0.7012
16483TIP3   OH270939   2.682   5.183   1.655  0.1346  0.1698 -0.2674
16483TIP3    H170940   2.770   5.191   1.690 -0.6095  0.0365  1.7860
16483TIP3    H270941   2.634   5.258   1.692 -1.0624 -0.7853  0.2015
16484TIP3   OH270942   5.456   0.760  10.591  0.6365  0.1757 -0.5889
16484TIP3    H170943   5.377   0.755  10.645  0.7443 -0.6189 -0.4861
16484TIP3    H270944   5.461   0.851  10.563  2.2908  1.4972  3.3035
16485TIP3   OH270945   3.886   5.962   4.041 -0.2752 -0.1173 -0.7721
16485TIP3    H170946   3.837   6.042   4.057  0.6354  0.2041  0.5202
16485TIP3    H270947   3.951   5.986   3.976  0.0446  0.2306 -0.3330
16486TIP3   OH270948   4.458   6.837  16.649  0.3896 -0.4312  0.7582
16486TIP3    H170949   4.405   6.805  16.576  1.1594 -0.8432  0.3692
16486TIP3    H270950   4.415   6.801  16.727 -1.4963  1.4887  0.6841
16487TIP3   OH270951   6.034   6.416   6.219 -0.2604 -0.0790  0.5480
16487TIP3    H170952   6.064   6.506   6.214 -0.7557  0.0388 -0.7680
16487TIP3    H270953   5.939   6.422   6.213 -0.2958 -0.6975  0.4153
16488TIP3   OH270954   0.512   5.787   4.671  0.4588 -0.3167  0.1540
16488TIP3    H170955   0.461   5.713   4.638  0.9153 -0.3582 -0.4682
16488TIP3    H270956   0.574   5.748   4.733  1.5093 -0.6344 -1.0652
16489TIP3   OH270957   3.287   6.456  16.628  0.1837  0.1449 -0.0459
16489TIP3    H170958   3.378   6.446  16.657  0.2180  1.1123  0.2212
16489TIP3    H270959   3.281   6.402  16.549  0.6246 -0.9559  0.6513
16490TIP3   OH270960   2.811   1.949  16.603  0.0549 -0.2481 -0.4634
16490TIP3    H170961   2.903   1.959  16.627  0.0642 -0.8327 -0.2527
16490TIP3    H270962   2.765   1.947  16.687 -0.1165 -0.3235 -0.5602
16491TIP3   OH270963   5.356   0.264   2.249  0.0334 -0.4566 -0.0225
16491TIP3    H170964   5.409   0.189   2.222 -1.3518 -1.4565 -0.0461
16491TIP3    H270965   5.278   0.226   2.289 -0.8942  0.9616 -0.3865
16492TIP3   OH270966   2.991   3.026   5.566  0.3548  0.7061  0.2587
16492TIP3    H170967   3.075   3.013   5.521  0.2770  0.2235  0.2513
16492TIP3    H270968   3.008   3.003   5.657  0.0691 -0.0469  0.1313
16493TIP3   OH270969   0.377   5.609  12.142 -0.2751  0.2339 -0.4952
16493TIP3    H170970   0.365   5.653  12.226  0.5971 -0.8905  0.2432
16493TIP3    H270971   0.299   5.633  12.091 -1.4797 -0.1189  1.0951
16494TIP3   OH270972   0.390   0.982   0.151  0.4685 -0.4694 -0.3116
16494TIP3    H170973   0.359   1.019   0.068  1.5724  2.8864  0.5941
16494TIP3    H270974   0.330   1.020   0.216  1.3977 -0.6674  0.6700
16495TIP3   OH270975   1.008   2.404  15.850 -0.4795 -0.2376  0.2529
16495TIP3    H170976   1.096   2.375  15.872 -0.2649  0.4991  0.3602
16495TIP3    H270977   1.000   2.491  15.888 -1.1187 -0.1405 -0.0834
16496TIP3   OH270978   2.044   3.932  11.105  0.0542  0.0454  0.5727
16496TIP3    H170979   2.138   3.916  11.109  0.3273  0.8147 -1.4771
16496TIP3    H270980   2.006   3.848  11.079  0.1968 -0.2218  1.2312
16497TIP3   OH270981   5.698   2.284  12.379  0.0193  0.2267  0.3082
16497TIP3    H170982   5.721   2.241  12.296  1.2218 -0.3555  0.9224
16497TIP3    H270983   5.776   2.334  12.402 -0.7020  1.2610  0.5562
16498TIP3   OH270984   6.789   5.287  14.463  0.5213 -0.0589  0.3694
16498TIP3    H170985   6.819   5.304  14.552 -1.3139  0.1557  0.9911
16498TIP3    H270986   6.736   5.364  14.440  0.8502 -0.1790 -0.8522
16499TIP3   OH270987   6.483   0.463  14.111  0.4367 -0.1589  0.0870
16499TIP3    H170988   6.499   0.557  14.111  0.3055 -0.1168 -0.9829
16499TIP3    H270989   6.430   0.447  14.189 -1.1099  0.9521 -0.6637
16500TIP3   OH270990   6.436   0.575   5.574  0.6185  0.4557 -0.2422
16500TIP3    H170991   6.529   0.587   5.595  0.9182  0.7887 -1.6441
16500TIP3    H270992   6.400   0.664   5.575 -0.1502  0.1784  2.1429
16501TIP3   OH270993   1.652   2.415  15.644  0.3615 -0.3099 -0.1198
16501TIP3    H170994   1.636   2.386  15.734 -0.4403  0.9091  0.1483
16501TIP3    H270995   1.748   2.416  15.637  0.4276 -1.2036  0.4485
16502TIP3   OH270996   3.149   1.013  10.585  0.2795  0.1111 -0.5445
16502TIP3    H170997   3.162   1.047  10.496  2.4390 -2.6461 -1.4300
16502TIP3    H270998   3.105   0.929  10.572 -1.0883  0.5130  1.1916
16503TIP3   OH270999   1.246   4.782  11.564 -0.7003 -0.2126 -0.1646
16503TIP3    H171000   1.230   4.717  11.497 -1.0108 -1.1617  0.7967
16503TIP3    H271001   1.175   4.769  11.628  0.2852 -0.1967  0.9703
16504TIP3   OH271002   5.103   5.982   3.556  0.1305  0.0386 -0.2989
16504TIP3    H171003   5.116   5.942   3.642  1.0072  2.9670  1.0610
16504TIP3    H271004   5.190   6.008   3.528 -0.0879 -1.1896 -2.3442
16505TIP3   OH271005   5.463   6.824   0.261  0.8739  0.2029 -0.2157
16505TIP3    H171006   5.527   6.756   0.240  0.0922  0.0542 -2.3510
16505TIP3    H271007   5.390   6.808   0.202 -1.2885  0.2522  2.2848
16506TIP3   OH271008   3.374   3.099  15.077 -0.2042 -0.4055  0.5183
16506TIP3    H171009   3.294   3.106  15.025  1.4304  1.1885 -1.9791
16506TIP3    H271010   3.419   3.021  15.042  2.4372  2.4002 -3.1051
16507TIP3   OH271011   0.832   4.007  17.058  0.4454  0.2989 -0.4365
16507TIP3    H171012   0.828   3.955  17.139  1.1516  1.4723  0.3907
16507TIP3    H271013   0.760   4.069  17.066  0.1762  0.0588 -0.9791
16508TIP3   OH271014   6.684   5.326  16.645  0.2804 -0.1861  0.2968
16508TIP3    H171015   6.599   5.299  16.681 -1.0914  0.2294 -2.3428
16508TIP3    H271016   6.691   5.419  16.666 -0.4879  0.0448 -0.3992
16509TIP3   OH271017   2.490   1.209   3.286  0.0231  0.5165 -0.3392
16509TIP3    H171018   2.407   1.163   3.278  0.8885 -1.4523  1.2163
16509TIP3    H271019   2.538   1.187   3.206  0.0777 -0.5794 -0.0128
16510TIP3   OH271020   3.920   6.469  13.859  0.3262 -0.3364  0.6310
16510TIP3    H171021   3.886   6.487  13.947  2.2859 -2.7793  2.0421
16510TIP3    H271022   3.994   6.529  13.850 -0.7943  0.9981 -0.0672
16511TIP3   OH271023   4.485   4.946  13.072 -0.5735 -0.1486 -0.2500
16511TIP3    H171024   4.446   5.025  13.109 -1.3756 -0.6160 -0.0612
16511TIP3    H271025   4.536   4.977  12.997 -2.7778  0.3474 -1.6416
16512TIP3   OH271026   3.541   2.928   2.979 -0.0129  0.1298 -0.5939
16512TIP3    H171027   3.590   2.997   2.934 -0.2813  0.9087  0.2803
16512TIP3    H271028   3.453   2.964   2.990  0.2857  0.3831  1.3808
16513TIP3   OH271029   2.727   2.270   3.770 -0.1527  0.2445  0.2365
16513TIP3    H171030   2.738   2.364   3.752 -2.2290  0.4793 -0.1140
16513TIP3    H271031   2.809   2.244   3.812  1.0196  1.8932 -0.8745
16514TIP3   OH271032   0.729   1.078  11.820  0.0635 -0.0873 -0.2293
16514TIP3    H171033   0.748   1.118  11.905 -1.7022  0.9934 -0.2929
16514TIP3    H271034   0.653   1.125  11.788 -0.5773 -1.8710 -1.4838
16515TIP3   OH271035   4.116   0.352   1.740  0.1015 -0.3949 -0.0081
16515TIP3    H171036   4.100   0.438   1.781  1.3257 -0.1181 -0.0700
16515TIP3    H271037   4.174   0.371   1.666 -1.5568 -0.9865 -1.5119
16516TIP3   OH271038   4.437   2.242  14.014 -0.3071  0.3366 -0.4054
16516TIP3    H171039   4.517   2.293  14.033 -0.1880 -0.5109  1.7160
16516TIP3    H271040   4.383   2.301  13.962  1.6171  1.0029 -1.7439
16517TIP3   OH271041   1.967   0.296  13.089 -0.4443 -0.2245 -0.2186
16517TIP3    H171042   1.936   0.236  13.157  1.3863 -0.5960  0.3390
16517TIP3    H271043   2.038   0.346  13.130 -0.7021  1.0308 -1.2385
16518TIP3   OH271044   6.090   3.014   0.331 -0.3484  0.0169 -0.4661
16518TIP3    H171045   6.167   3.027   0.387 -1.0095  2.9718 -0.0561
16518TIP3    H271046   6.030   2.962   0.385  0.7191 -0.9800 -0.1888
16519TIP3   OH271047   0.781   2.964  16.824  0.0516 -0.7542  0.8409
16519TIP3    H171048   0.716   2.943  16.757  1.3930 -0.9926 -0.4511
16519TIP3    H271049   0.793   2.882  16.872 -0.6639 -0.6777  1.1648
16520TIP3   OH271050   2.700   1.515  14.242 -0.1623 -0.0834  0.1098
16520TIP3    H171051   2.721   1.529  14.150  0.5806 -1.6536  0.0228
16520TIP3    H271052   2.662   1.599  14.270 -0.2744  0.4705 -1.5654
16521TIP3   OH271053   1.875   1.586   1.944 -0.1757 -0.1124  0.2014
16521TIP3    H171054   1.789   1.578   1.985 -0.2477 -2.3047 -0.2660
16521TIP3    H271055   1.858   1.620   1.856 -0.2732  1.8929  0.9355
16522TIP3   OH271056   5.049   6.028   4.728 -0.5436 -0.3136 -0.3945
16522TIP3    H171057   5.079   5.937   4.726  0.5320 -0.0052  0.4411
16522TIP3    H271058   5.035   6.051   4.636 -1.0713 -1.3863 -0.5952
16523TIP3   OH271059   6.817   5.374  16.212 -0.3750 -0.6453 -0.2138
16523TIP3    H171060   6.828   5.462  16.248  0.4843 -0.9500  0.2833
16523TIP3    H271061   6.872   5.373  16.134  0.2549 -0.9918  0.2278
16524TIP3   OH271062   6.199   0.882  13.120 -0.5079  0.2418 -1.0411
16524TIP3    H171063   6.231   0.965  13.084 -0.5255  1.7484  2.0751
16524TIP3    H271064   6.273   0.849  13.172 -1.6935  0.2307  0.7020
16525TIP3   OH271065   4.003   0.259   2.695 -0.0962  0.2761  0.0231
16525TIP3    H171066   3.956   0.215   2.766  2.5454 -2.2549  0.3833
16525TIP3    H271067   4.050   0.330   2.738  0.6902 -0.6104  0.6493
16526TIP3   OH271068   6.220   5.001   1.226 -0.7238  0.1744  0.2847
16526TIP3    H171069   6.230   5.052   1.306 -2.1994 -1.3227  1.4893
16526TIP3    H271070   6.146   5.042   1.181 -1.3351 -0.3315  0.8125
16527TIP3   OH271071   4.424   2.428   5.964 -0.1405  0.3485 -0.7317
16527TIP3    H171072   4.395   2.460   6.049  0.2662 -0.2532 -0.3575
16527TIP3    H271073   4.425   2.332   5.973  2.2991  0.3123 -0.5683
16528TIP3   OH271074   4.131   2.087  16.405 -0.0744  0.7405  0.4121
16528TIP3    H171075   4.177   2.034  16.470 -0.3743  1.1406  0.9623
16528TIP3    H271076   4.182   2.167  16.399  1.0681 -0.0617 -1.3173
16529TIP3   OH271077   1.461   6.448   5.545  0.7230 -0.3827 -0.1969
16529TIP3    H171078   1.496   6.537   5.545  1.1745 -0.5607 -0.0569
16529TIP3    H271079   1.536   6.393   5.522  0.4608 -0.7324 -0.2126
16530TIP3   OH271080   4.331   1.623   4.610 -0.3716  0.1054 -0.1594
16530TIP3    H171081   4.292   1.619   4.523 -0.7920  0.1520  0.0236
16530TIP3    H271082   4.403   1.686   4.601  0.2958 -0.7145 -0.7379
16531TIP3   OH271083   0.902   3.477   4.474  0.4931 -0.3035 -0.5919
16531TIP3    H171084   0.845   3.422   4.527  0.1480 -1.8069 -2.4228
16531TIP3    H271085   0.843   3.536   4.428  0.8738  1.9674  1.5730
16532TIP3   OH271086   4.061   2.859   3.217  0.4700  0.0012  0.0680
16532TIP3    H171087   4.043   2.953   3.212  2.5731  0.4473 -0.2161
16532TIP3    H271088   4.016   2.829   3.296  0.0393  1.3115  0.3361
16533TIP3   OH271089   6.830   1.659   0.401  0.7366 -0.4651 -0.3428
16533TIP3    H171090   6.810   1.574   0.442 -1.8283 -0.3215 -1.0923
16533TIP3    H271091   6.845   1.637   0.309 -1.7413 -0.0105 -0.9237
16534TIP3   OH271092   4.087   3.050   1.231  0.1327 -0.1138 -0.0990
16534TIP3    H171093   3.997   3.021   1.243  0.2426  0.0389  1.2705
16534TIP3    H271094   4.080   3.131   1.180 -0.3527 -1.0421 -1.5712
16535TIP3   OH271095   5.204   1.229  17.089 -0.4533 -0.0676 -0.0844
16535TIP3    H171096   5.195   1.311  17.041  0.2571  0.0665 -0.0093
16535TIP3    H271097   5.174   1.249  17.178 -0.4852  0.0577 -0.1252
16536TIP3   OH271098   0.001   1.889   5.374 -0.1826  0.5432  0.2951
16536TIP3    H171099   0.064   1.837   5.324 -1.5029  1.2192 -2.2554
16536TIP3    H271100   0.051   1.966   5.403  0.4024  0.6657 -0.9670
16537TIP3   OH271101   4.226   3.562   2.479 -0.1357 -0.5754 -0.5589
16537TIP3    H171102   4.320   3.553   2.469 -0.1027 -2.8741  1.1236
16537TIP3    H271103   4.190   3.546   2.391  0.9916  0.2302 -1.1864
16538TIP3   OH271104   2.896   3.297   2.221 -0.4510 -0.4493 -0.1366
16538TIP3    H171105   2.974   3.341   2.254  1.0083 -2.5281 -0.6167
16538TIP3    H271106   2.881   3.226   2.283 -0.6469 -1.3667 -1.2128
16539TIP3   OH271107   0.034   3.380  16.147 -0.3280  0.3369 -0.9842
16539TIP3    H171108   0.022   3.302  16.200 -1.1818  0.2390 -1.3173
16539TIP3    H271109  -0.003   3.358  16.062 -0.4194  1.0461 -1.1366
16540TIP3   OH271110   2.097   0.725   5.940 -0.0918  0.1469  0.9056
16540TIP3    H171111   2.145   0.769   6.010  0.6361  1.0936 -0.1428
16540TIP3    H271112   2.058   0.796   5.889  1.2205 -0.3391 -0.9092
16541TIP3   OH271113   6.664   3.299  15.343 -0.2752  0.1819 -0.6073
16541TIP3    H171114   6.760   3.297  15.339 -0.2882 -1.7765 -0.9755
16541TIP3    H271115   6.642   3.392  15.346  1.5930  0.7260 -1.9617
16542TIP3   OH271116   2.956   4.436   3.287 -0.5286  0.0147  0.0346
16542TIP3    H171117   2.904   4.413   3.210  0.8015 -0.0473 -0.8816
16542TIP3    H271118   3.037   4.472   3.251 -0.4237  1.2488  1.4245
16543TIP3   OH271119   0.322   6.144  14.363  0.7093  0.1464 -0.2421
16543TIP3    H171120   0.323   6.239  14.347  0.4136 -0.0325 -1.4369
16543TIP3    H271121   0.404   6.112  14.325 -0.2071 -0.3518 -1.9008
16544TIP3   OH271122   6.689   6.415   5.610  0.9315 -0.3319 -0.5259
16544TIP3    H171123   6.657   6.400   5.521  0.7572  1.6603 -0.8392
16544TIP3    H271124   6.612   6.444   5.658  1.1274 -0.9524  0.1771
16545TIP3   OH271125   2.247   0.380  15.659  0.6179  0.5199 -0.5594
16545TIP3    H171126   2.279   0.365  15.748  1.9234 -0.7208 -1.1874
16545TIP3    H271127   2.270   0.300  15.611 -1.2202  0.6219 -1.7160
16546TIP3   OH271128   0.042   3.772   3.688  0.1599  0.3905 -0.0467
16546TIP3    H171129   0.106   3.747   3.754 -1.6959 -0.8639  1.3852
16546TIP3    H271130   0.093   3.815   3.619  2.3158  0.6797  1.6461
16547TIP3   OH271131   3.803   3.143  11.561  0.6707 -0.1313 -0.1276
16547TIP3    H171132   3.775   3.215  11.617  1.3915 -0.6468  0.9266
16547TIP3    H271133   3.780   3.064  11.610  1.4309 -0.5898 -0.4940
16548TIP3   OH271134   6.071   4.212  15.895  0.4158 -0.3266 -0.1532
16548TIP3    H171135   6.000   4.190  15.834  0.2643  0.4423 -0.2538
16548TIP3    H271136   6.128   4.135  15.893  0.6621 -0.1233 -1.6136
16549TIP3   OH271137   4.846   5.111   2.231  0.1616  0.1850 -0.5591
16549TIP3    H171138   4.775   5.132   2.171 -0.7383  0.1738  0.4622
16549TIP3    H271139   4.926   5.130   2.182 -0.5227 -0.2881 -1.9160
16550TIP3   OH271140   4.329   1.734   0.201 -0.5777  0.2765 -0.7386
16550TIP3    H171141   4.280   1.652   0.207 -1.1695  0.6414 -0.5210
16550TIP3    H271142   4.324   1.772   0.288 -1.4378  1.1746 -1.1531
16551TIP3   OH271143   3.953   0.146   2.964  0.2991  0.5770  0.4555
16551TIP3    H171144   3.976   0.122   3.054  0.9625 -0.9464 -0.0867
16551TIP3    H271145   3.963   0.065   2.915  0.0270  1.4114 -1.0216
16552TIP3   OH271146   6.347   5.424  11.993  0.3457 -0.2658 -0.2614
16552TIP3    H171147   6.368   5.374  12.072  0.0875 -0.7204 -0.4813
16552TIP3    H271148   6.418   5.488  11.987 -0.6346  1.0766  1.4253
16553TIP3   OH271149   5.036   5.713   5.843  0.2743 -0.2850 -0.1406
16553TIP3    H171150   4.970   5.777   5.817 -0.2844 -0.9995 -0.5349
16553TIP3    H271151   4.986   5.638   5.873  0.9261 -0.0662  1.5903
16554TIP3   OH271152   6.391   1.595   2.785  0.1233 -0.2094 -0.1030
16554TIP3    H171153   6.429   1.535   2.849  0.3765 -0.3436 -0.3716
16554TIP3    H271154   6.303   1.560   2.768 -0.7098  0.9382  1.6141
16555TIP3   OH271155   1.717   0.099  12.135 -0.1046  0.0822 -0.0200
16555TIP3    H171156   1.742   0.176  12.185 -1.6747  0.4141  0.3114
16555TIP3    H271157   1.664   0.133  12.063 -2.8880 -0.7837  1.4795
16556TIP3   OH271158   5.395   4.541  11.230 -0.3544  0.0114  0.3940
16556TIP3    H171159   5.408   4.507  11.142 -0.2934  0.4938  0.2115
16556TIP3    H271160   5.484   4.551  11.265 -0.2122  2.2255 -0.4364
16557TIP3   OH271161   5.528   2.159  13.116  0.1236  0.3050  0.0511
16557TIP3    H171162   5.469   2.213  13.063 -0.0173  0.1117  0.0131
16557TIP3    H271163   5.600   2.218  13.138  0.2813  0.3364 -0.5143
16558TIP3   OH271164   2.815   5.804   6.032 -0.4582 -0.3839  0.3524
16558TIP3    H171165   2.810   5.715   6.067 -1.3824 -0.5813 -0.2468
16558TIP3    H271166   2.727   5.822   5.999  0.4000 -0.3110 -2.1228
16559TIP3   OH271167   4.845   4.189  14.538 -0.4170 -0.1713  0.1620
16559TIP3    H171168   4.774   4.141  14.581 -0.0848 -2.3145 -1.5193
16559TIP3    H271169   4.923   4.137  14.556  0.4513  1.1453  0.3860
16560TIP3   OH271170   0.283   4.167  16.218  0.3140 -0.4796  0.0628
16560TIP3    H171171   0.193   4.164  16.249 -0.0619 -1.4866 -1.0659
16560TIP3    H271172   0.330   4.215  16.286 -1.0187 -0.1384  0.7766
16561TIP3   OH271173   1.729   4.844  13.144 -0.0571  0.2381  0.8855
16561TIP3    H171174   1.790   4.891  13.087 -1.1504  0.4454 -0.1564
16561TIP3    H271175   1.767   4.756  13.152 -0.1351  0.0486 -0.6060
16562TIP3   OH271176   2.167   2.398   4.400  0.1083  0.0686 -0.6504
16562TIP3    H171177   2.249   2.396   4.350  1.0511 -0.0452  0.8464
16562TIP3    H271178   2.099   2.397   4.333  1.3139 -0.1506 -1.9340
16563TIP3   OH271179   3.045   3.815   1.922 -0.9174  0.0654 -0.1638
16563TIP3    H171180   3.015   3.734   1.963 -0.6620  0.1150  0.1253
16563TIP3    H271181   3.130   3.792   1.883  0.1902  0.7131  1.7361
16564TIP3   OH271182   0.436   1.194  13.175 -0.3836 -0.0043 -0.0844
16564TIP3    H171183   0.354   1.204  13.127 -0.9764  0.0658  0.9188
16564TIP3    H271184   0.504   1.218  13.111 -1.1324 -0.0659 -0.9243
16565TIP3   OH271185   5.480   6.815  13.682  0.6250 -0.2719  0.0690
16565TIP3    H171186   5.547   6.852  13.624  0.7300  0.3309  0.5729
16565TIP3    H271187   5.428   6.890  13.709 -0.7309 -0.8167 -0.9071
16566TIP3   OH271188   4.346   4.045  13.533 -0.0406 -0.0199  0.1769
16566TIP3    H171189   4.363   3.951  13.538  0.0444 -0.0910 -1.0729
16566TIP3    H271190   4.259   4.056  13.571 -0.0840 -0.6074  0.2606
16567TIP3   OH271191   2.608   1.729  15.382  0.1886 -0.4638  0.6516
16567TIP3    H171192   2.666   1.789  15.335 -2.2367  1.2133 -0.3796
16567TIP3    H271193   2.547   1.697  15.316 -1.0861 -0.8917  1.9844
16568TIP3   OH271194   0.696   2.002   6.391 -1.1021 -0.1186  0.2513
16568TIP3    H171195   0.784   1.988   6.426 -1.4059  0.7260  1.3905
16568TIP3    H271196   0.642   1.938   6.437 -0.8901 -1.6761 -1.5098
16569TIP3   OH271197   3.412   5.787   4.684  0.3693 -0.0919  0.2929
16569TIP3    H171198   3.389   5.877   4.661 -0.8474  0.0793  1.9396
16569TIP3    H271199   3.341   5.734   4.648  0.1245 -0.1701  0.8741
16570TIP3   OH271200   1.406   6.414  15.758 -0.0165 -0.4058 -0.2646
16570TIP3    H171201   1.432   6.360  15.683 -2.0068 -0.9908 -0.6029
16570TIP3    H271202   1.481   6.411  15.817  1.1846 -0.8362 -1.7235
16571TIP3   OH271203   5.643   3.286   4.065 -0.5608 -0.0137 -0.2285
16571TIP3    H171204   5.668   3.230   4.138  0.4985  0.9148  0.1637
16571TIP3    H271205   5.549   3.299   4.076 -0.2529  1.0552  1.6931
16572TIP3   OH271206   1.016   2.794  13.707  0.5761 -0.0242 -0.1073
16572TIP3    H171207   1.016   2.714  13.760 -0.2699  0.6216  0.8988
16572TIP3    H271208   1.085   2.848  13.745  0.2602  0.2653  0.0572
16573TIP3   OH271209   1.274   6.156   4.752 -0.1880 -0.5672 -0.5162
16573TIP3    H171210   1.340   6.092   4.780  1.4974  0.6110 -1.5840
16573TIP3    H271211   1.251   6.130   4.663  0.4954  0.2607 -0.9502
16574TIP3   OH271212   5.841   4.622  14.385 -0.0056  0.0406 -0.1217
16574TIP3    H171213   5.879   4.699  14.344 -0.7822  0.7016  0.3626
16574TIP3    H271214   5.747   4.631  14.370 -0.0829 -0.9847 -0.3474
16575TIP3   OH271215   5.884   4.502  12.583 -0.5779 -0.2537  0.2264
16575TIP3    H171216   5.957   4.539  12.534 -2.1435  0.6805 -1.5254
16575TIP3    H271217   5.906   4.409  12.593  0.3313 -0.2215 -1.2522
16576TIP3   OH271218   4.305   6.444   3.707 -0.2446  0.3700 -0.1673
16576TIP3    H171219   4.260   6.527   3.688  2.3261  2.2157  1.2239
16576TIP3    H271220   4.365   6.465   3.779  0.5678 -2.7285  0.2051
16577TIP3   OH271221   4.475   0.773  15.816 -0.2747 -0.1792  0.2951
16577TIP3    H171222   4.493   0.731  15.900 -0.3372  0.5368  0.6661
16577TIP3    H271223   4.455   0.700  15.757  0.6979 -0.7634  0.6590
16578TIP3   OH271224   5.501   6.582  11.877  0.7138 -0.6410  0.4080
16578TIP3    H171225   5.520   6.501  11.829  0.2657 -0.1669 -0.5952
16578TIP3    H271226   5.565   6.645  11.843 -0.3220  0.0037 -0.4101
16579TIP3   OH271227   6.211   1.576  11.911 -0.4867 -0.0188 -0.5068
16579TIP3    H171228   6.176   1.495  11.949  0.6121 -0.7062 -0.9054
16579TIP3    H271229   6.234   1.553  11.821  0.4614  0.5437 -0.4265
16580TIP3   OH271230   1.181   6.474  11.538 -0.6284  0.8263 -0.2026
16580TIP3    H171231   1.264   6.429  11.525 -0.3104  1.7516 -1.5264
16580TIP3    H271232   1.181   6.497  11.631 -1.7178 -3.5871  1.1339
16581TIP3   OH271233   1.445   4.001  15.753  0.1603 -0.2516  0.0411
16581TIP3    H171234   1.435   3.923  15.808  0.3164  0.2941  0.8608
16581TIP3    H271235   1.364   4.050  15.765  0.8866  0.7253  1.1721
16582TIP3   OH271236   1.825   5.094  16.019 -0.0439  0.1042 -0.5279
16582TIP3    H171237   1.911   5.090  16.061 -0.5950  0.9717  0.7650
16582TIP3    H271238   1.818   5.013  15.968  0.7510 -0.9000  0.9105
16583TIP3   OH271239   4.546   2.854   5.770 -0.1524  0.5215  0.4851
16583TIP3    H171240   4.614   2.791   5.791 -0.5332  0.0464  0.3107
16583TIP3    H271241   4.487   2.807   5.711 -0.4023  1.0613  0.2995
16584TIP3   OH271242   0.692   2.084  13.925  0.1803 -0.0226  0.4288
16584TIP3    H171243   0.714   2.115  13.837  1.1044 -1.2609  0.1913
16584TIP3    H271244   0.773   2.097  13.976 -0.0214 -0.2691  0.8186
16585TIP3   OH271245   0.047   4.824  11.805 -0.1474 -0.2472 -0.3439
16585TIP3    H171246   0.002   4.871  11.735 -2.0089 -0.0485  0.8847
16585TIP3    H271247   0.133   4.803  11.770 -0.6720  0.6880 -2.3084
16586TIP3   OH271248   1.659   0.965  14.270 -0.1228 -0.1753 -0.1626
16586TIP3    H171249   1.711   0.943  14.347  0.0363  2.3829  0.5571
16586TIP3    H271250   1.723   0.989  14.203 -0.2885 -1.7250 -0.9391
16587TIP3   OH271251   2.625   5.903   4.241  0.1774  0.5866  0.1159
16587TIP3    H171252   2.624   5.906   4.337  0.8622  0.4771  0.1244
16587TIP3    H271253   2.635   5.995   4.214  0.9723  0.5141  0.1607
16588TIP3   OH271254   1.711   2.175   4.766 -0.0690  0.1033  0.1678
16588TIP3    H171255   1.697   2.269   4.754  2.1909  0.8577  2.4857
16588TIP3    H271256   1.793   2.157   4.720 -1.0199 -1.0399 -1.1796
16589TIP3   OH271257   1.808   1.301  10.576  0.0605 -0.2657  0.6247
16589TIP3    H171258   1.898   1.279  10.601  0.4282  0.1634 -0.2595
16589TIP3    H271259   1.781   1.229  10.518  0.3151  0.2400 -0.1471
16590TIP3   OH271260   6.158   1.155   0.272 -0.4958 -0.8850 -0.1347
16590TIP3    H171261   6.228   1.219   0.261 -0.5620 -1.1256 -2.3137
16590TIP3    H271262   6.098   1.172   0.199 -1.7615 -1.8717  0.6390
16591TIP3   OH271263   6.332   1.789   1.332  0.2048  0.2665  0.1100
16591TIP3    H171264   6.315   1.744   1.415 -2.1874  1.9213  0.6375
16591TIP3    H271265   6.349   1.719   1.269 -0.8691 -1.1986  1.3852
16592TIP3   OH271266   2.043   3.980   3.921  0.1534 -0.1688 -0.0832
16592TIP3    H171267   1.969   3.945   3.970  0.0939  0.6505  0.4329
16592TIP3    H271268   2.093   3.903   3.895 -0.2042 -0.6602  0.6404
16593TIP3   OH271269   3.120   3.627  12.903  0.0697 -0.1338  0.0452
16593TIP3    H171270   3.146   3.693  12.838  0.0744  1.8878  1.9699
16593TIP3    H271271   3.027   3.612  12.886  0.1543  0.0967 -0.6534
16594TIP3   OH271272   4.733   0.750  15.111  0.1390 -0.0404  0.3603
16594TIP3    H171273   4.786   0.741  15.190 -0.1598  0.6226  0.6419
16594TIP3    H271274   4.647   0.778  15.143 -0.2693 -0.7162 -0.1225
16595TIP3   OH271275   3.451   0.566   4.562  0.4071 -0.4696  0.3663
16595TIP3    H171276   3.454   0.549   4.468 -1.6493 -0.8355  0.3343
16595TIP3    H271277   3.461   0.480   4.602  0.9021 -0.3592  0.4912
16596TIP3   OH271278   4.456   3.537   0.631 -0.0703 -0.3536 -0.1692
16596TIP3    H171279   4.426   3.599   0.697  1.3967  0.3608 -0.1433
16596TIP3    H271280   4.393   3.546   0.559 -2.4742 -2.0792  1.5532
16597TIP3   OH271281   3.519   0.475   1.014  0.4914  0.6451  1.1476
16597TIP3    H171282   3.583   0.536   0.977  1.9917 -0.3839  1.9239
16597TIP3    H271283   3.460   0.531   1.065 -0.6949  1.8938 -1.4002
16598TIP3   OH271284   5.085   1.580   4.066 -0.5620 -0.2659 -0.4427
16598TIP3    H171285   5.164   1.620   4.031 -0.6740  0.1003 -0.2818
16598TIP3    H271286   5.035   1.555   3.988 -0.0832 -0.9239 -0.5492
16599TIP3   OH271287   5.391   6.464  11.526 -0.1349 -0.3515 -0.0140
16599TIP3    H171288   5.483   6.465  11.498  0.0391 -0.8345  0.5057
16599TIP3    H271289   5.391   6.408  11.604 -0.8926 -0.4393 -0.0725
16600TIP3   OH271290   6.761   4.060  15.289  0.8564  0.6424  0.0302
16600TIP3    H171291   6.832   4.093  15.344  0.4109  1.0508  0.3762
16600TIP3    H271292   6.687   4.051  15.349  0.8230 -0.5116 -0.1672
16601TIP3   OH271293   2.141   0.773  16.847  0.3195 -0.0925 -0.2481
16601TIP3    H171294   2.124   0.763  16.940 -0.2660 -1.9935 -0.5045
16601TIP3    H271295   2.236   0.773  16.839  0.3671 -0.1625  0.3330
16602TIP3   OH271296   1.350   3.844  12.736 -0.1127 -0.2482  0.1136
16602TIP3    H171297   1.370   3.856  12.643  0.7032  1.9233  0.5163
16602TIP3    H271298   1.355   3.932  12.774  0.4028 -1.1765  2.3841
16603TIP3   OH271299   4.686   4.889  16.174 -0.3795  0.2395  0.6178
16603TIP3    H171300   4.614   4.827  16.191 -1.3818  1.0172 -0.5974
16603TIP3    H271301   4.645   4.960  16.125  1.2694  0.6204 -0.2831
16604TIP3   OH271302   1.608   2.889   3.615 -0.6186  0.1658  0.2447
16604TIP3    H171303   1.528   2.837   3.609  0.0626 -0.8737 -0.2665
16604TIP3    H271304   1.672   2.830   3.654  0.0926  0.7330 -0.0377
16605TIP3   OH271305   3.900   2.978  12.883 -0.0055  0.0314 -0.2012
16605TIP3    H171306   3.991   3.005  12.870  0.6977 -0.7790  2.4120
16605TIP3    H271307   3.867   3.036  12.952 -1.2416 -0.1983 -0.5723
16606TIP3   OH271308   4.328   4.584  12.563  0.5873  0.5000 -0.2484
16606TIP3    H171309   4.317   4.676  12.586  1.7253  0.4787  0.4759
16606TIP3    H271310   4.342   4.540  12.647  0.0888 -0.3251 -0.5910
16607TIP3   OH271311   0.110   3.882  16.180  0.3034 -0.1640 -0.3107
16607TIP3    H171312   0.144   3.821  16.114  0.7124  0.0676 -0.3167
16607TIP3    H271313   0.022   3.848  16.201  0.8637 -1.2920  0.3489
16608TIP3   OH271314   3.052   0.780  15.673  0.1646  0.0516 -0.5000
16608TIP3    H171315   3.088   0.834  15.603 -0.0623 -0.7921 -1.3015
16608TIP3    H271316   2.979   0.733  15.631 -0.3722 -0.0045  0.4701
16609TIP3   OH271317   6.706   2.124   1.797 -0.0053  0.2289 -0.0869
16609TIP3    H171318   6.762   2.064   1.846 -0.1342  0.4788  0.3724
16609TIP3    H271319   6.622   2.122   1.843  0.5230  2.1548  1.0771
16610TIP3   OH271320   1.441   5.797  10.852 -0.5411 -0.2066  0.2666
16610TIP3    H171321   1.391   5.729  10.808 -1.0935  1.0916 -1.2090
16610TIP3    H271322   1.469   5.856  10.782  1.8937 -0.1271  1.2246
16611TIP3   OH271323   4.602   4.775  11.479 -0.0027  0.3225 -0.1010
16611TIP3    H171324   4.616   4.849  11.419 -1.1913  0.6674  0.0162
16611TIP3    H271325   4.671   4.784  11.545  0.6816  0.5460 -0.8316
16612TIP3   OH271326   6.093   1.802  12.034 -0.1972  0.4161  0.5850
16612TIP3    H171327   6.118   1.712  12.011 -2.2688  0.3744 -2.1049
16612TIP3    H271328   6.176   1.850  12.037  0.7357 -0.9043 -1.5496
16613TIP3   OH271329   0.008   4.097   0.058 -0.2246 -0.7314 -0.5222
16613TIP3    H171330  -0.019   4.179   0.017 -1.3599 -0.6032  0.4159
16613TIP3    H271331  -0.073   4.061   0.095  0.8683 -0.0853  2.8834
16614TIP3   OH271332   1.140   1.768   3.912  0.3350  0.2687 -0.4013
16614TIP3    H171333   1.143   1.672   3.909 -0.0180  0.2760 -1.6434
16614TIP3    H271334   1.204   1.792   3.978  0.4123 -0.8265 -0.0538
16615TIP3   OH271335   4.185   2.806   5.890  0.6051  0.1006  0.1169
16615TIP3    H171336   4.244   2.743   5.848 -0.7768 -0.2500 -1.3730
16615TIP3    H271337   4.101   2.761   5.894 -0.7407  2.2285 -2.0791
16616TIP3   OH271338   1.121   2.635  16.573 -0.2723 -0.3211 -0.2169
16616TIP3    H171339   1.172   2.558  16.597 -0.0691 -0.1856 -0.2111
16616TIP3    H271340   1.080   2.664  16.654 -1.5361 -1.2816 -0.4780
16617TIP3   OH271341   0.626   6.356   4.961 -0.0268 -0.2516  0.3039
16617TIP3    H171342   0.689   6.423   4.935 -0.6256  0.1160 -0.2341
16617TIP3    H271343   0.673   6.303   5.025  1.7551 -1.6331 -1.9902
16618TIP3   OH271344   5.757   1.995   3.866 -0.3652 -0.0319  0.0953
16618TIP3    H171345   5.751   2.082   3.827 -0.6868 -0.2512 -0.3633
16618TIP3    H271346   5.780   2.010   3.957  0.1174  0.5132 -0.1094
16619TIP3   OH271347   1.825   4.225  16.540 -0.5660 -0.2557  0.3634
16619TIP3    H171348   1.823   4.306  16.489 -0.7431 -1.8805 -2.3537
16619TIP3    H271349   1.734   4.201  16.551 -0.4751 -0.9982 -0.4210
16620TIP3   OH271350   2.375   5.232   1.531 -0.1352  0.2436 -0.2845
16620TIP3    H171351   2.443   5.285   1.490  0.2008 -1.4271 -2.0225
16620TIP3    H271352   2.420   5.185   1.600 -0.2506  1.4831  0.6790
16621TIP3   OH271353   1.614   3.542   4.173  0.0327 -0.2555 -0.4433
16621TIP3    H171354   1.600   3.635   4.152 -1.2586 -0.6002 -1.2219
16621TIP3    H271355   1.601   3.496   4.090  0.9127 -1.1214 -0.1182
16622TIP3   OH271356   6.322   1.005   2.176 -0.1207  0.1181  0.1522
16622TIP3    H171357   6.398   1.062   2.168 -0.1063 -0.1180 -2.0466
16622TIP3    H271358   6.286   1.025   2.262  3.1170 -0.6722  1.8372
16623TIP3   OH271359   6.703   5.162  11.946 -0.1085  0.3582  0.0646
16623TIP3    H171360   6.685   5.252  11.974 -2.1120  0.1804 -0.4623
16623TIP3    H271361   6.758   5.172  11.869 -0.6557  1.1619 -0.2378
16624TIP3   OH271362   4.321   0.069  11.504  0.0316 -0.1890  0.1993
16624TIP3    H171363   4.377   0.125  11.557  1.5783 -2.1937  0.7949
16624TIP3    H271364   4.321   0.109  11.417  0.1775  1.2956  0.8648
16625TIP3   OH271365   3.686   1.610   5.709 -0.1906  0.0868 -0.0825
16625TIP3    H171366   3.638   1.686   5.675 -0.7244  0.2196  0.9378
16625TIP3    H271367   3.734   1.643   5.785  0.0603 -0.4609  0.0002
16626TIP3   OH271368   3.998   2.864   3.969  0.1567  0.1683  0.3909
16626TIP3    H171369   4.027   2.898   4.053 -1.0799 -0.3854  1.0789
16626TIP3    H271370   4.059   2.793   3.949 -0.8849 -1.2583  2.0115
16627TIP3   OH271371   0.880   6.488  15.332 -0.1001 -0.1309 -0.2215
16627TIP3    H171372   0.873   6.571  15.379 -1.3974 -1.0040  1.1987
16627TIP3    H271373   0.931   6.432  15.390  1.5602 -0.1092 -1.5704
16628TIP3   OH271374   4.130   2.305   2.754 -0.5465 -0.1672 -0.5173
16628TIP3    H171375   4.202   2.293   2.692 -0.3057 -0.4240 -0.1851
16628TIP3    H271376   4.172   2.308   2.840 -0.9785 -0.8772 -0.2751
16629TIP3   OH271377   6.127   2.900   3.421  0.1880 -0.0775  0.3994
16629TIP3    H171378   6.205   2.918   3.369  0.9496 -0.7832  1.2374
16629TIP3    H271379   6.116   2.805   3.415 -1.8612  0.2237 -1.3896
16630TIP3   OH271380   5.650   2.808  12.257  0.5030 -0.1611 -0.1721
16630TIP3    H171381   5.630   2.796  12.350 -1.0490  0.2461 -0.4336
16630TIP3    H271382   5.723   2.748  12.240  2.1536  1.1641  1.7440
16631TIP3   OH271383   5.506   4.904   3.901  0.2681  0.4001  0.1161
16631TIP3    H171384   5.412   4.886   3.890  0.0500  0.2287  1.9458
16631TIP3    H271385   5.546   4.872   3.820 -1.0654 -1.0518 -0.0195
16632TIP3   OH271386   5.259   5.712  13.465 -0.0727  0.0461  0.0229
16632TIP3    H171387   5.242   5.628  13.506  1.3034 -0.0532  0.4377
16632TIP3    H271388   5.299   5.765  13.534  1.8457  0.0302 -1.0224
16633TIP3   OH271389   6.140   6.472  16.630  0.2993  0.3748  0.0423
16633TIP3    H171390   6.137   6.528  16.707 -2.4555  0.3143  0.0771
16633TIP3    H271391   6.136   6.383  16.664 -1.6900  0.3655 -0.1416
16634TIP3   OH271392   1.737   3.394   1.884  0.3521  0.3529 -0.1562
16634TIP3    H171393   1.653   3.427   1.918  1.4265  1.3911  1.6719
16634TIP3    H271394   1.788   3.472   1.865  0.8663 -0.2641 -1.4191
16635TIP3   OH271395   1.837   5.452   1.406  0.3185  0.2692  0.2206
16635TIP3    H171396   1.749   5.420   1.427  0.2696 -0.0179 -0.4008
16635TIP3    H271397   1.822   5.524   1.345  0.5635 -0.8351 -1.1954
16636TIP3   OH271398   5.915   6.387  12.720 -0.1726  0.5762 -0.0769
16636TIP3    H171399   5.917   6.321  12.652  0.2289  1.6419 -1.1408
16636TIP3    H271400   5.822   6.401  12.738 -0.2901  0.4445 -0.5769
16637TIP3   OH271401   5.141   3.934  15.209 -0.3423 -0.7482  0.0219
16637TIP3    H171402   5.137   3.952  15.303 -0.5420 -0.0352 -0.1241
16637TIP3    H271403   5.068   3.982  15.172 -0.3183 -1.1018 -0.4949
16638TIP3   OH271404   4.070   5.215   2.461 -0.3626  0.2760  0.3349
16638TIP3    H171405   4.070   5.302   2.423  0.8537 -0.6507 -2.0026
16638TIP3    H271406   3.983   5.180   2.445  0.4248 -0.5218 -2.9270
16639TIP3   OH271407   3.029   3.004  12.099  0.9781  0.2479 -0.2726
16639TIP3    H171408   3.086   3.026  12.172  0.3995 -0.0827  0.2894
16639TIP3    H271409   3.083   3.019  12.021  2.2591 -1.2715  0.2674
16640TIP3   OH271410   0.595   5.316  16.335 -0.2770  0.2283  0.0387
16640TIP3    H171411   0.612   5.404  16.303  1.5275 -0.6546 -1.6071
16640TIP3    H271412   0.655   5.305  16.409  1.1597 -0.3418 -1.1626
16641TIP3   OH271413   2.513   1.052  14.628 -0.0955  0.4117 -0.1903
16641TIP3    H171414   2.518   0.991  14.702  0.2262 -0.5537 -0.9943
16641TIP3    H271415   2.526   1.138  14.668  0.7565 -0.1474  0.7957
16642TIP3   OH271416   1.205   1.338  14.391 -0.7401  0.6190 -0.1149
16642TIP3    H171417   1.150   1.348  14.468  1.5112 -0.8458  1.8604
16642TIP3    H271418   1.224   1.244  14.388  2.4789  1.1368  0.0632
16643TIP3   OH271419   5.016   2.625  12.636 -0.3104 -0.2588  0.4390
16643TIP3    H171420   4.980   2.680  12.567  0.6724 -0.9139 -0.6567
16643TIP3    H271421   5.102   2.663  12.653 -0.0045 -0.8862  0.3257
16644TIP3   OH271422   6.480   4.634  17.139  0.2574  0.3711  0.4833
16644TIP3    H171423   6.418   4.569  17.171  0.6577 -0.1749  0.1849
16644TIP3    H271424   6.465   4.636  17.044  1.1574 -0.2722  0.3188
16645TIP3   OH271425   2.201   6.835  12.819 -0.5730 -0.5383  0.2056
16645TIP3    H171426   2.274   6.868  12.766 -0.6714 -0.1349  0.3253
16645TIP3    H271427   2.150   6.912  12.842  0.3623 -0.4565  2.2755
16646TIP3   OH271428   2.913   2.815  13.078 -0.7329 -0.3034 -0.2940
16646TIP3    H171429   2.972   2.879  13.038 -0.2768  0.5385  1.5931
16646TIP3    H271430   2.904   2.745  13.013 -1.0228  1.5172 -2.3131
16647TIP3   OH271431   5.080   4.136  14.301 -0.3090  0.2618 -0.0531
16647TIP3    H171432   5.138   4.093  14.363  0.1667  1.8364  0.6266
16647TIP3    H271433   5.075   4.075  14.227 -0.1776 -1.2328  1.1263
16648TIP3   OH271434   6.781   4.068   0.621  0.3195  0.1856  0.0748
16648TIP3    H171435   6.791   4.000   0.555  1.4469  1.4836 -1.1746
16648TIP3    H271436   6.870   4.088   0.649 -0.0676  0.4324  1.1999
16649TIP3   OH271437   4.882   0.076  11.138  0.2514 -0.4829 -0.2346
16649TIP3    H171438   4.850   0.162  11.111  1.1961  0.0299  0.2020
16649TIP3    H271439   4.810   0.037  11.187  0.1941  0.5297  0.5158
16650TIP3   OH271440   3.892   1.347   6.331  0.3571 -0.2854 -0.1279
16650TIP3    H171441   3.863   1.256   6.328  0.6233 -0.3478 -2.2518
16650TIP3    H271442   3.812   1.397   6.347 -0.4933 -0.6910 -2.6304
16651TIP3   OH271443   4.218   3.752   5.299  0.0896  0.1008  0.8659
16651TIP3    H171444   4.226   3.742   5.394 -1.4657  0.7018  1.0907
16651TIP3    H271445   4.248   3.841   5.281  0.6314 -0.1023  0.7528
16652TIP3   OH271446   3.842   4.232  15.405 -0.6278  1.4343  0.0782
16652TIP3    H171447   3.853   4.148  15.361 -1.6101  0.8013  0.9768
16652TIP3    H271448   3.871   4.297  15.341  2.4309  0.3360  0.1787
16653TIP3   OH271449   2.390   4.046  13.262  0.1832 -0.1500  0.1897
16653TIP3    H171450   2.351   3.976  13.314  1.0450 -0.2498  0.7262
16653TIP3    H271451   2.477   4.059  13.301 -0.3776  1.9863  0.8543
16654TIP3   OH271452   1.037   4.534   6.269  0.1839 -0.1082  0.1487
16654TIP3    H171453   1.060   4.479   6.344 -0.3154 -0.5213  0.0031
16654TIP3    H271454   0.950   4.503   6.242  0.2744  0.1665 -0.4765
16655TIP3   OH271455   6.559   3.758   0.959  0.3628 -0.3924  0.1265
16655TIP3    H171456   6.480   3.721   0.920 -0.7473  0.3348  1.5626
16655TIP3    H271457   6.626   3.691   0.946 -0.6473 -1.3034 -0.5818
16656TIP3   OH271458   5.344   1.040   1.216  0.4645 -0.0435  0.9022
16656TIP3    H171459   5.376   1.064   1.303 -0.3259  1.3163  0.8415
16656TIP3    H271460   5.420   1.047   1.159  0.6431  0.6360  1.2124
16657TIP3   OH271461   6.349   1.865   0.247  0.3720 -0.4533 -0.1579
16657TIP3    H171462   6.291   1.940   0.249  0.0403 -0.6781  2.4773
16657TIP3    H271463   6.426   1.893   0.297  1.3188 -1.0899 -1.2130
16658TIP3   OH271464   2.964   4.661   2.292 -0.1391  0.1938 -0.2784
16658TIP3    H171465   2.997   4.733   2.345 -1.1688  0.3489  0.1863
16658TIP3    H271466   2.917   4.605   2.354  0.2579 -0.6391 -0.7133
16659TIP3   OH271467   6.244   1.069   1.024  0.0778  0.0987 -0.1529
16659TIP3    H171468   6.274   1.036   0.939 -0.7737 -0.9611 -0.0632
16659TIP3    H271469   6.185   1.001   1.056 -2.8896  2.2597 -0.5733
16660TIP3   OH271470   0.206   6.230   4.167  0.3502 -0.0282  0.2000
16660TIP3    H171471   0.127   6.256   4.119  0.1551 -0.0868  0.4919
16660TIP3    H271472   0.176   6.216   4.257  0.9906  1.5576  0.7001
16661TIP3   OH271473   5.884   2.567  12.248  0.4363 -0.1059 -0.0071
16661TIP3    H171474   5.921   2.498  12.304  1.6845  2.0415  1.9569
16661TIP3    H271475   5.955   2.591  12.189 -0.3356 -1.1467 -1.4308
16662TIP3   OH271476   6.805   0.683   6.198 -0.1148 -0.4675  0.1223
16662TIP3    H171477   6.874   0.617   6.201  0.6069  0.2236 -0.6300
16662TIP3    H271478   6.725   0.634   6.181 -0.0502 -1.4236  2.3537
16663TIP3   OH271479   0.670   3.497   0.809  0.2968 -0.2113 -0.4626
16663TIP3    H171480   0.604   3.558   0.775  0.7690  0.2268 -0.6189
16663TIP3    H271481   0.724   3.551   0.867  1.0641 -0.3381 -1.0381
16664TIP3   OH271482   0.752   1.116  11.196  0.3679  0.0030 -0.4362
16664TIP3    H171483   0.789   1.193  11.239  0.7668 -0.6501  0.4088
16664TIP3    H271484   0.820   1.088  11.134 -0.3131  1.1011 -1.7403
16665TIP3   OH271485   2.722   2.653   5.522 -0.0562  0.1173  0.1244
16665TIP3    H171486   2.666   2.620   5.452  0.5731 -0.8270  0.0463
16665TIP3    H271487   2.761   2.733   5.486  1.8072 -1.3805 -1.4275
16666TIP3   OH271488   2.805   5.867  16.413 -0.2552 -0.1882 -0.2564
16666TIP3    H171489   2.815   5.902  16.325 -1.5719  0.3872 -0.1977
16666TIP3    H271490   2.868   5.916  16.466 -0.4474  0.4575 -0.6166
16667TIP3   OH271491   5.053   2.363  13.173  0.6116 -0.4243  0.3861
16667TIP3    H171492   4.998   2.425  13.125  2.1626  0.3980 -0.4083
16667TIP3    H271493   5.127   2.415  13.204 -0.3226 -0.8977  3.8444
16668TIP3   OH271494   3.284   2.361  15.523 -0.3894  0.0914  0.1528
16668TIP3    H171495   3.292   2.417  15.446  0.9992 -0.5511 -0.2067
16668TIP3    H271496   3.215   2.402  15.576  0.3917  1.9859 -0.2086
16669TIP3   OH271497   2.905   3.420  12.665  0.1095  0.5052 -0.2006
16669TIP3    H171498   2.905   3.348  12.728  0.8180  1.7624  1.3035
16669TIP3    H271499   2.837   3.479  12.697  0.4105  1.1072 -0.6660
16670TIP3   OH271500   3.141   5.727   3.067 -0.1294  0.4513  0.2425
16670TIP3    H171501   3.185   5.724   3.153  1.3143 -2.1511 -0.4801
16670TIP3    H271502   3.211   5.752   3.006 -0.2721 -1.0436 -0.5721
16671TIP3   OH271503   5.534   1.280   0.845  0.2035  0.5798 -0.0981
16671TIP3    H171504   5.452   1.252   0.803 -0.5273  0.4515  1.3724
16671TIP3    H271505   5.546   1.219   0.917  0.9443  1.3680  0.4519
16672TIP3   OH271506   5.580   4.980   4.156  0.1441  0.4205  0.0855
16672TIP3    H171507   5.485   4.988   4.165 -0.1231 -2.4042  0.7633
16672TIP3    H271508   5.593   4.951   4.066  0.3994  1.1530 -0.1146
16673TIP3   OH271509   6.707   6.439  15.983 -0.0144  0.9505 -0.2123
16673TIP3    H171510   6.626   6.468  15.942 -1.0775 -1.5478 -0.0880
16673TIP3    H271511   6.697   6.344  15.992  3.3765  0.3612 -1.1471
16674TIP3   OH271512   2.837   0.799  11.953 -0.3957 -0.3104 -0.6551
16674TIP3    H171513   2.884   0.861  12.008 -0.1609 -3.3450  2.9868
16674TIP3    H271514   2.902   0.733  11.931 -1.2230 -0.6527 -2.1904
16675TIP3   OH271515   4.841   1.737   4.546 -0.3489 -0.6167  0.4147
16675TIP3    H171516   4.898   1.788   4.488 -1.3857  0.0283 -0.0681
16675TIP3    H271517   4.896   1.664   4.576  1.1583  0.7079  1.0507
16676TIP3   OH271518   5.037   3.622   5.032  0.2270  0.3613 -0.2506
16676TIP3    H171519   4.986   3.542   5.049  0.7177  0.1423  0.2030
16676TIP3    H271520   5.000   3.656   4.950  1.6006 -1.6798 -1.8545
16677TIP3   OH271521   1.653   4.610   0.528 -0.2763  0.0635  0.9359
16677TIP3    H171522   1.672   4.549   0.599  1.6770  0.2325  0.6339
16677TIP3    H271523   1.675   4.696   0.563  1.3267  0.0908  0.0040
16678TIP3   OH271524   4.034   4.126  12.695  0.3052 -0.2447 -0.1111
16678TIP3    H171525   4.097   4.182  12.650 -1.2875  1.2261 -0.6433
16678TIP3    H271526   4.047   4.145  12.788  0.5205  0.1974 -0.2278
16679TIP3   OH271527   3.875   5.388  12.937 -1.0557 -0.7566 -0.1392
16679TIP3    H171528   3.797   5.335  12.920  0.0724 -1.7969 -2.3913
16679TIP3    H271529   3.942   5.354  12.878  1.4664 -0.5440  2.3679
16680TIP3   OH271530   0.186   5.265   5.069  0.5070 -0.5533 -1.3128
16680TIP3    H171531   0.164   5.269   5.162 -0.3290  0.4491 -1.5318
16680TIP3    H271532   0.229   5.181   5.058  0.1943 -0.8906 -0.1050
16681TIP3   OH271533   3.579   3.763  12.804  0.4739 -0.4166  0.0356
16681TIP3    H171534   3.567   3.856  12.821 -1.9984 -1.1232  3.0785
16681TIP3    H271535   3.520   3.744  12.731  0.8835  0.3283 -0.5022
16682TIP3   OH271536   4.960   5.584   4.393 -0.2362  0.1577 -1.0328
16682TIP3    H171537   4.979   5.665   4.440  0.6101  0.0792 -1.2238
16682TIP3    H271538   4.865   5.578   4.394 -0.2863  0.8579 -0.5173
16683TIP3   OH271539   5.157   3.201   5.310 -0.5647 -0.3601 -0.3176
16683TIP3    H171540   5.075   3.157   5.287 -0.2480 -0.1265 -2.0598
16683TIP3    H271541   5.149   3.219   5.403 -0.8729 -3.7426  0.4383
16684TIP3   OH271542   3.768   1.825  13.906  0.2278 -0.5040 -0.1367
16684TIP3    H171543   3.809   1.884  13.969 -1.5727  0.2931  0.3463
16684TIP3    H271544   3.829   1.824  13.832  1.7737 -0.4877  1.0831
16685TIP3   OH271545   5.036   1.752  16.538  0.4342 -0.3546  0.0022
16685TIP3    H171546   5.015   1.845  16.537 -2.4126 -0.8497 -2.1089
16685TIP3    H271547   5.131   1.747  16.528  0.7502  2.2610  1.0300
16686TIP3   OH271548   5.017   2.025  16.596 -0.0609 -0.5597 -0.0414
16686TIP3    H171549   4.942   2.044  16.540 -0.6459 -1.5007  0.3959
16686TIP3    H271550   5.003   2.077  16.675  0.0582 -0.2824 -0.2011
16687TIP3   OH271551   6.624   0.397   5.890  0.1526  0.1764  0.0775
16687TIP3    H171552   6.673   0.343   5.953 -0.0890 -0.7397 -0.4989
16687TIP3    H271553   6.538   0.354   5.884  0.7015 -0.7584 -2.1004
16688TIP3   OH271554   5.939   5.644  16.559  0.3342  0.2345 -0.1873
16688TIP3    H171555   6.001   5.712  16.531 -0.0174  0.1921 -1.0746
16688TIP3    H271556   5.854   5.687  16.559  0.2310  0.0334  0.1078
16689TIP3   OH271557   1.244   0.356  17.019 -0.0486 -0.0490 -0.1283
16689TIP3    H171558   1.213   0.284  16.965  0.8603  0.5278 -1.4852
16689TIP3    H271559   1.269   0.315  17.102 -2.3483 -0.8120  0.2531
16690TIP3   OH271560   1.915   3.450   2.868  0.0602  0.0326  0.0511
16690TIP3    H171561   1.943   3.453   2.960  1.3278  0.9364 -0.3460
16690TIP3    H271562   1.897   3.541   2.845  0.0964 -0.1417 -0.7049
16691TIP3   OH271563   1.484   0.473  16.952  1.0457  0.6669  0.5360
16691TIP3    H171564   1.539   0.424  16.891  1.2644 -0.6353  1.7528
16691TIP3    H271565   1.408   0.416  16.966  0.2580  1.6308  0.3193
16692TIP3   OH271566   3.235   0.085   4.677 -0.4474  0.0884  0.6255
16692TIP3    H171567   3.197   0.051   4.758 -1.9137 -0.2668 -0.1672
16692TIP3    H271568   3.263   0.007   4.629 -3.3140 -0.0858 -0.9541
16693TIP3   OH271569   6.223   3.248  13.972 -0.3896  0.0010  0.1802
16693TIP3    H171570   6.303   3.289  14.007 -2.0116  1.8695  1.9426
16693TIP3    H271571   6.204   3.177  14.033 -0.9342  0.6192  0.7560
16694TIP3   OH271572   5.379   6.257   1.219 -0.1550 -0.1142  0.1001
16694TIP3    H171573   5.330   6.185   1.178  1.9756 -1.6454  0.0898
16694TIP3    H271574   5.351   6.254   1.311  1.2402 -2.2582  0.5357
16695TIP3   OH271575   0.401   3.168  13.965  0.3004  0.3842  0.2862
16695TIP3    H171576   0.450   3.089  13.988 -0.5068 -0.5604 -1.0923
16695TIP3    H271577   0.349   3.143  13.889 -0.1883  2.1771 -0.0261
16696TIP3   OH271578   2.990   2.672  12.674 -0.0917 -0.0539  0.1138
16696TIP3    H171579   3.046   2.730  12.623 -0.9309 -1.6905 -2.8846
16696TIP3    H271580   2.906   2.717  12.678  0.2565  0.5551  1.0820
16697TIP3   OH271581   2.632   4.417   2.042  0.1220  0.1318  0.9940
16697TIP3    H171582   2.713   4.398   2.089 -0.6933 -1.5195  1.8061
16697TIP3    H271583   2.653   4.401   1.950  1.2516  1.7063  0.9504
16698TIP3   OH271584   6.533   1.241   2.898  0.0344 -0.1853 -0.0757
16698TIP3    H171585   6.449   1.198   2.913 -0.2695  0.5509  0.4485
16698TIP3    H271586   6.593   1.198   2.958  0.1108 -0.9243 -0.6732
16699TIP3   OH271587   5.923   3.426   0.069 -0.4213 -0.0909 -0.3755
16699TIP3    H171588   5.982   3.397   0.139 -0.6254  0.8283  0.1999
16699TIP3    H271589   5.911   3.520   0.086 -1.7085 -0.1767 -0.7261
16700TIP3   OH271590   5.051   0.815  12.343  0.1715 -0.3103 -0.0540
16700TIP3    H171591   5.078   0.875  12.274  0.2671  1.2937  1.3249
16700TIP3    H271592   4.958   0.798  12.325  0.2218  0.0029 -0.6274
16701TIP3   OH271593   4.456   5.970  14.746  0.4351  0.1500 -0.5415
16701TIP3    H171594   4.428   6.023  14.671  0.8410  1.6825  0.3546
16701TIP3    H271595   4.379   5.918  14.769  0.0806  0.1943 -1.5504
16702TIP3   OH271596   2.773   4.704  10.488  0.4368  0.5437  0.1049
16702TIP3    H171597   2.842   4.645  10.460 -0.6086  0.2605 -2.0762
16702TIP3    H271598   2.695   4.649  10.496  0.0917  1.1254  0.9935
16703TIP3   OH271599   0.598   0.849  13.267  0.6017  0.6221 -0.1075
16703TIP3    H171600   0.684   0.881  13.239 -0.2777  2.5924 -0.7007
16703TIP3    H271601   0.564   0.918  13.323 -0.7231  0.0126 -0.1334
16704TIP3   OH271602   3.366   2.603   4.627 -0.5499  0.4346  0.3294
16704TIP3    H171603   3.418   2.678   4.600  1.4618 -1.2590 -0.7864
16704TIP3    H271604   3.291   2.604   4.567 -1.5077  2.4445  1.4397
16705TIP3   OH271605   5.445   4.214  15.683  0.0013  0.7475  0.0530
16705TIP3    H171606   5.426   4.231  15.591  0.0796  0.6170  0.0131
16705TIP3    H271607   5.440   4.119  15.691 -1.6834  0.8561  0.5469
16706TIP3   OH271608   2.867   5.645  12.374  0.4279 -0.1331  0.2319
16706TIP3    H171609   2.822   5.715  12.327 -1.8989 -1.7341 -0.0446
16706TIP3    H271610   2.956   5.647  12.340 -0.6375  0.0417 -2.8381
16707TIP3   OH271611   5.934   2.703   1.861  0.1405 -0.2383  0.3161
16707TIP3    H171612   5.920   2.771   1.927  1.9459 -0.1686  0.6714
16707TIP3    H271613   5.953   2.750   1.780 -1.0490 -0.3358 -0.0464
16708TIP3   OH271614   4.001   6.539   5.014  0.1545  0.0907 -0.2256
16708TIP3    H171615   3.926   6.517   4.960 -0.6485 -0.1509  0.9552
16708TIP3    H271616   4.077   6.520   4.958 -0.6063 -1.2212 -0.8644
16709TIP3   OH271617   5.592   3.613   1.220  0.3680 -0.0228 -0.1466
16709TIP3    H171618   5.524   3.554   1.188 -0.1635 -0.1985  1.2558
16709TIP3    H271619   5.642   3.562   1.283  2.2585 -0.1059 -1.6023
16710TIP3   OH271620   2.130   6.475  16.821 -0.0171 -0.3803 -0.2468
16710TIP3    H171621   2.217   6.449  16.853  0.5218  1.4327 -0.1036
16710TIP3    H271622   2.069   6.418  16.868  1.0306 -0.8195  0.6292
16711TIP3   OH271623   3.778   0.862   2.918 -0.2983 -0.0848  0.1514
16711TIP3    H171624   3.800   0.769   2.909  0.1107  0.2165 -2.5840
16711TIP3    H271625   3.862   0.905   2.933 -0.2984  0.0079 -0.1177
16712TIP3   OH271626   5.520   0.408  11.218 -0.8662  0.0964 -0.1122
16712TIP3    H171627   5.512   0.371  11.130  1.3169 -3.4562  0.9631
16712TIP3    H271628   5.437   0.385  11.261 -0.1524 -2.4821  0.0568
16713TIP3   OH271629   5.800   6.499  11.774 -0.3191  0.4500  0.1081
16713TIP3    H171630   5.759   6.415  11.753  0.3070  0.0847  0.3106
16713TIP3    H271631   5.856   6.517  11.698  0.3346  0.1666  0.5120
16714TIP3   OH271632   0.378   5.539   3.848 -0.2831  0.3152 -0.2983
16714TIP3    H171633   0.339   5.482   3.915  0.0052  0.2678 -0.1674
16714TIP3    H271634   0.451   5.583   3.893 -0.1832  0.3999 -0.5382
16715TIP3   OH271635   3.327   3.960   3.658 -0.3394  0.4021 -0.2116
16715TIP3    H171636   3.342   3.877   3.703 -0.2085  1.1137  1.1045
16715TIP3    H271637   3.409   3.978   3.613 -0.1554  0.1213  0.0087
16716TIP3   OH271638   0.744   5.518  10.761  0.0601 -0.5064 -0.0673
16716TIP3    H171639   0.742   5.422  10.770 -0.2435 -0.7742 -2.2986
16716TIP3    H271640   0.653   5.542  10.744  0.2226  0.1150 -0.0787
16717TIP3   OH271641   0.512   0.666  10.930 -0.0151  0.0990 -0.0235
16717TIP3    H171642   0.607   0.669  10.924  0.1333 -1.4090  0.8893
16717TIP3    H271643   0.494   0.638  11.020 -1.4595  3.7697  0.9846
16718TIP3   OH271644   0.758   0.589  11.654 -0.0309  0.8575  0.6166
16718TIP3    H171645   0.708   0.654  11.704  0.5924  2.1721 -0.4059
16718TIP3    H271646   0.849   0.610  11.672  0.1818  0.2163  0.3111
16719TIP3   OH271647   3.936   2.244   3.730  0.6169  0.5093 -0.3046
16719TIP3    H171648   3.867   2.236   3.664 -0.7717  0.2400  1.1269
16719TIP3    H271649   3.994   2.170   3.713  0.0703  0.2228 -0.9742
16720TIP3   OH271650   6.297   1.438  15.970 -0.5290 -0.3879 -0.4647
16720TIP3    H171651   6.294   1.528  16.003 -1.9678 -0.4146 -0.4492
16720TIP3    H271652   6.260   1.443  15.882  0.3994 -0.8173 -0.9000
16721TIP3   OH271653   1.834   0.000  12.470 -0.6384  0.2406  0.0731
16721TIP3    H171654   1.848  -0.039  12.556 -0.4501 -0.1185 -0.1176
16721TIP3    H271655   1.840  -0.073  12.409 -0.7746  0.4928 -0.2449
16722TIP3   OH271656   3.568   2.389   3.635 -0.1483 -0.8428  0.4799
16722TIP3    H171657   3.545   2.297   3.625 -2.2495 -0.6489  2.6410
16722TIP3    H271658   3.484   2.435   3.639  0.8305  1.3106 -1.1751
16723TIP3   OH271659   0.270   0.699   0.110 -0.1027 -0.3052  0.2249
16723TIP3    H171660   0.252   0.616   0.067 -1.4668 -0.0912  0.3374
16723TIP3    H271661   0.187   0.722   0.153  0.1424  1.2579 -0.0757
16724TIP3   OH271662   4.269   2.101  12.123  0.0614 -0.4940  0.1635
16724TIP3    H171663   4.313   2.123  12.205 -1.9618 -0.0190  1.1915
16724TIP3    H271664   4.194   2.160  12.119  0.4426 -0.0677 -2.3847
16725TIP3   OH271665   4.720   6.810  15.009  0.5915  0.5931 -0.0048
16725TIP3    H171666   4.661   6.735  15.000  1.1110  0.3389 -1.6012
16725TIP3    H271667   4.693   6.870  14.939  3.3782 -0.3842 -2.0833
16726TIP3   OH271668   4.796   5.373   5.494  0.6503 -0.1775  0.1498
16726TIP3    H171669   4.740   5.446   5.521 -1.3333 -1.1821 -1.0790
16726TIP3    H271670   4.885   5.404   5.512 -0.2096  1.8595  1.2546
16727TIP3   OH271671   0.703   0.706  12.596 -0.0703 -0.1570 -0.3202
16727TIP3    H171672   0.730   0.729  12.685  1.3748  2.3191 -1.2779
16727TIP3    H271673   0.620   0.660  12.606  0.1139 -0.0359  2.2944
16728TIP3   OH271674   4.092   5.142   0.563 -0.8024 -0.6120  0.0390
16728TIP3    H171675   4.027   5.074   0.578 -0.4466 -1.4638 -1.9863
16728TIP3    H271676   4.042   5.224   0.562 -2.3726 -1.4023 -3.7585
16729TIP3   OH271677   5.930   1.942  12.948 -0.2863 -0.6643  0.3509
16729TIP3    H171678   5.966   1.990  13.023 -0.8588 -2.3027  1.7369
16729TIP3    H271679   5.836   1.953  12.956 -0.4592 -2.4153  1.0043
16730TIP3   OH271680   1.732   3.343  12.734 -0.2182  0.1000 -0.4165
16730TIP3    H171681   1.760   3.376  12.649  4.0278 -1.4644  0.1380
16730TIP3    H271682   1.758   3.411  12.796  0.0808 -0.2984 -0.0950
16731TIP3   OH271683   6.155   1.344  17.093  0.8435  0.0231  0.0854
16731TIP3    H171684   6.180   1.366  17.183 -1.3206 -1.1858  1.0493
16731TIP3    H271685   6.187   1.254  17.081 -2.9533 -1.7169  1.4879
16732TIP3   OH271686   0.987   0.065  11.860  0.6506  0.7311  0.3033
16732TIP3    H171687   0.958   0.151  11.831  0.6663  0.6529  0.0518
16732TIP3    H271688   1.042   0.033  11.789  0.7930  0.5899  0.4757
16733TIP3   OH271689   3.438   0.395  11.661  0.0345 -0.4288  0.8475
16733TIP3    H171690   3.385   0.411  11.739 -1.9529 -0.0401 -0.4986
16733TIP3    H271691   3.386   0.332  11.609  0.5614  0.4355 -0.8123
16734TIP3   OH271692   1.367   2.517   0.834 -0.8109  0.3798 -0.0741
16734TIP3    H171693   1.312   2.511   0.757 -1.3155 -0.6234  0.3491
16734TIP3    H271694   1.440   2.457   0.817 -1.2759 -0.3620  0.4986
16735TIP3   OH271695   4.039   6.338  15.903 -0.5115  0.0100 -0.5236
16735TIP3    H171696   3.964   6.378  15.947 -0.7305  0.3322 -1.1608
16735TIP3    H271697   4.017   6.245  15.897  1.2472 -0.8616  3.5256
16736TIP3   OH271698   3.060   2.831   4.662  0.1967  0.2403  0.2770
16736TIP3    H171699   3.092   2.749   4.623  0.9182  0.4013  0.5071
16736TIP3    H271700   2.992   2.803   4.723  0.0869 -0.1436 -0.0146
16737TIP3   OH271701   1.535   4.172   3.972  0.2835 -0.1596  0.4608
16737TIP3    H171702   1.530   4.166   3.877 -1.3592  1.5807  0.3899
16737TIP3    H271703   1.600   4.240   3.988  0.8774 -0.7538  0.6134
16738TIP3   OH271704   3.856   2.470   5.160  0.2505  0.3745  0.9955
16738TIP3    H171705   3.928   2.478   5.222  0.3908  2.3511  0.6455
16738TIP3    H271706   3.787   2.526   5.197  0.6025  2.1740 -0.9342
16739TIP3   OH271707   5.847   4.110   4.304  0.1445  0.0733  0.1313
16739TIP3    H171708   5.824   4.029   4.350  0.4426 -0.4198 -0.5684
16739TIP3    H271709   5.909   4.153   4.362 -0.0526 -0.1746  0.5325
16740TIP3   OH271710   3.843   4.105   1.949 -0.1836 -0.4745 -0.4359
16740TIP3    H171711   3.924   4.101   2.000  0.9371  1.5312 -1.8894
16740TIP3    H271712   3.827   4.199   1.937 -3.4159 -0.7192  0.7531
16741TIP3   OH271713   4.809   6.323  12.204 -0.0755  0.0443 -0.1940
16741TIP3    H171714   4.870   6.252  12.219 -0.4470 -0.3895 -0.7249
16741TIP3    H271715   4.760   6.298  12.126 -1.0266  0.3063  0.2889
16742TIP3   OH271716   6.573   1.899   0.409 -0.4981 -0.0496 -0.2081
16742TIP3    H171717   6.656   1.917   0.365  0.4559  0.6872  1.7954
16742TIP3    H271718   6.578   1.807   0.434 -0.4722 -0.1127 -0.4404
16743TIP3   OH271719   1.888   0.361   6.210  0.3752 -0.2884 -0.1545
16743TIP3    H171720   1.956   0.296   6.221  1.4200  0.8986  0.6484
16743TIP3    H271721   1.808   0.310   6.194  1.1124 -1.7463  0.6544
16744TIP3   OH271722   4.650   4.998   3.251 -0.1806  0.0211  0.4990
16744TIP3    H171723   4.675   5.033   3.165 -0.8216  1.3125  0.8245
16744TIP3    H271724   4.729   4.952   3.281 -0.1392 -0.9954 -1.0276
16745TIP3   OH271725   0.467   4.133   5.634  0.4030  0.0707 -0.1140
16745TIP3    H171726   0.531   4.149   5.703  0.6987  0.8651 -0.5654
16745TIP3    H271727   0.515   4.151   5.553  0.2767 -1.5344 -0.5788
16746TIP3   OH271728   0.946   1.109   3.757 -0.4474  0.2747 -0.4978
16746TIP3    H171729   0.939   1.081   3.848  0.5514  1.4983 -0.0169
16746TIP3    H271730   0.967   1.029   3.709 -2.3537 -0.6615  0.1008
16747TIP3   OH271731   6.020   3.215  14.324  0.2837  0.4151 -0.3423
16747TIP3    H171732   5.965   3.140  14.304 -0.7742  1.4156 -1.3149
16747TIP3    H271733   5.979   3.289  14.279  0.9413  1.7210  1.0891
16748TIP3   OH271734   4.402   2.746   3.295 -0.0108  0.4980  0.7193
16748TIP3    H171735   4.493   2.777   3.302  0.3365 -0.4978  0.7810
16748TIP3    H271736   4.410   2.658   3.260 -0.9683  0.3923  0.7522
16749TIP3   OH271737   0.871   6.646  16.227  0.6603  0.9529 -0.5670
16749TIP3    H171738   0.965   6.633  16.217  0.5922  0.4916 -0.6106
16749TIP3    H271739   0.847   6.703  16.154  0.6650 -0.0825 -1.4041
16750TIP3   OH271740   2.697   3.168  13.716  0.2895  0.1521  0.6424
16750TIP3    H171741   2.654   3.242  13.674  0.6175  0.2839  0.5390
16750TIP3    H271742   2.626   3.108  13.738 -0.0987  0.9916  1.7403
16751TIP3   OH271743   1.915   1.444   6.335  0.6164  0.2957  0.4726
16751TIP3    H171744   1.824   1.425   6.312  0.8454 -1.7645  0.9872
16751TIP3    H271745   1.965   1.379   6.286  1.6727  0.3984  1.3892
16752TIP3   OH271746   3.135   1.625   5.196  0.0071 -0.6314  0.5980
16752TIP3    H171747   3.137   1.674   5.279  1.5809 -0.8099  0.7053
16752TIP3    H271748   3.057   1.571   5.202 -1.3697  1.2741  0.8142
16753TIP3   OH271749   5.780   6.130  12.960  0.5609 -0.4297  0.2577
16753TIP3    H171750   5.792   6.186  13.037  0.1202 -1.7707  1.3456
16753TIP3    H271751   5.855   6.150  12.904  0.3590  1.3064  0.5280
16754TIP3   OH271752   6.459   5.239  16.191  0.4405  0.0880 -0.1801
16754TIP3    H171753   6.438   5.145  16.182  1.9546 -0.1526 -1.4865
16754TIP3    H271754   6.442   5.257  16.284  0.2418 -1.5032  0.1360
16755TIP3   OH271755   5.167   3.887   5.887  0.5156 -0.2777  0.6583
16755TIP3    H171756   5.125   3.914   5.968 -1.6311 -1.0853 -0.1121
16755TIP3    H271757   5.194   3.796   5.903 -2.0999 -1.2968 -0.2279
16756TIP3   OH271758   4.638   5.268   5.295 -0.1131 -0.2543  0.6136
16756TIP3    H171759   4.709   5.261   5.359 -0.0849  0.7249  0.6928
16756TIP3    H271760   4.558   5.251   5.345 -0.1942  1.5800  1.1691
16757TIP3   OH271761   0.640   6.274  13.456  0.3704 -0.3378  0.2984
16757TIP3    H171762   0.703   6.305  13.391  0.0482  1.1009  0.6345
16757TIP3    H271763   0.559   6.319  13.435 -0.0673 -0.7909  0.9673
16758TIP3   OH271764   2.340   5.540  14.083 -0.2067 -0.1181 -0.6838
16758TIP3    H171765   2.323   5.634  14.083 -2.6347 -0.4743  0.8334
16758TIP3    H271766   2.389   5.524  14.163 -0.9403 -0.2734 -0.2519
16759TIP3   OH271767   4.250   3.122   3.104  0.4687  0.0164 -0.0433
16759TIP3    H171768   4.162   3.100   3.073  0.3537 -0.1399  0.3775
16759TIP3    H271769   4.306   3.055   3.066  0.2038 -0.6830  0.7574
16760TIP3   OH271770   4.051   4.641   1.309  0.1616 -0.2971  0.5254
16760TIP3    H171771   4.062   4.714   1.249 -0.3299 -0.7334 -0.1091
16760TIP3    H271772   4.124   4.649   1.371 -1.8271  2.8312  2.7316
16761TIP3   OH271773   4.418   3.791   1.879  0.2038 -0.5043  0.2942
16761TIP3    H171774   4.504   3.750   1.891 -0.2055 -1.1187  1.2298
16761TIP3    H271775   4.356   3.720   1.894 -0.5015  0.2217  0.8613
16762TIP3   OH271776   3.587   0.893  14.314  0.7198  0.2701  0.5441
16762TIP3    H171777   3.578   0.942  14.396 -0.2404 -1.1124  1.3019
16762TIP3    H271778   3.541   0.811  14.330 -1.9209  1.0306 -2.2689
16763TIP3   OH271779   5.006   4.517   1.132  0.4747 -0.3835  0.1220
16763TIP3    H171780   4.941   4.575   1.172 -0.5140 -1.0951 -0.4268
16763TIP3    H271781   5.075   4.511   1.198 -0.8064 -0.9835  1.4628
16764TIP3   OH271782   2.184   6.071  12.878 -0.4920  0.3207  0.1242
16764TIP3    H171783   2.211   6.154  12.917 -1.3998  0.2119  1.0336
16764TIP3    H271784   2.155   6.094  12.790  0.0167  0.8381  0.0878
16765TIP3   OH271785   0.209   1.211  14.822  0.8448  0.2934  0.1629
16765TIP3    H171786   0.172   1.265  14.893 -0.1737 -1.2581  0.8702
16765TIP3    H271787   0.189   1.260  14.742  2.9830  2.6202  0.9410
16766TIP3   OH271788   5.575   4.932   5.208 -0.0069 -0.1298 -0.4887
16766TIP3    H171789   5.617   4.939   5.122 -1.3671  0.5770 -1.1125
16766TIP3    H271790   5.518   4.856   5.201  0.0464 -0.2058 -0.1226
16767TIP3   OH271791   3.838   6.544  15.036  0.7757 -0.6220 -0.2858
16767TIP3    H171792   3.815   6.542  15.129 -3.0440 -1.0082 -1.0655
16767TIP3    H271793   3.814   6.631  15.007  0.0881 -1.1102 -1.2486
16768TIP3   OH271794   5.939   5.744   3.407 -0.2853 -0.0704  0.7561
16768TIP3    H171795   6.011   5.720   3.466  0.8528  2.5773  0.5975
16768TIP3    H271796   5.966   5.709   3.322 -0.1301 -0.7418  1.0741
16769TIP3   OH271797   0.838   5.500  16.392  0.1039 -0.3032  0.0172
16769TIP3    H171798   0.827   5.507  16.297  0.9831  0.5546 -0.0359
16769TIP3    H271799   0.808   5.584  16.426  0.6726 -0.2547  0.4104
16770TIP3   OH271800   6.172   5.733   5.416 -0.3981  1.2489  0.3147
16770TIP3    H171801   6.181   5.651   5.464  0.4290  1.6215  0.8280
16770TIP3    H271802   6.092   5.722   5.365 -0.2373  0.0697  0.2682
16771TIP3   OH271803   6.812   2.815  13.193  0.9590 -0.0050  0.0220
16771TIP3    H171804   6.730   2.864  13.199  0.6903 -0.2653 -1.2408
16771TIP3    H271805   6.853   2.828  13.278 -0.2458  0.3851  0.5771
16772TIP3   OH271806   4.083   4.092   5.549 -0.4593 -0.2456  0.0050
16772TIP3    H171807   4.144   4.052   5.610 -0.2524 -1.4978 -1.0012
16772TIP3    H271808   3.999   4.092   5.596  0.0971  0.7315  1.0660
16773TIP3   OH271809   0.583   2.931  16.407 -1.0495 -0.5786 -0.3247
16773TIP3    H171810   0.525   2.934  16.483 -1.6404  1.1932 -0.8092
16773TIP3    H271811   0.552   2.857  16.355 -1.1169 -1.3366  0.7542
16774TIP3   OH271812   5.560   0.383   0.779 -0.5527 -0.3865  0.3672
16774TIP3    H171813   5.568   0.368   0.685 -0.9446  3.2153 -0.4008
16774TIP3    H271814   5.500   0.315   0.809 -3.6032  0.5876 -2.8154
16775TIP3   OH271815   1.449   1.095   3.640 -0.0983  0.2801  0.2790
16775TIP3    H171816   1.370   1.131   3.600 -0.9413 -1.1219  0.6439
16775TIP3    H271817   1.478   1.027   3.579  0.8176  0.7308  0.1810
16776TIP3   OH271818   4.424   5.029  10.202 -0.3186  0.1098  0.2642
16776TIP3    H171819   4.334   5.007  10.226 -0.4045 -0.2441 -0.3570
16776TIP3    H271820   4.421   5.123  10.182 -0.6575  0.0022 -0.2189
16777TIP3   OH271821   1.105   3.884   4.433 -0.0645 -0.0849 -0.5363
16777TIP3    H171822   1.028   3.909   4.484  0.3065 -0.5712  0.2823
16777TIP3    H271823   1.118   3.791   4.454  1.4681  0.2910  0.3069
16778TIP3   OH271824   3.885   0.853  15.824  0.4132  0.4843 -0.0874
16778TIP3    H171825   3.979   0.873  15.824  0.7421 -0.9570 -0.2962
16778TIP3    H271826   3.847   0.920  15.767  1.6741 -0.3688 -2.0506
16779TIP3   OH271827   6.267   6.679  16.343  0.2134 -0.1726  0.0420
16779TIP3    H171828   6.224   6.595  16.325  0.8959 -0.3702 -0.7191
16779TIP3    H271829   6.243   6.735  16.269  0.9562 -0.1697 -0.2049
16780TIP3   OH271830   5.134   3.793   4.033 -0.0408  0.2803  0.3124
16780TIP3    H171831   5.180   3.850   4.094 -0.9535  2.3323 -0.8193
16780TIP3    H271832   5.203   3.744   3.989  0.7720  0.4242  1.3943
16781TIP3   OH271833   0.054   3.673   2.531 -0.0427  0.1647 -0.6324
16781TIP3    H171834  -0.008   3.739   2.561  0.0256  0.5133 -1.2542
16781TIP3    H271835   0.101   3.715   2.459 -0.9319 -1.0038 -1.9522
16782TIP3   OH271836   5.372   6.767   3.473 -0.0631  0.2382  0.4809
16782TIP3    H171837   5.399   6.804   3.558 -0.3850  1.6022  0.0176
16782TIP3    H271838   5.350   6.843   3.420 -1.2360 -0.6577 -0.3729
16783TIP3   OH271839   1.432   4.537   4.356  0.0768  0.0932  0.4337
16783TIP3    H171840   1.387   4.552   4.273 -1.0625  1.1877  1.2131
16783TIP3    H271841   1.427   4.442   4.370  0.8947 -0.1922 -1.0558
16784TIP3   OH271842   5.281   4.080   3.276  0.5521  0.0268 -0.2366
16784TIP3    H171843   5.287   4.002   3.221 -0.2431  1.3062 -2.2786
16784TIP3    H271844   5.189   4.104   3.275  0.8021  1.1029  0.1484
16785TIP3   OH271845   3.632   1.215   4.406  0.3314  0.8583 -0.4351
16785TIP3    H171846   3.675   1.292   4.369  1.8419 -0.8602 -2.4956
16785TIP3    H271847   3.588   1.248   4.485  3.2338  3.2681  0.3780
16786TIP3   OH271848   6.706   2.999  13.763 -0.1678  0.8954  0.1319
16786TIP3    H171849   6.706   3.042  13.677  0.5870 -0.2465 -0.4706
16786TIP3    H271850   6.779   3.040  13.809 -0.5120  1.4426  0.2029
16787TIP3   OH271851   6.255   4.386   6.284 -0.0977 -0.1865 -0.6917
16787TIP3    H171852   6.343   4.348   6.286 -0.3288 -0.7444  1.7230
16787TIP3    H271853   6.203   4.323   6.234  0.2395 -1.4810  0.5164
16788TIP3   OH271854   1.888   2.174   0.542 -0.0194 -0.4899  0.0058
16788TIP3    H171855   1.830   2.110   0.584 -0.9252 -0.1935 -0.7557
16788TIP3    H271856   1.963   2.123   0.514 -0.0458 -0.9472  0.7287
16789TIP3   OH271857   6.252   3.925  14.343 -0.6045  0.5555 -0.6519
16789TIP3    H171858   6.217   3.853  14.396  0.6444  0.0520 -0.4802
16789TIP3    H271859   6.179   3.987  14.336 -1.0279  0.3019  1.0576
16790TIP3   OH271860   4.145   1.089  15.620 -0.4110  0.0445  0.3126
16790TIP3    H171861   4.076   1.150  15.595 -1.3053 -0.7840  0.6919
16790TIP3    H271862   4.106   1.034  15.687  0.1277 -1.4065 -0.5121
16791TIP3   OH271863   2.571   1.986   5.662  0.0012 -0.2326 -0.5353
16791TIP3    H171864   2.577   2.004   5.568  1.0873  1.0749 -0.2644
16791TIP3    H271865   2.651   2.024   5.698 -0.5995 -0.3329  0.9768
16792TIP3   OH271866   4.431   1.224   4.833 -0.3816  0.2975  0.0671
16792TIP3    H171867   4.353   1.279   4.821 -0.2897  0.1663 -1.1662
16792TIP3    H271868   4.500   1.269   4.785  0.0785 -0.1015  0.3461
16793TIP3   OH271869   2.823   5.805  13.541 -0.5921  0.0349 -0.3415
16793TIP3    H171870   2.918   5.811  13.536 -0.3588  1.6388  2.9896
16793TIP3    H271871   2.805   5.711  13.548  1.0818 -0.2303  1.6618
16794TIP3   OH271872   2.863   4.272   2.072  0.1841  0.5880  0.2914
16794TIP3    H171873   2.904   4.193   2.038 -1.7107 -0.2583 -0.1407
16794TIP3    H271874   2.909   4.344   2.028  0.9260 -0.3153 -0.4486
16795TIP3   OH271875   2.701   0.452   4.873 -0.7081  0.4582  0.0545
16795TIP3    H171876   2.618   0.448   4.920 -1.3057 -1.6711 -1.0485
16795TIP3    H271877   2.764   0.485   4.938 -2.0965  0.6143  1.3725
16796TIP3   OH271878   6.707   0.508   5.656  0.2813 -0.3026  0.4713
16796TIP3    H171879   6.797   0.484   5.675  1.0099  1.6649 -0.2016
16796TIP3    H271880   6.662   0.500   5.740  1.6152  0.7960  1.3291
16797TIP3   OH271881   0.604   1.177   6.136  0.0998 -0.1457 -0.0865
16797TIP3    H171882   0.522   1.222   6.155 -1.1792 -2.1372 -0.4844
16797TIP3    H271883   0.671   1.244   6.142 -1.6283  1.7021 -0.3551
16798TIP3   OH271884   0.251   2.138  16.626  0.1350  0.2605 -0.1605
16798TIP3    H171885   0.181   2.123  16.689  0.0922 -0.5177 -0.3780
16798TIP3    H271886   0.273   2.230  16.635  0.1546  0.1508  1.0162
16799TIP3   OH271887   6.450   4.048   0.364  0.0755 -0.8170  0.1438
16799TIP3    H171888   6.485   4.128   0.404  0.1504 -0.9385  0.3211
16799TIP3    H271889   6.355   4.057   0.371 -0.0648  0.5374 -2.2808
16800TIP3   OH271890   5.112   1.236   2.679  0.4431 -0.7476 -0.2238
16800TIP3    H171891   5.023   1.201   2.673  0.6898 -1.4880  0.3172
16800TIP3    H271892   5.100   1.331   2.686 -0.3976 -0.9388  1.4922
16801TIP3   OH271893   3.628   2.324  13.955 -0.1336 -0.2141 -0.0394
16801TIP3    H171894   3.557   2.383  13.978  0.2149  1.2544 -2.3257
16801TIP3    H271895   3.707   2.365  13.992  0.0309  0.4973 -1.1282
16802TIP3   OH271896   5.802   0.463   2.290 -0.2139  0.7992 -0.1887
16802TIP3    H171897   5.865   0.533   2.308 -0.9995  0.9396  2.5330
16802TIP3    H271898   5.717   0.506   2.300 -0.7099 -0.1726 -0.1769
16803TIP3   OH271899   6.058   6.031  10.791  0.3471 -0.2661  0.6892
16803TIP3    H171900   6.055   6.088  10.868  0.2916  1.5214 -0.5786
16803TIP3    H271901   5.966   6.011  10.772  0.2553  0.6793  0.1130
16804TIP3   OH271902   3.600   2.972  17.018 -0.3492 -0.3522  0.9796
16804TIP3    H171903   3.524   2.916  17.000 -0.1945 -0.0598 -0.7342
16804TIP3    H271904   3.564   3.044  17.069 -0.8108 -1.2991  2.0300
16805TIP3   OH271905   2.232   6.743   3.381 -0.1118  0.5068 -0.2362
16805TIP3    H171906   2.320   6.739   3.343  0.0971 -0.1729  0.2922
16805TIP3    H271907   2.174   6.724   3.307  0.2459  0.0660 -0.4138
16806TIP3   OH271908   3.669   6.279   2.041  0.0050 -0.2257  0.0870
16806TIP3    H171909   3.665   6.183   2.045  3.5887 -0.5014  0.6053
16806TIP3    H271910   3.692   6.298   1.950  0.4360  0.0391  0.2484
16807TIP3   OH271911   3.809   6.775  12.331 -0.3847  0.2347  0.3978
16807TIP3    H171912   3.780   6.821  12.252  1.0252 -0.8483 -0.8217
16807TIP3    H271913   3.865   6.838  12.376 -3.4983  1.9540  2.2166
16808TIP3   OH271914   6.327   4.144  17.074  0.4608  0.4017  0.2856
16808TIP3    H171915   6.408   4.134  17.025  1.4797  0.2820  1.9024
16808TIP3    H271916   6.289   4.226  17.043  1.6619  0.9130  0.1256
16809TIP3   OH271917   5.560   3.283  12.179  0.0966 -0.4251 -0.4888
16809TIP3    H171918   5.557   3.289  12.275 -1.1734 -0.4514 -0.5062
16809TIP3    H271919   5.613   3.205  12.162  1.0736  0.0704  0.1598
16810TIP3   OH271920   2.047   3.191  13.445 -0.5075  0.1590  0.3180
16810TIP3    H171921   1.996   3.144  13.378 -0.0460  0.2006 -0.0675
16810TIP3    H271922   2.046   3.282  13.415 -0.9118  0.3057  0.7584
16811TIP3   OH271923   2.375   3.475   5.169  0.2353 -0.1069  0.2263
16811TIP3    H171924   2.388   3.529   5.247  1.4794 -0.0208 -0.0276
16811TIP3    H271925   2.300   3.419   5.191  0.3021  0.2146  1.3159
16812TIP3   OH271926   5.872   1.253  16.025  0.2142  0.3170  0.3094
16812TIP3    H171927   5.877   1.278  15.932  0.3391  1.1895  0.5421
16812TIP3    H271928   5.954   1.207  16.042  0.6080  0.9694  0.2142
16813TIP3   OH271929   2.937   1.134   1.741  0.2589 -0.4192  0.4527
16813TIP3    H171930   2.894   1.069   1.797  1.2335 -1.0648  0.4835
16813TIP3    H271931   3.028   1.135   1.772  0.1597  1.3530  0.7948
16814TIP3   OH271932   6.462   4.438  15.030  0.2355  0.0541  0.4567
16814TIP3    H171933   6.457   4.344  15.013  0.2740  0.2743 -0.8311
16814TIP3    H271934   6.546   4.450  15.075  0.2954 -0.4971  0.4990
16815TIP3   OH271935   4.169   4.808  14.652  0.1550  0.0285  0.7929
16815TIP3    H171936   4.087   4.760  14.642  0.1195  0.2888 -0.2959
16815TIP3    H271937   4.220   4.755  14.714  0.5005 -1.9789 -1.0852
16816TIP3   OH271938   6.681   2.436   3.847 -0.4241  0.5648  0.2299
16816TIP3    H171939   6.618   2.490   3.895 -1.5783 -0.4093 -0.1517
16816TIP3    H271940   6.729   2.498   3.792  0.8294  1.7069  2.4513
16817TIP3   OH271941   1.273   3.580   3.791 -0.0522  0.1692  0.0359
16817TIP3    H171942   1.322   3.501   3.816  0.8080  0.3807 -0.9150
16817TIP3    H271943   1.182   3.550   3.781  0.2155 -0.6472 -0.0270
16818TIP3   OH271944   5.216   1.237  16.366 -0.4276 -0.6701  0.0871
16818TIP3    H171945   5.196   1.220  16.458 -1.0369  2.7358  0.7413
16818TIP3    H271946   5.311   1.235  16.362 -0.3579 -0.1578  0.9956
16819TIP3   OH271947   4.827   1.393  16.691 -0.0686  0.3513 -0.6690
16819TIP3    H171948   4.767   1.318  16.692  0.3350  0.0263  0.2041
16819TIP3    H271949   4.864   1.393  16.603 -1.9164  1.0348 -1.5029
16820TIP3   OH271950   0.639   3.990  12.893  0.1199 -0.4004 -0.0253
16820TIP3    H171951   0.636   3.947  12.808  1.7257  2.1112 -1.4725
16820TIP3    H271952   0.722   3.961  12.931  1.0612  1.0725 -0.8740
16821TIP3   OH271953   4.369   2.916  16.943  0.4719 -0.8596  0.4273
16821TIP3    H171954   4.388   2.830  16.981  0.8925 -0.8881  0.1542
16821TIP3    H271955   4.419   2.918  16.862  0.4795 -0.3446  0.4431
16822TIP3   OH271956   0.124   1.179  15.239 -0.1669  0.1442  0.1036
16822TIP3    H171957   0.098   1.115  15.306  0.1402 -0.1536 -0.0593
16822TIP3    H271958   0.198   1.226  15.277  0.0594 -0.0796 -0.0553
16823TIP3   OH271959   4.399   3.012   0.974 -0.3130  0.4956  0.8565
16823TIP3    H171960   4.468   3.003   1.040  0.8542  1.2080 -0.2302
16823TIP3    H271961   4.391   3.106   0.961  0.6458  0.3485 -1.1668
16824TIP3   OH271962   6.819   4.880  11.075 -0.0230 -0.2438  0.3582
16824TIP3    H171963   6.852   4.814  11.013  0.2328 -0.5607  0.8290
16824TIP3    H271964   6.771   4.942  11.020 -1.8327 -1.7968  0.0942
16825TIP3   OH271965   0.619   1.239  17.183 -0.6319 -0.3220 -0.0492
16825TIP3    H171966   0.610   1.332  17.162 -1.0171 -0.3825 -0.1600
16825TIP3    H271967   0.615   1.194  17.098 -0.3596 -0.4343 -0.0036
16826TIP3   OH271968   5.897   3.459  16.305  0.4610  0.1423 -0.0845
16826TIP3    H171969   5.949   3.507  16.241  0.8899  1.8680  1.4655
16826TIP3    H271970   5.883   3.522  16.376 -0.6879 -1.4322  1.1565
16827TIP3   OH271971   3.267   2.099   4.162  0.5030 -0.9622 -0.1655
16827TIP3    H171972   3.354   2.134   4.143  0.0677  0.1093 -0.2217
16827TIP3    H271973   3.232   2.158   4.229 -0.2456 -1.2883 -0.2647
16828TIP3   OH271974   3.599   4.255   6.598 -0.2349 -0.0955  0.0469
16828TIP3    H171975   3.632   4.169   6.571 -0.7796  0.1705 -1.5876
16828TIP3    H271976   3.677   4.305   6.620  0.0761 -1.0574  1.2531
16829TIP3   OH271977   6.120   3.712   1.060  0.4282 -0.5198  0.1358
16829TIP3    H171978   6.104   3.630   1.013  0.9334 -0.0717 -0.8475
16829TIP3    H271979   6.170   3.687   1.137 -0.6211 -1.3035  0.5829
16830TIP3   OH271980   1.339   0.075   2.932 -0.2575  0.4350  0.5284
16830TIP3    H171981   1.378   0.158   2.961 -0.7897  0.3713  1.4646
16830TIP3    H271982   1.324   0.087   2.838 -0.3764  1.4239  0.6608
16831TIP3   OH271983   6.444   1.554   1.955 -0.2963 -0.1712 -0.1629
16831TIP3    H171984   6.532   1.592   1.962  0.0770 -0.8006 -1.3468
16831TIP3    H271985   6.398   1.611   1.893 -1.3684  1.2576  1.7929
16832TIP3   OH271986   2.584   4.902   3.862 -0.0225  0.0738 -0.0332
16832TIP3    H171987   2.588   4.934   3.952 -0.0422  0.6873 -0.2460
16832TIP3    H271988   2.545   4.974   3.812 -0.1660 -0.3231 -0.5054
16833TIP3   OH271989   3.752   2.225  15.044  0.6480 -0.8256 -0.6709
16833TIP3    H171990   3.674   2.206  15.095  1.4250 -0.1706  0.8240
16833TIP3    H271991   3.825   2.206  15.103  1.6250 -1.0636 -1.8938
16834TIP3   OH271992   0.339   5.724   2.801 -0.3501  0.0325 -0.1343
16834TIP3    H171993   0.307   5.651   2.855  0.0490 -1.0240 -1.2612
16834TIP3    H271994   0.273   5.734   2.733 -0.6142  1.0460  0.2486
16835TIP3   OH271995   4.462   5.432   0.197  0.4433  0.1836  0.4215
16835TIP3    H171996   4.371   5.448   0.171 -0.1392 -1.1912  1.4872
16835TIP3    H271997   4.485   5.506   0.252  0.0580  0.6571 -0.0395
16836TIP3   OH271998   1.064   1.560   1.054 -0.1697 -0.6159 -0.0125
16836TIP3    H171999   1.068   1.585   0.962 -2.5111 -0.2284 -0.0739
16836TIP3    H272000   1.059   1.643   1.101  1.0562 -0.8081  0.5133
16837TIP3   OH272001   5.778   1.097  14.114  0.5967  0.1363  0.1478
16837TIP3    H172002   5.765   1.084  14.020 -0.6467 -0.4239  0.3733
16837TIP3    H272003   5.869   1.073  14.130  0.7716  0.0887 -0.8841
16838TIP3   OH272004   1.484   1.377   1.802 -0.5546 -0.3947 -0.3718
16838TIP3    H172005   1.430   1.298   1.799 -1.8176  0.4711 -3.1583
16838TIP3    H272006   1.435   1.442   1.752  0.8314  1.9510  1.1313
16839TIP3   OH272007   4.471   5.849   5.144  0.3807  0.1377  0.0203
16839TIP3    H172008   4.501   5.931   5.183  1.1331 -0.1642  0.1022
16839TIP3    H272009   4.430   5.801   5.217  2.9419 -0.9950  0.8674
16840TIP3   OH272010   3.833   6.595   3.814  0.6854 -0.4039  1.3163
16840TIP3    H172011   3.906   6.585   3.754  1.7426  1.5001  2.1770
16840TIP3    H272012   3.759   6.555   3.769  1.6782 -0.0650 -0.7472
16841TIP3   OH272013   1.086   3.652  10.915  0.2954 -0.0692 -0.3979
16841TIP3    H172014   1.083   3.560  10.889  0.9055  0.0228 -0.8300
16841TIP3    H272015   1.157   3.689  10.862 -0.3866  0.8044 -0.7293
16842TIP3   OH272016   1.226   4.161  16.560 -0.1899  0.5068 -0.0074
16842TIP3    H172017   1.251   4.097  16.627  1.2763 -0.6915 -1.6013
16842TIP3    H272018   1.131   4.151  16.552 -0.1750 -0.4583  0.7577
16843TIP3   OH272019   0.173   5.716   5.447  0.3278 -0.1038 -0.0151
16843TIP3    H172020   0.087   5.729   5.409  0.2472 -0.3400  0.0876
16843TIP3    H272021   0.167   5.633   5.494  0.1309  0.6288  1.3072
16844TIP3   OH272022   0.957   0.387   2.112 -0.2443  0.4404 -0.3453
16844TIP3    H172023   1.012   0.463   2.091  0.2885 -0.4823 -2.5981
16844TIP3    H272024   1.003   0.313   2.073 -1.3000 -0.9079  0.8631
16845TIP3   OH272025   3.569   2.945  15.397 -1.0322  0.4583 -0.2306
16845TIP3    H172026   3.509   2.912  15.463 -0.9855  0.5794 -0.1268
16845TIP3    H272027   3.544   3.037  15.386 -0.2466  0.7777  0.5235
16846TIP3   OH272028   6.426   0.697  12.316 -0.0833  0.2373  0.3350
16846TIP3    H172029   6.390   0.784  12.300  1.5321  1.0552  0.8820
16846TIP3    H272030   6.474   0.706  12.399  1.0985 -0.8349 -0.1950
16847TIP3   OH272031   5.810   1.857  15.798  0.4658 -0.4433 -0.4515
16847TIP3    H172032   5.824   1.899  15.713  1.0924 -0.6664 -0.4602
16847TIP3    H272033   5.854   1.914  15.861 -1.8700  0.9344  0.0450
16848TIP3   OH272034   2.937   5.117  15.329  0.6021 -0.5981  0.4250
16848TIP3    H172035   2.987   5.067  15.264 -1.3124 -0.5117 -1.2251
16848TIP3    H272036   2.849   5.124  15.291 -0.4937 -0.1160  2.8367
16849TIP3   OH272037   0.251   2.424  16.598 -0.2160 -0.2379 -0.0677
16849TIP3    H172038   0.243   2.519  16.608  1.2179 -0.2585  1.9665
16849TIP3    H272039   0.332   2.412  16.548 -0.7905 -0.3983 -0.9800
16850TIP3   OH272040   1.236   5.699   3.505  0.0269 -0.3534  0.0116
16850TIP3    H172041   1.159   5.703   3.561 -0.6474 -1.5938 -0.7651
16850TIP3    H272042   1.215   5.753   3.429  0.1312 -0.2642  0.0464
16851TIP3   OH272043   4.110   2.581  16.021  0.1856 -0.4841 -0.6098
16851TIP3    H172044   4.101   2.652  15.957 -2.5509 -1.8908 -1.9705
16851TIP3    H272045   4.072   2.617  16.101  1.0518  0.3626 -0.5568
16852TIP3   OH272046   1.207   5.378  12.315  0.0788  0.2358  0.5543
16852TIP3    H172047   1.166   5.446  12.367  0.2885 -0.8133  2.1528
16852TIP3    H272048   1.291   5.414  12.289 -0.8762  1.5650 -0.8998
16853TIP3   OH272049   6.557   1.548   4.375  0.7005 -0.1040 -0.2383
16853TIP3    H172050   6.466   1.566   4.402 -0.2293 -1.9499 -1.9102
16853TIP3    H272051   6.587   1.630   4.337 -0.6292  0.2458 -0.5937
16854TIP3   OH272052   0.412   4.430   0.888 -0.0439 -0.5659 -0.1322
16854TIP3    H172053   0.446   4.411   0.801 -0.7797  0.0625 -0.5664
16854TIP3    H272054   0.430   4.350   0.939 -2.0253 -2.0547 -1.5832
16855TIP3   OH272055   3.128   4.308   4.779 -0.1876 -0.1273  0.2580
16855TIP3    H172056   3.175   4.236   4.738  0.5109  0.0505  0.7249
16855TIP3    H272057   3.154   4.385   4.728 -1.8768 -0.3475 -1.0107
16856TIP3   OH272058   5.813   6.252   1.104 -0.3729  0.5337 -0.4833
16856TIP3    H172059   5.871   6.229   1.032  0.1441  0.6793 -0.1217
16856TIP3    H272060   5.871   6.255   1.181 -1.1428 -1.0201  0.2103
16857TIP3   OH272061   5.047   0.744   4.411 -0.5047 -0.2537  0.2320
16857TIP3    H172062   5.099   0.819   4.383 -0.3202 -0.9921 -1.5119
16857TIP3    H272063   5.106   0.669   4.402 -1.2379 -0.8373  0.1839
16858TIP3   OH272064   1.336   3.086  11.404  0.4037  0.6305 -0.3388
16858TIP3    H172065   1.431   3.091  11.415  0.5465 -1.4460 -0.3039
16858TIP3    H272066   1.304   3.055  11.488 -0.1910  0.2874 -0.6882
16859TIP3   OH272067   2.395   4.263   1.647 -0.1160 -0.3065  0.1248
16859TIP3    H172068   2.317   4.318   1.654  0.3211  0.1718  1.4847
16859TIP3    H272069   2.466   4.317   1.679  0.7517 -0.8367 -0.8308
16860TIP3   OH272070   1.252   6.207  17.096  0.0215 -0.4439 -0.3154
16860TIP3    H172071   1.346   6.200  17.081  0.5245  2.8614  0.5329
16860TIP3    H272072   1.218   6.250  17.017 -0.7266 -1.1557 -0.4016
16861TIP3   OH272073   2.902   3.105  15.646 -0.0548  0.3146  0.5541
16861TIP3    H172074   2.851   3.025  15.655 -1.2651  1.1422  1.4321
16861TIP3    H272075   2.871   3.145  15.564 -0.5410  0.6057  0.8723
16862TIP3   OH272076   5.193   2.505   2.798 -0.2220  0.1449 -0.0809
16862TIP3    H172077   5.158   2.458   2.874 -1.4554  0.2894 -0.5398
16862TIP3    H272078   5.288   2.497   2.807 -0.1933  2.1460  2.7486
16863TIP3   OH272079   6.251   5.249  12.668 -0.3351  0.0764  0.8419
16863TIP3    H172080   6.318   5.214  12.727 -0.9391 -0.2031  1.3757
16863TIP3    H272081   6.224   5.331  12.709 -0.9752 -0.2683  1.1239
16864TIP3   OH272082   1.872   3.432   3.566  0.2426  0.0269 -0.4555
16864TIP3    H172083   1.964   3.454   3.551  0.3791 -0.6163 -0.5834
16864TIP3    H272084   1.852   3.364   3.501  0.5462 -2.0798  1.5248
16865TIP3   OH272085   2.676   1.004  16.558  0.1899  0.1218 -0.1501
16865TIP3    H172086   2.684   0.930  16.498  0.9482  0.8294 -0.9427
16865TIP3    H272087   2.766   1.033  16.574 -0.1688  2.5458 -2.0113
16866TIP3   OH272088   0.393   1.353   5.286  0.4781  0.1740 -0.4309
16866TIP3    H172089   0.451   1.421   5.249  0.9861 -0.4732 -0.8412
16866TIP3    H272090   0.450   1.277   5.298 -0.3695 -0.5967 -1.1859
16867TIP3   OH272091   6.494   0.761   4.565  0.3778  0.2177  0.2596
16867TIP3    H172092   6.412   0.750   4.613  1.1016  0.2353  1.5409
16867TIP3    H272093   6.538   0.833   4.610  1.8197 -0.8529  0.6067
16868TIP3   OH272094   2.106   3.064  16.418  0.3945  0.2140 -0.0770
16868TIP3    H172095   2.015   3.058  16.389  0.3970 -0.8395  0.1071
16868TIP3    H272096   2.155   3.085  16.338 -0.0082  0.8141 -0.1681
16869TIP3   OH272097   0.124   5.596   5.028  0.2401  0.3002  0.4408
16869TIP3    H172098   0.156   5.535   4.962  2.3706  0.1015  1.5439
16869TIP3    H272099   0.124   5.681   4.984  1.9065  0.2197  0.2029
16870TIP3   OH272100   4.573   2.666   4.239  0.0195  0.2425  0.0486
16870TIP3    H172101   4.489   2.711   4.237 -0.4871 -0.7203 -1.4210
16870TIP3    H272102   4.638   2.737   4.236 -0.7614  0.9418 -1.7337
16871TIP3   OH272103   0.581   3.728  13.433 -0.2718  0.1093  0.1206
16871TIP3    H172104   0.492   3.709  13.402 -0.0736  1.9598 -1.8340
16871TIP3    H272105   0.589   3.823  13.425  1.9196 -0.0142  0.1900
16872TIP3   OH272106   0.789   0.017  16.502 -0.2397  0.0192 -0.5403
16872TIP3    H172107   0.862  -0.043  16.512 -1.4940 -1.4049  0.5219
16872TIP3    H272108   0.767   0.013  16.409  1.0352  0.5041 -0.8788
16873TIP3   OH272109   4.664   0.129   3.867  0.0652 -0.1665  0.1900
16873TIP3    H172110   4.580   0.170   3.889  0.5963  1.4912 -0.7734
16873TIP3    H272111   4.640   0.039   3.843 -1.3142  0.0119  0.7682
16874TIP3   OH272112   3.516   0.684   4.055  0.7717 -0.0493  0.0365
16874TIP3    H172113   3.598   0.734   4.055  1.3905 -1.0293  0.5402
16874TIP3    H272114   3.497   0.670   4.148  1.3899 -1.9650 -0.0937
16875TIP3   OH272115   0.853   5.479  15.256  0.1357  0.2639  0.1730
16875TIP3    H172116   0.836   5.391  15.289 -0.6670 -0.3685 -1.7747
16875TIP3    H272117   0.917   5.466  15.186  0.1462  1.2471 -0.0141
16876TIP3   OH272118   3.824   1.185  11.008 -0.3932  0.0593 -0.2483
16876TIP3    H172119   3.890   1.254  10.996 -0.6330  0.2977 -0.2046
16876TIP3    H272120   3.825   1.137  10.925  0.7873 -0.7778  0.2211
16877TIP3   OH272121   0.130   2.391  14.618 -0.2975  0.1483  0.2477
16877TIP3    H172122   0.056   2.338  14.649 -0.4563  0.8830  1.2055
16877TIP3    H272123   0.102   2.481  14.634  0.2439  0.4897 -0.7069
16878TIP3   OH272124   4.419   1.389  13.125  0.1115 -0.0703  0.1608
16878TIP3    H172125   4.492   1.336  13.156  0.4719 -0.2830 -1.0106
16878TIP3    H272126   4.348   1.370  13.186  0.4313 -1.3875  0.1518
16879TIP3   OH272127   4.030   5.283   1.266  0.4492 -0.1472 -0.0250
16879TIP3    H172128   3.965   5.215   1.249 -0.7647  1.1619 -0.8701
16879TIP3    H272129   4.109   5.252   1.223 -0.4345 -0.4717 -1.4976
16880TIP3   OH272130   5.141   4.198   2.122  0.2341 -0.2680 -0.4960
16880TIP3    H172131   5.155   4.104   2.129  1.5670 -0.1198 -0.8519
16880TIP3    H272132   5.052   4.206   2.088 -0.3239 -1.3518  0.6353
16881TIP3   OH272133   5.628   4.471   1.115 -0.5276  0.6380 -0.0916
16881TIP3    H172134   5.604   4.383   1.084 -1.6652  0.4853  1.1129
16881TIP3    H272135   5.682   4.507   1.045 -0.6885 -0.7232 -0.9658
16882TIP3   OH272136   3.017   3.128  13.279  0.7050  0.5887  0.1698
16882TIP3    H172137   2.960   3.132  13.356 -0.1637 -0.5884 -0.3784
16882TIP3    H272138   2.996   3.043  13.239  2.3915  0.4170 -0.4072
16883TIP3   OH272139   6.258   3.872   2.331 -0.0081  0.2399 -0.0569
16883TIP3    H172140   6.311   3.952   2.328 -0.8539  0.8258  0.3892
16883TIP3    H272141   6.175   3.899   2.368 -0.8002 -0.5832 -1.1487
16884TIP3   OH272142   5.808   4.505   1.795  0.2718  0.3776 -0.2875
16884TIP3    H172143   5.811   4.417   1.758  0.6231  0.7895 -1.2574
16884TIP3    H272144   5.785   4.491   1.887  0.2637 -0.7189 -0.4419
16885TIP3   OH272145   5.487   0.626  12.269  0.1417 -0.6369 -0.2310
16885TIP3    H172146   5.510   0.580  12.351  0.7284 -1.7911 -1.0127
16885TIP3    H272147   5.509   0.717  12.286 -0.6974 -0.6812  1.2497
16886TIP3   OH272148   5.740   6.379   5.602  0.1981 -0.1897  0.1358
16886TIP3    H172149   5.824   6.392   5.556 -0.4421 -0.4592 -1.1460
16886TIP3    H272150   5.741   6.444   5.672  0.2950  1.7550 -1.5742
16887TIP3   OH272151   2.310   2.462  16.019  0.7778 -0.5087 -0.0074
16887TIP3    H172152   2.371   2.389  16.031  0.9279 -0.2035  1.1928
16887TIP3    H272153   2.361   2.529  15.975  1.2443 -0.3508  0.7642
16888TIP3   OH272154   6.557   1.605  15.434 -0.5505 -0.0687 -0.5260
16888TIP3    H172155   6.466   1.580  15.425 -1.6277  2.5852  1.6196
16888TIP3    H272156   6.586   1.564  15.515 -2.1569  4.3760  2.6914
16889TIP3   OH272157   6.585   3.855  12.922 -0.1333  0.7308 -0.5473
16889TIP3    H172158   6.513   3.797  12.895  0.1234  1.0479 -2.0058
16889TIP3    H272159   6.620   3.814  13.001  0.4679 -1.4788 -1.8708
16890TIP3   OH272160   2.178   5.268   2.473  0.0715  0.0733 -0.7187
16890TIP3    H172161   2.142   5.350   2.507  0.9404  0.3052 -0.3440
16890TIP3    H272162   2.224   5.293   2.393  2.4924  0.4106  0.6803
16891TIP3   OH272163   2.026   0.676   2.506  0.1868  0.7812 -0.1123
16891TIP3    H172164   2.050   0.649   2.595 -0.1972 -0.6174 -0.4122
16891TIP3    H272165   2.104   0.657   2.454  0.5940  2.0767 -0.0056
16892TIP3   OH272166   3.839   6.492  12.316  0.1152  0.6603 -0.2662
16892TIP3    H172167   3.848   6.582  12.285 -0.8741  0.6925 -0.4887
16892TIP3    H272168   3.881   6.492  12.402  1.6512  0.9084 -0.9832
16893TIP3   OH272169   5.003   2.354  16.047  0.4773  0.3010  0.1117
16893TIP3    H172170   4.987   2.299  16.123  0.7776  0.7952  0.5422
16893TIP3    H272171   4.947   2.317  15.978 -1.2725  0.9666  1.0936
16894TIP3   OH272172   2.586   3.416   2.771  0.5425 -0.1702 -0.1517
16894TIP3    H172173   2.641   3.488   2.802 -0.5997  0.6164  0.1203
16894TIP3    H272174   2.542   3.385   2.850  0.5443 -0.7477 -0.3758
16895TIP3   OH272175   1.488   1.511   0.167  0.3251 -0.3276  0.6330
16895TIP3    H172176   1.496   1.554   0.082  1.3613  1.2130  1.4732
16895TIP3    H272177   1.405   1.462   0.161 -0.6507  1.3529 -0.5619
16896TIP3   OH272178   5.853   3.092   3.402  0.2795  0.1191 -0.1541
16896TIP3    H172179   5.857   2.997   3.412  0.3915 -0.1976 -2.6752
16896TIP3    H272180   5.916   3.125   3.467  0.3502 -1.4974  0.6544
16897TIP3   OH272181   5.014   1.981   3.827  0.2680 -0.1808 -0.3109
16897TIP3    H172182   5.058   2.065   3.814 -1.4004  0.6123 -1.1453
16897TIP3    H272183   5.070   1.934   3.889  2.5964  0.4835 -1.7965
16898TIP3   OH272184   6.716   2.808   1.753 -0.3959  0.0700  0.1157
16898TIP3    H172185   6.720   2.820   1.658 -0.2332  0.8165  0.2122
16898TIP3    H272186   6.770   2.878   1.789 -2.6855  1.5834  0.8516
16899TIP3   OH272187   6.365   0.957  12.109 -0.0459 -0.2275 -0.4403
16899TIP3    H172188   6.401   0.933  12.024  0.2638  0.1042 -0.4065
16899TIP3    H272189   6.271   0.939  12.101 -0.0573  0.0259 -0.9362
16900TIP3   OH272190   4.023   2.542  15.521  0.0014 -0.4106  0.5003
16900TIP3    H172191   4.086   2.601  15.480 -1.6946  0.6953 -0.6231
16900TIP3    H272192   3.955   2.530  15.455 -0.8783 -1.7512  1.5970
16901TIP3   OH272193   1.647   2.589   0.165 -0.4355 -0.1700  0.5781
16901TIP3    H172194   1.725   2.644   0.158 -0.7244  0.1393 -0.3777
16901TIP3    H272195   1.677   2.510   0.210  0.0013  0.7349  1.9190
16902TIP3   OH272196   3.986   5.976   6.049  0.2991  0.1010  0.4031
16902TIP3    H172197   4.026   5.901   6.092 -0.3119 -0.5229 -0.0813
16902TIP3    H272198   3.905   5.941   6.011  0.0133  1.0021  0.1593
16903TIP3   OH272199   3.268   0.128   3.362 -0.3315 -0.7286 -0.5285
16903TIP3    H172200   3.190   0.162   3.319 -0.4289  0.6700  0.6797
16903TIP3    H272201   3.256   0.148   3.455  1.0527 -1.3040 -0.1888
16904TIP3   OH272202   1.834   5.266  10.358 -0.7156  0.3821  0.6645
16904TIP3    H172203   1.764   5.329  10.375 -0.2328  0.8808  0.8397
16904TIP3    H272204   1.915   5.314  10.377 -0.1615  0.6930 -2.0713
16905TIP3   OH272205   4.773   1.061  15.310  0.0677 -0.6421 -0.2069
16905TIP3    H172206   4.724   0.992  15.355  0.1410 -1.1961 -0.9731
16905TIP3    H272207   4.863   1.052  15.341  0.4032 -1.8919 -1.4525
16906TIP3   OH272208   0.263   2.272  12.700  0.1098 -0.1617  0.3263
16906TIP3    H172209   0.217   2.246  12.780 -0.5618 -1.3128 -0.4007
16906TIP3    H272210   0.320   2.198  12.680 -0.0642 -0.0885 -0.4956
16907TIP3   OH272211   3.296   6.301  12.578 -0.1009  0.2125 -0.0900
16907TIP3    H172212   3.290   6.206  12.565 -0.4757  0.3484 -1.0696
16907TIP3    H272213   3.386   6.317  12.606 -0.3397 -0.5351  1.1707
16908TIP3   OH272214   0.188   3.195   5.093  0.5110  0.7622 -0.1979
16908TIP3    H172215   0.100   3.173   5.124  2.0734 -0.9705  3.5908
16908TIP3    H272216   0.197   3.288   5.111  0.4336  0.3276  2.6270
16909TIP3   OH272217   2.954   4.814   3.593 -0.0170 -0.2146  0.0237
16909TIP3    H172218   2.966   4.825   3.687 -2.4880 -0.3266  0.4282
16909TIP3    H272219   2.859   4.805   3.582  0.3425 -2.3676 -2.2511
16910TIP3   OH272220   0.849   0.565   0.011 -0.5099  0.4329  0.2853
16910TIP3    H172221   0.783   0.588   0.077  0.1754  0.1047  1.0979
16910TIP3    H272222   0.798   0.536  -0.065 -1.2980  0.0851  0.9344
16911TIP3   OH272223   2.374   0.334  17.095  0.5206 -0.2861 -0.5825
16911TIP3    H172224   2.407   0.245  17.082  0.6308 -0.2491 -0.5568
16911TIP3    H272225   2.338   0.334  17.184  1.0017 -0.1559 -0.3846
16912TIP3   OH272226   1.510   1.497   0.860 -0.0337  0.2650  0.0966
16912TIP3    H172227   1.470   1.577   0.894 -0.1828 -0.4594  1.7110
16912TIP3    H272228   1.600   1.500   0.891  0.8315  1.1657 -2.2810
16913TIP3   OH272229   3.691   4.422   4.836 -0.5135 -0.0070 -0.2004
16913TIP3    H172230   3.778   4.444   4.802 -0.5714  1.2134  0.4032
16913TIP3    H272231   3.675   4.486   4.905 -0.1245 -2.7504  2.6332
16914TIP3   OH272232   5.207   4.490  16.453  0.3484  0.0699  0.1703
16914TIP3    H172233   5.265   4.539  16.395 -0.3094  1.4024  0.5931
16914TIP3    H272234   5.260   4.418  16.485  0.8755 -0.4343 -1.6943
16915TIP3   OH272235   4.740   3.569  15.585 -0.0023  0.6419  0.1965
16915TIP3    H172236   4.675   3.614  15.639 -0.2992 -0.7370  1.0372
16915TIP3    H272237   4.795   3.639  15.550 -1.4843  1.7824  0.0632
16916TIP3   OH272238   0.965   0.476  15.967 -0.2039 -0.3589 -0.0576
16916TIP3    H172239   0.926   0.458  15.882  0.1896  0.4554 -0.4184
16916TIP3    H272240   1.059   0.481  15.950 -0.1933  0.7106  0.2575
16917TIP3   OH272241   3.786   1.368   3.512 -0.6903  0.3520 -0.4911
16917TIP3    H172242   3.788   1.460   3.485  1.9565  0.4708 -0.0938
16917TIP3    H272243   3.701   1.336   3.480 -0.8245  2.3893 -2.4402
16918TIP3   OH272244   4.364   1.017  15.026 -0.5320 -0.4323  0.9077
16918TIP3    H172245   4.423   1.062  14.965 -1.1204 -0.8971 -0.0398
16918TIP3    H272246   4.368   1.068  15.106  3.0456 -1.7916  1.7787
16919TIP3   OH272247   5.002   5.728  10.793  0.2079  0.1459 -0.2589
16919TIP3    H172248   4.979   5.821  10.787 -0.6664 -0.1138 -1.2139
16919TIP3    H272249   4.924   5.686  10.828  0.9771 -0.1028  1.2210
16920TIP3   OH272250   5.474   0.825  13.041  0.0939  0.1547  0.0496
16920TIP3    H172251   5.470   0.807  13.134 -0.0208 -1.3609 -0.2258
16920TIP3    H272252   5.461   0.740  12.999 -1.6103  1.0549 -1.3806
16921TIP3   OH272253   3.229   5.729  15.790 -0.1113 -0.3244 -0.6531
16921TIP3    H172254   3.155   5.738  15.850  0.7128 -0.4440  0.4135
16921TIP3    H272255   3.284   5.662  15.830  0.8018  0.0928 -1.1856
16922TIP3   OH272256   1.484   2.868  16.832 -0.9945 -0.0642 -0.6926
16922TIP3    H172257   1.558   2.831  16.784  0.6732 -0.1008  1.7214
16922TIP3    H272258   1.459   2.946  16.783  1.4405  0.6012 -0.9704
16923TIP3   OH272259   4.804   1.094  16.431 -0.1005 -0.0140 -0.5269
16923TIP3    H172260   4.807   1.188  16.412 -0.8574 -0.1393 -1.3357
16923TIP3    H272261   4.711   1.075  16.447 -0.2385 -0.9455 -2.2048
16924TIP3   OH272262   5.322   6.790  15.383  0.1187  0.3750 -0.5498
16924TIP3    H172263   5.413   6.762  15.396  0.8517  2.7215 -0.0830
16924TIP3    H272264   5.290   6.735  15.312  2.7948  1.2035 -2.5805
16925TIP3   OH272265   3.542   3.525   5.045 -0.4794 -0.0764 -0.4366
16925TIP3    H172266   3.520   3.510   5.137  0.3325  3.1769  0.4165
16925TIP3    H272267   3.638   3.522   5.043 -0.4186  1.5268 -0.7931
16926TIP3   OH272268   2.799   5.157   3.250  0.4171  0.4115  0.1304
16926TIP3    H172269   2.805   5.247   3.284 -0.1633  1.0662 -1.4188
16926TIP3    H272270   2.886   5.141   3.212  0.3004  0.5780 -0.2075
16927TIP3   OH272271   0.813   0.127  15.384 -0.2925  0.3071 -0.2350
16927TIP3    H172272   0.890   0.107  15.438  0.3118 -0.1649 -1.2345
16927TIP3    H272273   0.849   0.146  15.298 -1.3145 -0.1426 -0.7825
16928TIP3   OH272274   3.718   5.260  13.658 -0.6327 -0.0840  0.4093
16928TIP3    H172275   3.679   5.343  13.687 -0.2572  0.1635  0.2087
16928TIP3    H272276   3.788   5.243  13.720 -1.6878 -1.0567  1.3912
16929TIP3   OH272277   5.547   5.666   4.192 -0.1855 -0.3405 -0.3715
16929TIP3    H172278   5.481   5.716   4.144 -0.1563  1.6934  1.5535
16929TIP3    H272279   5.517   5.668   4.283  2.8312  1.3091  0.7065
16930TIP3   OH272280   4.812   2.007  13.983 -0.8477 -0.5762 -0.4976
16930TIP3    H172281   4.890   1.951  13.984  1.8760  2.8360 -1.4706
16930TIP3    H272282   4.779   2.004  14.073  1.5006 -0.7896  0.4318
16931TIP3   OH272283   4.914   1.077  13.515  0.3991 -0.3485  0.6359
16931TIP3    H172284   4.980   1.053  13.451  0.4407 -1.1965  0.9796
16931TIP3    H272285   4.834   1.035  13.484 -0.2944  1.6361 -0.4187
16932TIP3   OH272286   1.115   3.943   1.368  0.3151 -0.1307  0.1853
16932TIP3    H172287   1.184   3.955   1.433  1.1158  2.6733 -0.9999
16932TIP3    H272288   1.036   3.927   1.419  1.1791  0.4467  1.7745
16933TIP3   OH272289   0.830   6.412   5.854 -0.1650 -0.6213  0.1449
16933TIP3    H172290   0.876   6.383   5.932  2.2090  2.3197 -0.0001
16933TIP3    H272291   0.768   6.477   5.885  0.8781  0.6552 -0.3327
16934TIP3   OH272292   5.440   3.425  16.632  0.4349 -0.2162 -0.2149
16934TIP3    H172293   5.415   3.487  16.563 -0.2920  0.2843  0.4909
16934TIP3    H272294   5.534   3.414  16.620  0.3528 -0.0149 -1.1876
16935TIP3   OH272295   3.722   0.897   2.057  0.0485  0.5170 -0.0138
16935TIP3    H172296   3.631   0.891   2.085  0.3167  0.3522  0.8454
16935TIP3    H272297   3.759   0.969   2.107  0.0647  1.4412 -1.3164
16936TIP3   OH272298   5.918   0.683   0.057  0.4685  0.2804 -1.1974
16936TIP3    H172299   5.843   0.627   0.035  1.1855 -0.3444 -2.1396
16936TIP3    H272300   5.937   0.662   0.149 -1.0510  1.1197 -0.6439
16937TIP3   OH272301   6.694   4.420   1.044  0.6706 -0.0305  0.0463
16937TIP3    H172302   6.613   4.371   1.060  0.0890  0.7385 -0.4794
16937TIP3    H272303   6.757   4.353   1.017 -0.2204 -0.4739 -1.0539
16938TIP3   OH272304   6.650   0.419   0.759  0.0110  0.3055 -0.0537
16938TIP3    H172305   6.691   0.336   0.732  0.5534  0.7408 -0.5733
16938TIP3    H272306   6.582   0.392   0.821 -1.0926 -0.6968 -1.6328
16939TIP3   OH272307   1.281   2.588  11.839 -0.2481  0.3641 -0.1147
16939TIP3    H172308   1.229   2.587  11.759 -0.7778  0.7770  0.2225
16939TIP3    H272309   1.370   2.608  11.809  0.3778 -3.0850 -1.0502
16940TIP3   OH272310   5.171   5.443   2.267  0.1090  0.5031  0.2190
16940TIP3    H172311   5.255   5.397   2.270 -0.7516 -1.1024  0.6193
16940TIP3    H272312   5.122   5.401   2.197 -0.2428  1.6701 -0.2560
16941TIP3   OH272313   6.007   6.603  15.023 -0.2685  0.4553 -0.3803
16941TIP3    H172314   6.054   6.537  15.074 -2.2800 -2.0097 -1.5208
16941TIP3    H272315   5.985   6.559  14.941 -0.1282  3.1896 -2.0274
16942TIP3   OH272316   3.790   4.823  13.194 -0.5193 -0.0600  0.5743
16942TIP3    H172317   3.857   4.801  13.129 -0.5711  0.4597  0.3441
16942TIP3    H272318   3.721   4.866  13.144 -0.6952  0.0708  0.9287
16943TIP3   OH272319   6.147   6.796  15.558  0.2609 -0.1389  0.5705
16943TIP3    H172320   6.184   6.884  15.547  0.3294 -0.3320 -0.8956
16943TIP3    H272321   6.057   6.811  15.588  0.0405  0.4581 -0.3656
16944TIP3   OH272322   4.535   4.804  14.869 -0.0041  0.2391 -0.2047
16944TIP3    H172323   4.459   4.779  14.816 -0.0407 -1.4983  0.5839
16944TIP3    H272324   4.611   4.787  14.813 -0.1461  1.3606 -0.7637
16945TIP3   OH272325   4.851   5.670  16.466  0.4518  0.2249  0.1955
16945TIP3    H172326   4.844   5.735  16.536 -2.7114 -0.7120  0.8846
16945TIP3    H272327   4.777   5.688  16.409  0.9526 -1.2577 -0.9771
16946TIP3   OH272328   3.692   2.811  15.700  0.1791  0.0742  0.0992
16946TIP3    H172329   3.743   2.737  15.733 -0.1099  0.1397  0.7032
16946TIP3    H272330   3.749   2.853  15.636  0.7702 -0.0241  0.5527
16947TIP3   OH272331   2.986   3.911   1.252  0.3805  0.2070  0.0108
16947TIP3    H172332   2.991   4.006   1.248 -0.5710  0.2986  0.6102
16947TIP3    H272333   2.937   3.893   1.332  0.9308 -0.8018  0.1338
16948TIP3   OH272334   2.569   1.457  13.667 -0.3546 -0.0135 -0.2182
16948TIP3    H172335   2.641   1.514  13.695 -2.4243  2.0247  1.2369
16948TIP3    H272336   2.609   1.399  13.602  2.9928 -0.1739  1.7725
16949TIP3   OH272337   5.111   2.495  17.125  0.5405 -0.0698 -0.3994
16949TIP3    H172338   5.162   2.431  17.076  1.1848 -1.5699  2.0777
16949TIP3    H272339   5.023   2.458  17.129  0.2149  0.5752 -1.2822
16950TIP3   OH272340   6.172   2.620   3.333 -0.1833 -0.2821  0.5191
16950TIP3    H172341   6.178   2.558   3.261  0.7732 -1.3323  1.4429
16950TIP3    H272342   6.248   2.598   3.389 -0.9115  0.4485  1.8447
16951TIP3   OH272343   6.695   4.068  14.663 -0.1068 -0.2446  0.0534
16951TIP3    H172344   6.682   4.158  14.635 -0.5193 -0.6241 -1.0540
16951TIP3    H272345   6.609   4.026  14.651  0.1417 -0.8461  0.3155
16952TIP3   OH272346   0.551   4.583  15.756 -0.2490 -0.1675 -0.6541
16952TIP3    H172347   0.471   4.542  15.723 -0.3383 -0.5577  0.0537
16952TIP3    H272348   0.622   4.526  15.726 -0.4106 -1.2029  0.8433
16953TIP3   OH272349   0.255   0.420   5.342  0.1489 -0.4155  0.1436
16953TIP3    H172350   0.249   0.497   5.286  0.9361  0.2380  0.9323
16953TIP3    H272351   0.195   0.438   5.414  1.4625  0.1800  1.1302
16954TIP3   OH272352   4.222   5.434   3.077  0.4933 -0.0986 -0.0346
16954TIP3    H172353   4.201   5.342   3.057 -0.5635 -0.0993  0.9868
16954TIP3    H272354   4.196   5.445   3.169  0.8331  1.1637 -0.0753
16955TIP3   OH272355   3.295   0.497   1.829  0.3849  0.0644  0.1869
16955TIP3    H172356   3.335   0.411   1.816 -1.1562 -0.6235 -0.2306
16955TIP3    H272357   3.325   0.549   1.754  1.1638 -0.1559  0.3383
16956TIP3   OH272358   0.933   4.796  10.619 -1.1068 -1.4686 -0.0319
16956TIP3    H172359   0.953   4.837  10.534 -0.7179 -2.4356 -0.4206
16956TIP3    H272360   1.011   4.745  10.640 -1.6212 -2.0968  0.3870
16957TIP3   OH272361   4.782   0.275   5.866  0.9232  0.0985 -0.3456
16957TIP3    H172362   4.826   0.354   5.899 -1.4697  1.2219  0.4285
16957TIP3    H272363   4.752   0.299   5.779 -0.0806  0.1836  0.0123
16958TIP3   OH272364   5.577   5.273   4.328  0.3144 -0.1957  0.0368
16958TIP3    H172365   5.516   5.295   4.258  1.9430  2.2749 -0.7097
16958TIP3    H272366   5.548   5.325   4.403  1.6793  1.3535 -0.4559
16959TIP3   OH272367   6.308   3.807  16.051  0.3519 -0.9442 -0.5323
16959TIP3    H172368   6.303   3.886  15.997  1.9164 -0.1429  0.4373
16959TIP3    H272369   6.374   3.752  16.008 -0.7607 -1.7758 -1.2278
16960TIP3   OH272370   6.073   3.796  12.147  0.4067  0.3692  0.1909
16960TIP3    H172371   6.157   3.780  12.191  0.2944 -1.2615 -0.1192
16960TIP3    H272372   6.094   3.795  12.054 -0.0639 -1.0322  0.0698
16961TIP3   OH272373   6.243   1.414   5.338 -0.2248 -0.2475 -0.3276
16961TIP3    H172374   6.307   1.356   5.295 -0.2553 -1.3950  1.1136
16961TIP3    H272375   6.291   1.495   5.352  0.3268 -0.4541 -0.9360
16962TIP3   OH272376   5.553   6.737  13.145 -0.0870  0.5596  0.2772
16962TIP3    H172377   5.585   6.647  13.138  0.5193  0.7601  0.4418
16962TIP3    H272378   5.573   6.763  13.235 -0.4860  0.7788  0.3077
16963TIP3   OH272379   3.924   3.388  14.165 -0.4141  0.0085 -0.0977
16963TIP3    H172380   3.886   3.303  14.186 -1.2074  0.7768  1.8641
16963TIP3    H272381   3.890   3.409  14.078 -3.0302 -0.2133  0.7766
16964TIP3   OH272382   3.097   5.436  17.044  0.4139  0.2337 -0.0605
16964TIP3    H172383   3.112   5.354  16.999 -1.4276 -0.0596 -0.2150
16964TIP3    H272384   3.061   5.411  17.129  0.7202  0.8701  0.2698
16965TIP3   OH272385   2.398   5.365   4.802 -0.0428  0.6303 -0.0745
16965TIP3    H172386   2.372   5.409   4.721 -2.2403  0.5058  0.5123
16965TIP3    H272387   2.383   5.429   4.871 -0.0174  0.1114  0.4267
16966TIP3   OH272388   4.547   5.319  11.149 -0.1670 -0.3764  0.5160
16966TIP3    H172389   4.512   5.322  11.237 -1.1488 -0.2508  0.1322
16966TIP3    H272390   4.537   5.408  11.115 -2.6765 -1.0434 -0.7749
16967TIP3   OH272391   1.571   3.146  15.729  0.3449  0.2019 -0.4432
16967TIP3    H172392   1.643   3.084  15.735  1.2945  1.2423 -0.7707
16967TIP3    H272393   1.613   3.232  15.732 -0.9612  0.8413  0.3194
16968TIP3   OH272394   2.541   4.324  12.487  0.1433 -0.4043  0.3089
16968TIP3    H172395   2.549   4.242  12.438  1.6172  0.4275 -0.9018
16968TIP3    H272396   2.631   4.354  12.498 -0.2278  0.0995  2.4596
16969TIP3   OH272397   5.451   2.291   3.346  0.0769 -0.2495 -0.4818
16969TIP3    H172398   5.454   2.209   3.298 -1.7347  0.6026 -2.2399
16969TIP3    H272399   5.381   2.279   3.410 -1.1892  0.3098 -1.6937
16970TIP3   OH272400   0.652   1.616  14.350  0.2504  0.1577  0.0592
16970TIP3    H172401   0.598   1.614  14.429 -1.6599 -0.4935 -1.1718
16970TIP3    H272402   0.592   1.590  14.280  2.3917 -1.5153 -1.2990
16971TIP3   OH272403   5.170   0.114  16.164 -0.0033 -0.2045 -0.5617
16971TIP3    H172404   5.078   0.141  16.160  0.4860  1.7078 -0.1240
16971TIP3    H272405   5.218   0.188  16.127  1.4682 -0.4658  0.7244
16972TIP3   OH272406   0.117   3.033  13.370 -0.0485  0.0460  0.7770
16972TIP3    H172407   0.058   3.103  13.398  0.2631  0.6495 -0.0348
16972TIP3    H272408   0.114   2.969  13.441 -4.6160 -1.8613 -0.7244
16973TIP3   OH272409   1.151   3.871  14.518 -0.4043  0.0034 -0.1586
16973TIP3    H172410   1.176   3.821  14.596 -0.4493 -0.8570 -0.6907
16973TIP3    H272411   1.212   3.842  14.451  1.6313  2.8813  0.2499
16974TIP3   OH272412   0.828   5.320   1.004  0.2912  0.1807 -0.4164
16974TIP3    H172413   0.858   5.233   0.978 -0.9622  0.0549 -1.5603
16974TIP3    H272414   0.799   5.310   1.094  0.8203 -0.4185 -0.3127
16975TIP3   OH272415   6.833   2.093   0.007 -0.6504 -0.4482 -0.4016
16975TIP3    H172416   6.920   2.081   0.046 -1.4154 -0.4126  1.3985
16975TIP3    H272417   6.805   2.179   0.037 -0.8197  0.0776 -2.0014
16976TIP3   OH272418   6.835   1.382  13.037  0.8340 -0.4265 -0.4772
16976TIP3    H172419   6.748   1.376  12.998  0.3039  0.1031  0.5583
16976TIP3    H272420   6.871   1.464  13.003 -0.7751  1.5710  2.2100
16977TIP3   OH272421   1.078   0.723  11.508  0.7252 -0.6619  0.2209
16977TIP3    H172422   1.075   0.761  11.420  0.6247  0.4297  0.6915
16977TIP3    H272423   1.018   0.776  11.560 -0.3207 -2.1874  0.6306
16978TIP3   OH272424   3.469   0.378  12.551 -0.3630  0.1437 -0.7609
16978TIP3    H172425   3.468   0.474  12.541  0.4748  0.2987  0.3762
16978TIP3    H272426   3.549   0.351  12.506 -0.1710  0.0783 -0.3843
16979TIP3   OH272427   6.548   1.224  13.448  0.6284 -0.5099 -0.1585
16979TIP3    H172428   6.491   1.268  13.385 -0.1633  0.1899  1.0002
16979TIP3    H272429   6.633   1.218  13.404  0.1140 -0.0244 -1.2683
16980TIP3   OH272430   0.032   3.946  12.023 -0.1327 -0.2151 -0.3365
16980TIP3    H172431  -0.048   3.958  11.971 -0.1497 -0.3128 -0.3324
16980TIP3    H272432   0.092   4.012  11.989 -0.4173  0.2614  0.0560
16981TIP3   OH272433   1.195   2.813  14.308 -0.3839  0.0878 -0.0814
16981TIP3    H172434   1.167   2.803  14.399  0.7501 -0.9501  0.1858
16981TIP3    H272435   1.123   2.778  14.256 -0.9599  0.5134  0.4266
16982TIP3   OH272436   6.010   0.169   2.445 -0.2168 -0.3899 -0.3906
16982TIP3    H172437   6.081   0.104   2.444  0.1917 -0.0446 -3.0534
16982TIP3    H272438   6.051   0.249   2.478  1.0024  0.0451 -2.6968
16983TIP3   OH272439   5.775   6.051  15.794 -0.1634 -0.2900  0.5429
16983TIP3    H172440   5.701   6.026  15.851 -1.4719  1.4808 -0.2804
16983TIP3    H272441   5.815   6.126  15.838 -0.0469 -0.0522  0.0373
16984TIP3   OH272442   5.984   4.986  11.940 -0.3017 -0.0177 -0.3353
16984TIP3    H172443   5.991   5.042  12.017 -0.6504 -0.1672 -0.1964
16984TIP3    H272444   5.994   5.046  11.866  1.5461 -0.0674 -0.1728
16985TIP3   OH272445   0.431   6.646   0.677 -0.4071  0.0907  0.0514
16985TIP3    H172446   0.437   6.564   0.726 -0.4270 -0.0955 -0.2558
16985TIP3    H272447   0.425   6.714   0.744 -0.5419 -0.1722  0.3060
16986TIP3   OH272448   1.318   6.376   3.893 -0.7152 -0.7428  0.2837
16986TIP3    H172449   1.387   6.328   3.846  0.1210  0.1768  0.5443
16986TIP3    H272450   1.292   6.317   3.964  0.2506 -0.8454  0.5641
16987TIP3   OH272451   5.552   4.865   2.447 -0.1290 -0.2943  0.0681
16987TIP3    H172452   5.583   4.874   2.537  0.4711  0.6648 -0.2180
16987TIP3    H272453   5.582   4.944   2.403 -3.2950  0.9057 -0.1855
16988TIP3   OH272454   4.177   6.484  17.160  0.3266  0.0706 -0.2115
16988TIP3    H172455   4.228   6.474  17.080 -0.3927 -0.8056 -0.5781
16988TIP3    H272456   4.087   6.463  17.133 -0.2474  1.6183  0.3990
16989TIP3   OH272457   1.738   3.763   6.555  0.5749  0.1377  0.9359
16989TIP3    H172458   1.779   3.775   6.469 -0.5430  0.1344  0.3837
16989TIP3    H272459   1.810   3.770   6.617  1.4322 -0.0204 -0.0110
16990TIP3   OH272460   1.204   1.435   0.572  0.2343 -0.7006  0.0067
16990TIP3    H172461   1.258   1.504   0.533  1.3467 -1.7070 -0.3102
16990TIP3    H272462   1.135   1.419   0.508  0.7641 -0.8076 -0.5527
16991TIP3   OH272463   1.490   4.712  17.130  0.4416 -0.6355 -0.7070
16991TIP3    H172464   1.502   4.672  17.043 -1.1805 -2.0663 -0.3395
16991TIP3    H272465   1.510   4.641  17.191  1.7946  0.4305  0.1176
16992TIP3   OH272466   3.467   4.680   4.429  0.0721 -0.4081 -0.2508
16992TIP3    H172467   3.469   4.632   4.512 -1.6703  0.0677  0.1089
16992TIP3    H272468   3.541   4.741   4.435  0.9666 -1.5029  0.2284
16993TIP3   OH272469   0.807   5.252   0.078 -0.3241 -0.2582  0.0438
16993TIP3    H172470   0.845   5.169   0.108 -1.6869 -0.3575  1.6196
16993TIP3    H272471   0.831   5.257  -0.014 -1.8632 -3.4074 -0.6688
16994TIP3   OH272472   0.957   0.772   1.035 -0.5252  0.3079 -0.0342
16994TIP3    H172473   0.981   0.759   1.127 -1.4584 -2.8926 -0.1292
16994TIP3    H272474   0.922   0.687   1.007 -0.6775  1.3021 -3.2499
16995TIP3   OH272475   3.878   1.563   5.177 -0.1620 -0.2263  0.7996
16995TIP3    H172476   3.814   1.492   5.180 -0.0295 -0.3344  1.1202
16995TIP3    H272477   3.948   1.535   5.235  0.7419 -0.6511 -0.4656
16996TIP3   OH272478   4.550   4.278   2.158 -0.0247  0.1663  0.0855
16996TIP3    H172479   4.597   4.195   2.160 -2.0513 -1.0542  0.3449
16996TIP3    H272480   4.577   4.323   2.238  0.2434 -0.7708  0.5419
16997TIP3   OH272481   4.516   4.158   3.409 -0.5222  0.0746  0.4923
16997TIP3    H172482   4.545   4.207   3.332 -1.6856  3.1624  1.8567
16997TIP3    H272483   4.507   4.068   3.378  0.2150  0.9484 -2.6370
16998TIP3   OH272484   2.140   3.659   4.982  0.5099 -0.1703 -0.8255
16998TIP3    H172485   2.056   3.692   4.950 -0.2961  0.3065  1.5459
16998TIP3    H272486   2.141   3.566   4.958 -1.7055 -0.7198  0.8762
16999TIP3   OH272487   2.953   1.439   5.597  0.8305 -0.4930 -1.0450
16999TIP3    H172488   2.937   1.533   5.607 -0.6390 -0.7518 -0.7016
16999TIP3    H272489   2.968   1.427   5.503  0.6623  0.0328 -1.1412
17000TIP3   OH272490   4.038   4.318   3.883  0.3267 -0.1451  0.8776
17000TIP3    H172491   3.973   4.321   3.954  0.7977 -1.0868  1.3606
17000TIP3    H272492   3.995   4.268   3.814  0.9633 -1.8569  1.6733
17001TIP3   OH272493   0.148   2.230  11.035  0.3203 -0.3212  0.4302
17001TIP3    H172494   0.210   2.166  11.000  0.0858 -1.0451  1.2962
17001TIP3    H272495   0.088   2.179  11.089 -0.4302  0.5109  0.4135
17002TIP3   OH272496   6.738   1.226  13.271 -0.0318 -0.1875  0.5228
17002TIP3    H172497   6.754   1.274  13.189 -0.7018  1.4474  1.3077
17002TIP3    H272498   6.826   1.202  13.301  0.1772 -2.1706 -1.3798
17003TIP3   OH272499   5.454   0.691  16.459 -0.2291 -0.2976  0.0740
17003TIP3    H172500   5.413   0.611  16.492  1.2439 -0.9248  0.4640
17003TIP3    H272501   5.523   0.711  16.523  1.8542 -0.8203 -1.8590
17004TIP3   OH272502   4.653   0.061  13.239 -0.3864  0.0149 -0.2220
17004TIP3    H172503   4.703   0.098  13.167 -0.8440 -0.1092 -0.6086
17004TIP3    H272504   4.599   0.133  13.271 -0.5080 -0.0466 -0.2895
17005TIP3   OH272505   3.433   0.074  14.036 -0.2756  0.3803  0.2641
17005TIP3    H172506   3.394  -0.012  14.021 -0.3072  0.4490 -0.0517
17005TIP3    H272507   3.519   0.069  13.995  0.3369  0.0002  1.5638
17006TIP3   OH272508   5.690   5.328  14.551  0.1001  0.4644 -0.5904
17006TIP3    H172509   5.680   5.353  14.459 -0.4097  0.9412 -0.4099
17006TIP3    H272510   5.670   5.234  14.552  3.5089 -0.4284 -1.5310
17007TIP3   OH272511   3.914   1.803   0.168  0.1986  0.0748 -0.5017
17007TIP3    H172512   3.989   1.743   0.165  0.3808  0.3181 -1.1765
17007TIP3    H272513   3.858   1.769   0.237  0.9956 -0.0411  0.0972
17008TIP3   OH272514   1.659   1.164   3.259  0.2348  0.1314  0.4024
17008TIP3    H172515   1.606   1.134   3.185  0.8597 -0.3301  0.1359
17008TIP3    H272516   1.650   1.096   3.325 -0.0274  0.3661  0.6088
17009TIP3   OH272517   2.984   2.643  15.875  0.0765 -0.4254 -0.1532
17009TIP3    H172518   2.940   2.559  15.888  1.4657 -1.2251 -0.4515
17009TIP3    H272519   2.927   2.690  15.814 -0.3096 -1.4799 -0.6356
17010TIP3   OH272520   0.956   4.214   5.158 -0.0552  0.0923  0.0138
17010TIP3    H172521   0.971   4.269   5.234 -1.8485 -2.2339  2.2601
17010TIP3    H272522   0.896   4.265   5.103 -0.9651  0.7859  1.5668
17011TIP3   OH272523   3.399   3.371   1.338 -0.2826 -0.2669 -0.4756
17011TIP3    H172524   3.443   3.363   1.253 -0.6841  1.8420 -0.9413
17011TIP3    H272525   3.422   3.458   1.369 -2.4875  0.1479  0.1870
17012TIP3   OH272526   0.110   0.784  12.567 -0.3897 -0.1867 -0.0755
17012TIP3    H172527   0.107   0.691  12.589 -1.3109 -0.0029  0.6679
17012TIP3    H272528   0.019   0.813  12.573 -0.4386  0.3247 -2.3366
17013TIP3   OH272529   1.142   2.232  13.290 -0.0394 -0.5803 -0.2153
17013TIP3    H172530   1.050   2.209  13.283 -0.2134 -0.1753  0.6058
17013TIP3    H272531   1.148   2.321  13.254  0.2394 -1.0332 -1.3216
17014TIP3   OH272532   0.130   1.628   0.145  0.3286  0.6893 -0.4520
17014TIP3    H172533   0.069   1.632   0.071  0.8503 -1.1324 -1.0492
17014TIP3    H272534   0.215   1.652   0.109  0.3435  1.1262 -0.1279
17015TIP3   OH272535   3.369   5.468  13.508 -0.2210  0.7883  0.0374
17015TIP3    H172536   3.295   5.525  13.530 -0.1101  0.3008  1.8741
17015TIP3    H272537   3.399   5.435  13.593  1.1235 -0.2518 -0.8075
17016TIP3   OH272538   3.420   3.977   1.018  0.1163  0.6752 -1.1213
17016TIP3    H172539   3.406   3.975   0.924  1.4434  0.8299 -1.3520
17016TIP3    H272540   3.509   3.944   1.030 -0.0280  0.6539  0.0771
17017TIP3   OH272541   3.518   1.651   2.731  0.3497 -0.1516  0.1314
17017TIP3    H172542   3.556   1.735   2.708  4.1730 -1.7908 -0.2894
17017TIP3    H272543   3.438   1.673   2.779  1.3220  3.6723  0.3333
17018TIP3   OH272544   1.264   1.155   0.524 -0.0199  0.0946  0.1484
17018TIP3    H172545   1.238   1.227   0.581 -1.0111  0.7976 -1.1190
17018TIP3    H272546   1.203   1.084   0.546 -1.0600  0.6938 -0.6577
17019TIP3   OH272547   2.481   0.571   1.836  0.5565 -0.0656 -0.1624
17019TIP3    H172548   2.519   0.503   1.892  0.3853  0.1703  0.2394
17019TIP3    H272549   2.419   0.617   1.892  0.8025  0.5450 -0.3833
17020TIP3   OH272550   5.120   1.993   2.248 -0.1149 -0.4875  0.2211
17020TIP3    H172551   5.094   2.000   2.340  1.9076  0.4302  0.7871
17020TIP3    H272552   5.113   2.083   2.215 -0.5985 -0.7713 -0.4647
17021TIP3   OH272553   3.690   6.341   2.511  0.3051 -0.0184  0.1300
17021TIP3    H172554   3.718   6.382   2.430 -0.4802 -0.3518 -0.3160
17021TIP3    H272555   3.621   6.280   2.485 -1.8121  1.7347  1.3563
17022TIP3   OH272556   2.424   3.631   3.246  0.3015 -0.4836 -0.3398
17022TIP3    H172557   2.476   3.711   3.242  0.8953 -0.8590 -0.1812
17022TIP3    H272558   2.362   3.640   3.173 -1.0511  1.0764  0.9223
17023TIP3   OH272559   4.614   1.102  11.533 -0.0232 -0.4390 -0.1403
17023TIP3    H172560   4.546   1.036  11.551 -0.0198 -0.2896  0.4138
17023TIP3    H272561   4.643   1.131  11.619  1.6072 -1.3682 -0.3390
17024TIP3   OH272562   2.966   1.944  15.672  0.2356  0.8403 -0.2091
17024TIP3    H172563   2.901   1.974  15.609 -1.1797  0.2960  0.9325
17024TIP3    H272564   2.964   2.010  15.742 -0.5723 -0.2093  0.7865
17025TIP3   OH272565   0.829   1.712   3.287  0.1005  0.8045 -0.2161
17025TIP3    H172566   0.895   1.654   3.324 -0.5695  0.7216  0.8984
17025TIP3    H272567   0.838   1.793   3.338 -0.4956  0.8745 -0.2198
17026TIP3   OH272568   3.421   1.203   4.928  0.1772 -0.0896  0.0419
17026TIP3    H172569   3.470   1.264   4.983 -1.6444  1.0204  0.5299
17026TIP3    H272570   3.435   1.117   4.968  2.9377 -0.1238 -0.7576
17027TIP3   OH272571   5.565   6.695  11.480  0.4367  0.1351  0.2807
17027TIP3    H172572   5.621   6.618  11.484  0.8813  0.5008  1.3787
17027TIP3    H272573   5.485   6.670  11.524  0.9584  0.5804  1.5415
17028TIP3   OH272574   0.500   5.016   2.709  0.1137 -0.0584 -0.8108
17028TIP3    H172575   0.569   5.075   2.679  0.2716  1.0361  1.4708
17028TIP3    H272576   0.540   4.929   2.708  0.8471  0.2803 -1.4453
17029TIP3   OH272577   4.777   6.131  13.720 -0.3858 -0.3580  0.1229
17029TIP3    H172578   4.814   6.193  13.782  0.6482 -0.8116 -0.0089
17029TIP3    H272579   4.804   6.163  13.634 -1.1523 -0.1545 -0.0468
17030TIP3   OH272580   6.366   1.678   5.347  0.4891  0.7414  0.1130
17030TIP3    H172581   6.345   1.724   5.266 -1.8480 -0.7848 -0.2708
17030TIP3    H272582   6.459   1.656   5.340  0.4889  1.2177 -1.8357
17031TIP3   OH272583   2.083   0.233  16.171  0.1999 -0.3949  0.1410
17031TIP3    H172584   2.007   0.239  16.230  0.1957 -0.9920  0.2002
17031TIP3    H272585   2.124   0.149  16.193  1.4094  0.3325  0.7414
17032TIP3   OH272586   6.213   0.648  12.978 -0.5221  0.2850  0.0076
17032TIP3    H172587   6.297   0.606  12.963 -0.8176 -0.5648  0.6621
17032TIP3    H272588   6.233   0.730  13.024 -0.1329 -0.4726  1.2102
17033TIP3   OH272589   2.656   2.136  16.204  0.0932 -0.4930 -0.5847
17033TIP3    H172590   2.690   2.221  16.234 -1.3632 -0.1068  0.0638
17033TIP3    H272591   2.711   2.071  16.247  1.7939  0.0979 -1.7675
17034TIP3   OH272592   4.495   1.898   5.687 -0.1592 -0.0451 -0.6658
17034TIP3    H172593   4.553   1.826   5.663 -1.0601 -0.3667 -2.0096
17034TIP3    H272594   4.422   1.856   5.731 -0.0789  0.1935 -0.3028
17035TIP3   OH272595   2.699   6.707   3.577 -0.1868 -0.0722 -0.1194
17035TIP3    H172596   2.728   6.668   3.495  1.6593 -0.1092  0.5047
17035TIP3    H272597   2.779   6.741   3.617 -0.7661 -1.4376  2.4054
17036TIP3   OH272598   1.932   1.515  15.112 -0.1769  0.1436  0.0166
17036TIP3    H172599   1.863   1.460  15.075  0.9019  0.9421 -3.6054
17036TIP3    H272600   1.999   1.453  15.141 -2.0436 -0.6118  3.0705
17037TIP3   OH272601   0.181   1.440   3.757 -0.1403 -0.0410  0.0166
17037TIP3    H172602   0.185   1.492   3.838  0.2439  0.0833 -0.0815
17037TIP3    H272603   0.219   1.497   3.690  1.9530 -1.0965  0.2363
17038TIP3   OH272604   2.132   5.941  11.459 -0.2099 -0.0927  1.2539
17038TIP3    H172605   2.114   5.852  11.427  1.1595 -0.4443  1.4022
17038TIP3    H272606   2.116   5.997  11.383  0.8927 -0.6887  0.5478
17039TIP3   OH272607   3.218   0.287  13.113 -0.2724 -0.3246 -0.0405
17039TIP3    H172608   3.253   0.216  13.060  1.3205  0.5906 -0.2918
17039TIP3    H272609   3.237   0.262  13.204  2.2811  0.7011 -0.2165
17040TIP3   OH272610   2.349   2.023   0.543 -0.8088  0.1840  0.1638
17040TIP3    H172611   2.380   2.023   0.634  0.1830  1.7263 -0.1183
17040TIP3    H272612   2.405   1.959   0.499 -0.0554  0.7426  0.2893
17041TIP3   OH272613   5.490   2.557   5.038  0.0179 -0.1165 -0.7094
17041TIP3    H172614   5.525   2.509   4.963 -0.4273 -0.1791 -0.8828
17041TIP3    H272615   5.560   2.618   5.063  0.3883 -0.4953 -0.8120
17042TIP3   OH272616   1.347   5.317  16.484  0.2883 -0.0972  0.3436
17042TIP3    H172617   1.286   5.348  16.417  1.0578  5.3543  1.7000
17042TIP3    H272618   1.291   5.294  16.559 -0.2967 -0.0239 -0.0635
17043TIP3   OH272619   1.118   5.834   1.136 -0.4620  0.1966 -0.2737
17043TIP3    H172620   1.150   5.818   1.047  1.2690 -0.5132  0.4319
17043TIP3    H272621   1.100   5.747   1.171 -1.6127  0.5017 -0.0793
17044TIP3   OH272622   6.326   4.124  10.681 -0.3720  0.3988  0.4910
17044TIP3    H172623   6.289   4.039  10.708  0.8792  0.0103  1.0522
17044TIP3    H272624   6.254   4.167  10.635 -1.4913 -0.3738  1.4403
17045TIP3   OH272625   0.609   1.449   0.668 -0.0313 -0.0217 -0.2933
17045TIP3    H172626   0.585   1.445   0.575  3.0127  1.3541 -1.2624
17045TIP3    H272627   0.607   1.542   0.690 -1.1491 -0.3647  1.2036
17046TIP3   OH272628   0.786   1.598  15.539 -0.6571  0.6255 -0.1728
17046TIP3    H172629   0.769   1.665  15.605  1.7452 -1.6903  3.0833
17046TIP3    H272630   0.878   1.607  15.518 -0.6847 -0.6041 -0.9342
17047TIP3   OH272631   3.857   5.489   5.165  0.3069  0.1515 -0.6050
17047TIP3    H172632   3.837   5.568   5.216 -0.3684  0.1456 -0.8514
17047TIP3    H272633   3.791   5.425   5.194  0.9932 -0.4022 -0.2340
17048TIP3   OH272634   2.878   0.695  15.461  0.2574 -0.3500 -0.1076
17048TIP3    H172635   2.955   0.661  15.415  2.6025  1.4623  2.1588
17048TIP3    H272636   2.862   0.781  15.422  0.1918 -0.1862  0.2729
17049TIP3   OH272637   4.932   6.428   6.599  0.4480 -0.0534  0.1450
17049TIP3    H172638   4.916   6.352   6.656  1.1948  1.6529  2.8151
17049TIP3    H272639   4.980   6.489   6.654  1.3374  1.7203 -2.4422
17050TIP3   OH272640   1.040   5.053   0.236 -0.3539  0.0504  0.4033
17050TIP3    H172641   0.961   5.055   0.290  1.0234  0.9799  2.4893
17050TIP3    H272642   1.086   4.974   0.262 -0.6748 -0.6470 -1.0195
17051TIP3   OH272643   6.775   2.252  14.948 -0.1674  0.1584 -0.1939
17051TIP3    H172644   6.765   2.234  14.854  1.3695  0.3517 -0.4186
17051TIP3    H272645   6.690   2.288  14.974 -0.4178  0.7125 -1.6551
17052TIP3   OH272646   3.401   1.382   6.503 -0.0141 -0.3485  0.0556
17052TIP3    H172647   3.423   1.473   6.524 -1.4219 -0.3078  1.5453
17052TIP3    H272648   3.378   1.344   6.588  0.3152 -2.0326 -0.5897
17053TIP3   OH272649   1.452   1.771   2.737 -0.0248 -0.0328  0.2236
17053TIP3    H172650   1.483   1.691   2.780 -1.6475 -1.5662 -1.2895
17053TIP3    H272651   1.370   1.792   2.782  0.5070  0.9628  0.7666
17054TIP3   OH272652   2.489   3.620  11.950 -0.0493 -0.5437 -0.2648
17054TIP3    H172653   2.497   3.609  11.856  0.2561 -2.0143 -0.0906
17054TIP3    H272654   2.500   3.532  11.986 -0.1506 -0.0137  1.1467
17055TIP3   OH272655   5.331   4.521   1.822 -0.0777  0.3769  0.1451
17055TIP3    H172656   5.365   4.435   1.798 -0.4713  0.0624  0.6998
17055TIP3    H272657   5.339   4.573   1.742 -1.3254 -0.6246 -0.6645
17056TIP3   OH272658   2.817   4.166  11.331 -0.0500 -0.1376 -0.2381
17056TIP3    H172659   2.835   4.132  11.419 -0.1223  0.8051  0.1576
17056TIP3    H272660   2.755   4.104  11.293 -1.1152  0.1834  0.9140
17057TIP3   OH272661   1.796   5.525  14.680 -0.1701 -0.2809 -0.2894
17057TIP3    H172662   1.890   5.512  14.674 -0.2840 -0.6656 -1.3740
17057TIP3    H272663   1.772   5.486  14.765  0.5915 -0.4448 -0.1425
17058TIP3   OH272664   3.431   1.459  14.695  0.2825 -0.1341  0.4159
17058TIP3    H172665   3.461   1.369  14.677  0.7235  0.1032 -0.0761
17058TIP3    H272666   3.439   1.503  14.610 -0.0145  0.3483  0.6390
17059TIP3   OH272667   6.525   0.298   0.210 -0.2974 -0.7848 -0.2304
17059TIP3    H172668   6.562   0.255   0.287 -0.2327 -1.5862 -0.6990
17059TIP3    H272669   6.534   0.391   0.229 -0.6500 -0.9548  0.9099
17060TIP3   OH272670   4.227   2.999  13.302 -0.1943  0.4409 -0.4583
17060TIP3    H172671   4.311   2.990  13.346 -1.2162  0.2697  1.5863
17060TIP3    H272672   4.180   2.917  13.323 -1.0704  0.7581 -1.0969
17061TIP3   OH272673   0.972   6.340  11.781 -0.2127 -0.0027 -0.3568
17061TIP3    H172674   1.057   6.377  11.805 -0.4710 -1.1362  2.7750
17061TIP3    H272675   0.912   6.415  11.779  0.6770  0.6985 -1.8507
17062TIP3   OH272676   5.004   0.497   6.402 -0.3638  0.1614  0.6560
17062TIP3    H172677   4.987   0.545   6.321  0.6507  0.5000  0.6316
17062TIP3    H272678   4.936   0.429   6.404 -0.7888  0.5444 -0.1503
17063TIP3   OH272679   0.890   0.488   4.330  0.1324 -0.1278  0.0654
17063TIP3    H172680   0.936   0.544   4.393 -0.8142 -0.5783  1.2138
17063TIP3    H272681   0.920   0.517   4.245  1.8729  0.1534  0.7411
17064TIP3   OH272682   3.620   5.459  13.812 -0.4856  0.0635 -0.5892
17064TIP3    H172683   3.659   5.414  13.887  0.3597  1.0575 -0.4165
17064TIP3    H272684   3.550   5.511  13.849 -0.0508  0.5754 -0.4775
17065TIP3   OH272685   5.166   0.163   2.422 -0.0130  0.1484 -0.1691
17065TIP3    H172686   5.107   0.089   2.409 -0.1951  0.2663 -0.0206
17065TIP3    H272687   5.166   0.178   2.517  0.5240 -0.0667 -0.1278
17066TIP3   OH272688   5.178   4.659  17.146  1.0759  0.1694  0.0608
17066TIP3    H172689   5.193   4.580  17.199  1.2298  0.4377  0.4221
17066TIP3    H272690   5.256   4.665  17.090 -0.0092 -1.2659 -1.6897
17067TIP3   OH272691   5.085   5.936  13.036 -0.5422 -0.1239  0.2766
17067TIP3    H172692   5.179   5.923  13.025 -0.5931 -0.2970  0.0264
17067TIP3    H272693   5.076   6.027  13.061 -0.4602  0.5845 -2.0034
17068TIP3   OH272694   3.238   0.028  13.019 -0.2226  0.1554  0.5134
17068TIP3    H172695   3.319   0.032  13.070 -0.9142  2.0649  1.5319
17068TIP3    H272696   3.169   0.018  13.084 -0.8177 -2.3729 -0.3974
17069TIP3   OH272697   0.990   4.956   2.084 -0.1584 -0.6398  0.3462
17069TIP3    H172698   0.956   5.045   2.095  2.4457  0.4431  0.2467
17069TIP3    H272699   0.915   4.899   2.105 -2.2222  1.5397 -0.6675
17070TIP3   OH272700   5.826   5.446  14.749 -0.1198  0.1200 -0.1783
17070TIP3    H172701   5.757   5.501  14.786 -1.5825 -0.1385 -2.3491
17070TIP3    H272702   5.780   5.385  14.692  1.7958 -1.0909 -0.5057
17071TIP3   OH272703   1.885   6.209   3.725  0.1881  0.1970 -0.0451
17071TIP3    H172704   1.864   6.125   3.685  1.3274  0.2277 -0.7681
17071TIP3    H272705   1.908   6.188   3.815 -0.0276 -0.1963 -0.0778
17072TIP3   OH272706   5.642   2.703   1.858  0.3337  0.7467 -0.0949
17072TIP3    H172707   5.622   2.793   1.883  1.1172  0.6832  0.8030
17072TIP3    H272708   5.737   2.696   1.864  0.4385  0.2871 -1.6878
17073TIP3   OH272709   5.909   1.233  12.430  0.2293  0.1997 -0.4528
17073TIP3    H172710   5.939   1.293  12.361 -0.5563 -0.6151 -1.5439
17073TIP3    H272711   5.971   1.246  12.502 -0.2152  2.7042 -0.4197
17074TIP3   OH272712   0.867   2.303   1.571  0.6459 -0.2958  0.1708
17074TIP3    H172713   0.866   2.325   1.664 -2.4519 -1.8683  0.6421
17074TIP3    H272714   0.875   2.208   1.568 -1.0465 -0.4540 -1.0348
17075TIP3   OH272715   4.863   2.425  17.167  0.2984  0.4183 -0.3042
17075TIP3    H172716   4.777   2.414  17.125 -0.8897  2.4359  1.4091
17075TIP3    H272717   4.843   2.437  17.260  2.3199  2.2121 -0.0136
17076TIP3   OH272718   0.081   0.576  13.568 -0.2398 -0.8479  0.3746
17076TIP3    H172719   0.148   0.510  13.586  1.0804  0.2282 -0.4068
17076TIP3    H272720   0.049   0.555  13.481 -1.0878 -1.4782  0.8252
17077TIP3   OH272721   5.897   5.128  11.236 -0.1857  0.2674 -0.8156
17077TIP3    H172722   5.948   5.164  11.163 -0.5559  0.1846 -1.1176
17077TIP3    H272723   5.950   5.054  11.268 -0.4291 -0.2411 -1.5584
17078TIP3   OH272724   6.433   1.776  14.311 -0.2476  0.0406 -0.2515
17078TIP3    H172725   6.372   1.748  14.243  2.0656 -0.2693 -2.3443
17078TIP3    H272726   6.431   1.871  14.308 -1.2336  0.0537  0.3251
17079TIP3   OH272727   2.507   1.282   1.459 -0.3626 -0.4110 -0.3866
17079TIP3    H172728   2.593   1.248   1.486  0.3751  2.2428  0.9246
17079TIP3    H272729   2.462   1.206   1.423  2.2662 -2.0704 -0.4700
17080TIP3   OH272730   1.447   5.773  13.276 -0.3281 -0.2403 -0.2181
17080TIP3    H172731   1.408   5.860  13.274 -0.7228 -0.4162 -0.3492
17080TIP3    H272732   1.372   5.714  13.285 -0.0283 -0.5400  0.3737
17081TIP3   OH272733   3.157   2.411   4.772  0.0184  0.0150  0.6849
17081TIP3    H172734   3.162   2.450   4.685 -0.5554 -1.7980 -0.2169
17081TIP3    H272735   3.174   2.483   4.832  0.9935  1.1961 -0.9402
17082TIP3   OH272736   5.257   2.618  14.713 -0.1314  0.1772  0.0356
17082TIP3    H172737   5.308   2.653  14.640  0.8484 -0.7682  0.2441
17082TIP3    H272738   5.219   2.696  14.754  2.7574  1.2247  1.0541
17083TIP3   OH272739   4.593   0.631   5.608  0.4362  0.8659 -0.2725
17083TIP3    H172740   4.601   0.625   5.703 -1.9601 -1.4075 -0.1063
17083TIP3    H272741   4.604   0.724   5.589 -1.2815  1.7820  2.5200
17084TIP3   OH272742   5.699   6.323  14.923 -0.0536 -0.1763  0.5940
17084TIP3    H172743   5.788   6.319  14.890 -0.7194  0.5977 -1.4057
17084TIP3    H272744   5.663   6.236  14.907  0.0036 -0.1658  0.4149
17085TIP3   OH272745   1.224   2.234   3.369 -0.3599 -0.0093  0.0757
17085TIP3    H172746   1.230   2.297   3.441 -0.8861 -0.5742  0.6324
17085TIP3    H272747   1.132   2.235   3.344 -0.4475 -0.8213  0.3412
17086TIP3   OH272748   0.646   2.333  16.262  0.2381  0.5065 -0.3640
17086TIP3    H172749   0.659   2.426  16.242 -0.5734  0.7173  0.0584
17086TIP3    H272750   0.617   2.294  16.180  2.2237  0.2713 -1.0009
17087TIP3   OH272751   6.309   1.896   3.789 -0.5530 -0.0389  0.1155
17087TIP3    H172752   6.242   1.961   3.767 -0.2708  0.4190  0.5701
17087TIP3    H272753   6.273   1.849   3.864 -0.0940  0.6670  0.8017
17088TIP3   OH272754   2.221   1.214   3.922  0.5725 -0.0274  0.9792
17088TIP3    H172755   2.261   1.160   3.990 -0.1539 -0.3061  1.1867
17088TIP3    H272756   2.148   1.258   3.966 -0.3026 -0.7063  0.2281
17089TIP3   OH272757   3.440   4.589   3.183 -0.3311  0.3276 -0.1422
17089TIP3    H172758   3.523   4.541   3.185  0.1898  1.2096  1.4610
17089TIP3    H272759   3.452   4.655   3.115 -0.3737 -0.6153 -1.0889
17090TIP3   OH272760   1.557   5.809  13.753 -0.2048 -0.3932 -0.0104
17090TIP3    H172761   1.518   5.884  13.799  0.0452  0.2181 -0.7649
17090TIP3    H272762   1.547   5.831  13.660  2.3785  0.0482 -0.2494
17091TIP3   OH272763   5.133   2.223   3.821  0.3010 -0.5705  0.1305
17091TIP3    H172764   5.050   2.271   3.818  1.4337  1.5666  1.0280
17091TIP3    H272765   5.182   2.255   3.745  0.6909 -1.0851  0.1625
17092TIP3   OH272766   2.473   1.734  15.628 -0.9062 -0.2584  0.0683
17092TIP3    H172767   2.389   1.697  15.602 -1.2440  1.5698 -1.7779
17092TIP3    H272768   2.526   1.731  15.548 -0.0432  0.7038  0.5686
17093TIP3   OH272769   0.417   3.404  14.213 -0.4042  0.0671 -0.3112
17093TIP3    H172770   0.379   3.480  14.169  0.2865 -1.3276 -3.5937
17093TIP3    H272771   0.425   3.338  14.145  0.6336 -2.4012  2.0124
17094TIP3   OH272772   1.856   3.089  15.175 -0.3713  0.2146  0.5562
17094TIP3    H172773   1.817   3.111  15.259  0.6327  0.2992  1.0150
17094TIP3    H272774   1.832   2.997  15.161 -0.2934  0.1110  1.0819
17095TIP3   OH272775   5.253   3.140   0.393  0.0009  0.0808 -0.3082
17095TIP3    H172776   5.326   3.183   0.350 -0.3612  0.6704 -0.3357
17095TIP3    H272777   5.222   3.203   0.457 -0.0927 -0.4069  0.1394
17096TIP3   OH272778   3.655   5.354   6.324  0.3098  0.1733  0.0867
17096TIP3    H172779   3.660   5.445   6.353 -0.0597  0.6867 -1.3367
17096TIP3    H272780   3.737   5.339   6.278  0.1211 -0.0189 -0.1891
17097TIP3   OH272781   1.412   3.388  16.618  0.0388  0.0360  0.2825
17097TIP3    H172782   1.364   3.453  16.567 -0.4596 -0.4419  0.1291
17097TIP3    H272783   1.420   3.427  16.706 -0.5823  0.1503  0.2954
17098TIP3   OH272784   5.656   3.050  15.831  0.0754 -0.0460 -0.1850
17098TIP3    H172785   5.724   3.064  15.765 -0.6022 -0.1859 -0.9334
17098TIP3    H272786   5.690   3.091  15.910 -0.3000  2.7116 -1.3516
17099TIP3   OH272787   1.237   5.142  13.035  0.0588 -0.0875  0.1697
17099TIP3    H172788   1.258   5.065  12.983  3.0835 -0.6813  2.0317
17099TIP3    H272789   1.267   5.216  12.982  0.8836 -0.5045  0.0368
17100TIP3   OH272790   4.455   5.282  14.340  0.8086 -0.6205  0.3992
17100TIP3    H172791   4.388   5.341  14.376  0.2780 -0.9239 -0.0837
17100TIP3    H272792   4.505   5.337  14.279  0.2585 -0.6822 -0.1164
17101TIP3   OH272793   5.193   6.516  11.057 -0.2705  0.3712  0.8968
17101TIP3    H172794   5.174   6.447  11.121  0.9822  0.2338  1.1390
17101TIP3    H272795   5.236   6.585  11.108 -0.6426  0.9196  0.4739
17102TIP3   OH272796   2.897   2.825  16.668  0.2640 -0.1361  0.2554
17102TIP3    H172797   2.885   2.919  16.662 -2.6110 -0.4306  0.0253
17102TIP3    H272798   2.810   2.791  16.689 -0.0929 -3.1445 -4.6380
17103TIP3   OH272799   3.017   3.210  16.549  0.1420 -0.7611  0.0294
17103TIP3    H172800   3.090   3.173  16.597 -0.5515 -1.4208  0.6001
17103TIP3    H272801   2.941   3.160  16.579 -0.6271  0.2954 -0.1141
17104TIP3   OH272802   2.071   2.297   2.788  0.7479 -0.6657  0.3774
17104TIP3    H172803   2.135   2.363   2.814  1.9640 -1.2192 -1.0198
17104TIP3    H272804   2.048   2.252   2.869  0.2749  1.1036  1.2802
17105TIP3   OH272805   6.265   2.207   3.001 -0.1275  0.4404  0.9544
17105TIP3    H172806   6.258   2.116   3.031  1.3149  0.5355  1.6710
17105TIP3    H272807   6.359   2.219   2.984 -0.4195  1.5356 -0.0055
17106TIP3   OH272808   0.402   5.982   4.841 -0.0041 -0.5874  0.2476
17106TIP3    H172809   0.483   5.984   4.893  0.4700  1.4641 -0.4629
17106TIP3    H272810   0.427   5.938   4.760  0.7830  1.1019 -0.4707
17107TIP3   OH272811   1.832   0.268  11.314 -0.0309 -0.5620 -0.3436
17107TIP3    H172812   1.744   0.302  11.298  0.8085  1.0645 -1.9559
17107TIP3    H272813   1.841   0.196  11.251 -0.0162 -0.3740 -0.5568
17108TIP3   OH272814   0.320   5.107   1.411 -0.4277  0.1833  0.0721
17108TIP3    H172815   0.339   5.174   1.476 -3.2267 -0.2871  1.5183
17108TIP3    H272816   0.256   5.049   1.454  1.3924 -3.1194 -1.2932
17109TIP3   OH272817   2.907   4.544   0.406  0.0065 -0.2898 -0.5598
17109TIP3    H172818   2.949   4.531   0.491  0.1662 -0.8504 -0.7235
17109TIP3    H272819   2.826   4.494   0.410 -0.7788  0.9552 -0.1692
17110TIP3   OH272820   6.177   3.851   1.837  0.2157  0.8251 -0.1316
17110TIP3    H172821   6.160   3.765   1.799  0.4861  1.1768 -1.0561
17110TIP3    H272822   6.115   3.909   1.793 -0.9109  0.8962  1.4391
17111TIP3   OH272823   4.334   0.741   2.898  0.1843  0.1814  0.6433
17111TIP3    H172824   4.280   0.766   2.973  0.7983  0.2222  1.0889
17111TIP3    H272825   4.394   0.675   2.934  0.4625  0.1808  0.1787
17112TIP3   OH272826   4.507   5.169  15.187  0.5960 -0.3857  0.2853
17112TIP3    H172827   4.529   5.078  15.169  1.9570  0.3270 -1.9841
17112TIP3    H272828   4.464   5.200  15.108 -1.4776  0.5280  1.6724
17113TIP3   OH272829   4.002   0.634   3.660  0.1972 -0.6891  0.4021
17113TIP3    H172830   3.926   0.688   3.684  0.9981 -0.4640  2.6022
17113TIP3    H272831   4.075   0.672   3.709  1.3051 -2.2437  0.0200
17114TIP3   OH272832   3.337   0.701  17.084 -0.3203  0.4907  0.6850
17114TIP3    H172833   3.411   0.744  17.040  1.1424 -3.3048 -0.9742
17114TIP3    H272834   3.263   0.717  17.025  0.3720  0.0807 -0.3289
17115TIP3   OH272835   4.691   0.249   2.516 -0.4018 -0.3943  0.2090
17115TIP3    H172836   4.701   0.171   2.570  1.4028  1.4156  2.7010
17115TIP3    H272837   4.771   0.253   2.464 -1.2179 -0.9986 -1.1670
17116TIP3   OH272838   0.233   0.519  15.833 -0.6298 -0.4489 -0.5159
17116TIP3    H172839   0.328   0.522  15.828 -0.6097  0.7018  0.0953
17116TIP3    H272840   0.215   0.501  15.926 -0.9869  0.6436 -0.3526
17117TIP3   OH272841   4.268   5.929  16.350  0.2099  0.0587 -0.6445
17117TIP3    H172842   4.206   5.944  16.421  0.2564 -0.9580 -0.3856
17117TIP3    H272843   4.349   5.972  16.379  0.4589 -0.9930  0.2580
17118TIP3   OH272844   3.789   6.260   0.860 -0.4004 -0.1068  0.0165
17118TIP3    H172845   3.695   6.245   0.863 -0.7608  0.8193 -3.0254
17118TIP3    H272846   3.800   6.354   0.877  0.0475 -0.2898  0.8033
17119TIP3   OH272847   2.722   0.413  12.975 -0.5073 -0.3405  0.1489
17119TIP3    H172848   2.797   0.365  12.940 -0.0676 -0.2741  0.9764
17119TIP3    H272849   2.669   0.347  13.019  0.0432 -0.1086  1.1963
17120TIP3   OH272850   4.447   0.886   3.806 -0.4269 -0.1609 -0.1469
17120TIP3    H172851   4.421   0.807   3.758  0.5728 -0.8440  0.4051
17120TIP3    H272852   4.501   0.935   3.744  1.1871 -1.2288  0.3770
17121TIP3   OH272853   5.639   2.524  16.619  0.1645 -0.3983 -0.4718
17121TIP3    H172854   5.692   2.589  16.574  0.8689 -0.4910  0.1973
17121TIP3    H272855   5.596   2.475  16.549  0.7466 -0.1422 -1.0139
17122TIP3   OH272856   5.253   3.568  17.167  0.1523 -0.1469 -0.2985
17122TIP3    H172857   5.238   3.624  17.243  0.5312  0.1811 -0.4597
17122TIP3    H272858   5.254   3.479  17.202  1.0559  0.0456  0.1989
17123TIP3   OH272859   6.166   6.530   1.967  0.0041 -0.1202 -0.2326
17123TIP3    H172860   6.243   6.515   1.912  0.5942  1.6662  0.0333
17123TIP3    H272861   6.123   6.606   1.928 -0.3930  0.2561  0.8993
17124TIP3   OH272862   3.864   0.208  15.505  0.6013 -0.3010  0.5483
17124TIP3    H172863   3.954   0.195  15.534  1.1545 -2.8747 -1.8406
17124TIP3    H272864   3.833   0.119  15.484 -0.6271  0.8763 -3.6115
17125TIP3   OH272865   4.746   0.527  17.124 -0.0675 -0.0188 -0.8459
17125TIP3    H172866   4.744   0.477  17.042  0.4609  0.6283 -1.2682
17125TIP3    H272867   4.692   0.477  17.185  1.3565 -1.6930 -0.9006
17126TIP3   OH272868   2.220   5.902  12.509  0.4231 -0.1145 -0.0607
17126TIP3    H172869   2.261   5.986  12.488  1.7404 -0.5406  0.7252
17126TIP3    H272870   2.233   5.850  12.430  0.4863  0.0878 -0.1871
17127TIP3   OH272871   2.296   2.708  15.613  0.2570 -0.0652  0.5846
17127TIP3    H172872   2.265   2.796  15.636 -1.1812 -0.4095  0.0981
17127TIP3    H272873   2.376   2.723  15.563  1.2166  0.8597  2.3284
17128TIP3   OH272874   5.968   2.232   4.398  0.1807 -0.3231 -0.9037
17128TIP3    H172875   5.991   2.157   4.452 -1.0593 -2.0431 -2.6226
17128TIP3    H272876   5.929   2.194   4.319 -0.5321  2.1395 -1.8419
17129TIP3   OH272877   1.187   0.159  11.665 -0.3404 -0.0105  0.4732
17129TIP3    H172878   1.221   0.237  11.710  0.0459  0.4994 -0.6607
17129TIP3    H272879   1.133   0.195  11.594  0.1375 -0.7634 -0.2878
17130TIP3   OH272880   4.648   3.709   1.483 -0.0076 -0.3592  0.4818
17130TIP3    H172881   4.569   3.722   1.431  0.4837  0.0454 -0.1691
17130TIP3    H272882   4.635   3.623   1.524 -1.3563  0.2620  1.4223
17131TIP3   OH272883   6.324   6.056  12.744 -0.3034 -0.4171  0.8921
17131TIP3    H172884   6.304   6.000  12.819 -2.0609  0.1346  0.8822
17131TIP3    H272885   6.387   6.120  12.778  0.5074 -1.4077  1.3219
17132TIP3   OH272886   2.198   4.242  17.161  0.4477 -0.6739  0.5465
17132TIP3    H172887   2.131   4.301  17.125 -1.7429 -1.2926  3.2841
17132TIP3    H272888   2.253   4.299  17.215  0.5694 -0.5855  0.3325
17133TIP3   OH272889   6.695   4.874  15.114 -0.3040  0.5591 -0.5718
17133TIP3    H172890   6.733   4.891  15.200 -0.1460  0.4138 -0.6122
17133TIP3    H272891   6.760   4.819  15.069 -0.8569 -0.2644 -0.3921
17134TIP3   OH272892   5.398   1.817   1.732  1.0240 -0.5084  0.2753
17134TIP3    H172893   5.426   1.813   1.823  2.5966 -1.0910 -0.2114
17134TIP3    H272894   5.424   1.904   1.703  0.4284 -0.2838  0.3954
17135TIP3   OH272895   5.725   2.993   5.813 -0.1750  0.8095  0.1124
17135TIP3    H172896   5.661   3.033   5.872 -1.4679 -0.5780 -0.2678
17135TIP3    H272897   5.737   3.057   5.743 -1.0198  1.1775  0.2927
17136TIP3   OH272898   0.226   5.421   4.024  0.4616  0.6971 -0.0810
17136TIP3    H172899   0.212   5.437   4.117 -0.0275  2.9676 -0.4816
17136TIP3    H272900   0.156   5.470   3.980  0.3251 -0.7902 -1.6513
17137TIP3   OH272901   1.758   1.977  14.201 -0.0075 -1.1168  0.2775
17137TIP3    H172902   1.683   1.928  14.168 -0.9429  1.4539 -1.7983
17137TIP3    H272903   1.827   1.911  14.212 -1.4292 -3.0185 -1.4576
17138TIP3   OH272904   1.479   1.930  16.925 -0.2262 -0.1221 -0.4485
17138TIP3    H172905   1.540   1.960  16.857 -0.6511 -2.6537 -2.0849
17138TIP3    H272906   1.534   1.916  17.002  0.7909  0.0343 -1.1278
17139TIP3   OH272907   6.226   5.873  12.973 -0.1906  0.4755 -0.3317
17139TIP3    H172908   6.198   5.911  13.056  0.2529 -0.6893  0.3748
17139TIP3    H272909   6.281   5.798  12.998 -2.7257 -2.0103 -1.5829
17140TIP3   OH272910   6.199   1.560  15.121 -0.4783 -0.0900  0.5813
17140TIP3    H172911   6.173   1.652  15.131  0.6227  0.3508 -0.3476
17140TIP3    H272912   6.261   1.546  15.193  2.9716  1.3648 -1.7905
17141TIP3   OH272913   2.293   1.648  15.876 -0.3871  0.3116  0.6230
17141TIP3    H172914   2.260   1.562  15.851 -0.4638  0.6313 -0.4291
17141TIP3    H272915   2.388   1.637  15.878 -0.3927  0.2222  0.4080
17142TIP3   OH272916   0.579   2.034   0.361 -0.3343 -0.5073 -0.5744
17142TIP3    H172917   0.617   2.096   0.299 -0.8593  0.0971 -0.2965
17142TIP3    H272918   0.655   1.991   0.401  0.0169 -0.6999 -1.4114
17143TIP3   OH272919   0.071   5.903   2.796 -0.1544  0.4750  0.6985
17143TIP3    H172920   0.099   5.864   2.713 -0.1583  1.2823  0.3063
17143TIP3    H272921  -0.025   5.899   2.793 -0.1467 -1.4334  1.6261
17144TIP3   OH272922   5.080   3.116   6.472  0.7064 -0.5180 -0.2730
17144TIP3    H172923   5.028   3.086   6.397  0.5457  0.4084 -0.5400
17144TIP3    H272924   5.164   3.072   6.461 -0.5502 -3.5841  1.2067
17145TIP3   OH272925   6.328   6.292  13.285 -0.2136  0.7239  0.4581
17145TIP3    H172926   6.311   6.350  13.210  1.1326 -0.2967 -0.6888
17145TIP3    H272927   6.422   6.296  13.297  0.0110 -1.6408 -0.0372
17146TIP3   OH272928   2.985   4.618  14.933  0.1780 -0.5375  0.0762
17146TIP3    H172929   2.975   4.671  15.012 -2.0995 -0.7846  0.0244
17146TIP3    H272930   3.011   4.680  14.866 -0.6002  0.1852  0.4283
17147TIP3   OH272931   5.128   5.509   0.971  0.0900 -0.2658 -0.3835
17147TIP3    H172932   5.181   5.517   0.892 -2.7283 -0.1118 -2.4291
17147TIP3    H272933   5.096   5.598   0.987  0.7043 -0.2751  1.0455
17148TIP3   OH272934   1.450   3.385   0.402 -0.2310 -0.4886  0.0543
17148TIP3    H172935   1.539   3.418   0.409 -0.1337 -0.7808  0.1902
17148TIP3    H272936   1.447   3.341   0.317  0.0792 -1.4441  0.5198
17149TIP3   OH272937   0.078   4.770  13.003  0.1011 -0.5764 -0.5791
17149TIP3    H172938  -0.006   4.785  12.960 -0.5569 -1.0782  0.4918
17149TIP3    H272939   0.066   4.687  13.049  1.7224 -1.4918 -1.7098
17150TIP3   OH272940   4.378   3.320  14.697  0.0521  0.2963 -0.3097
17150TIP3    H172941   4.462   3.290  14.731  2.3091  4.1459 -1.8568
17150TIP3    H272942   4.328   3.346  14.775  1.0300 -0.3105  0.5419
17151TIP3   OH272943   4.896   0.790  13.395  0.0296  0.1913  0.3081
17151TIP3    H172944   4.945   0.860  13.354 -0.6911 -0.4371 -1.7294
17151TIP3    H272945   4.900   0.810  13.489  1.7264  1.6807 -0.0297
17152TIP3   OH272946   2.157   6.399   0.629  0.2008 -0.0373 -0.2396
17152TIP3    H172947   2.094   6.461   0.666  0.2019 -1.4477  2.3452
17152TIP3    H272948   2.238   6.414   0.679  0.6112 -1.1679 -0.5307
17153TIP3   OH272949   3.249   4.181   5.595  0.2642  0.3908  0.3646
17153TIP3    H172950   3.159   4.213   5.590  0.6417  1.4485  0.0110
17153TIP3    H272951   3.260   4.125   5.519  0.2076  1.1029 -0.1797
17154TIP3   OH272952   4.419   1.872  16.257 -0.2909  0.1770  0.7548
17154TIP3    H172953   4.362   1.934  16.210  0.4632  0.4262  0.1522
17154TIP3    H272954   4.404   1.788  16.214  0.6925  0.4792 -0.2313
17155TIP3   OH272955   0.186   6.030   6.251 -0.4752 -0.0503 -0.2134
17155TIP3    H172956   0.118   5.966   6.273 -0.3459  0.1483  0.8326
17155TIP3    H272957   0.266   5.995   6.290 -0.5035  0.9699  0.8187
17156TIP3   OH272958   1.394   2.106  15.000 -0.3201  0.2872  0.2170
17156TIP3    H172959   1.314   2.119  14.949  0.5526  0.2738 -1.2164
17156TIP3    H272960   1.420   2.015  14.982  1.0905  0.8847 -1.0005
17157TIP3   OH272961   1.381   5.765   4.695  0.7088 -0.1709  0.4766
17157TIP3    H172962   1.468   5.774   4.734 -0.3474  2.2226  2.5545
17157TIP3    H272963   1.321   5.797   4.763 -1.4880  1.7422 -2.1400
17158TIP3   OH272964   1.055   1.694   3.522  0.4332 -0.2845  0.0754
17158TIP3    H172965   1.005   1.703   3.603  2.1854 -0.9900  1.3036
17158TIP3    H272966   1.071   1.784   3.493 -2.2137 -0.0411 -0.8526
17159TIP3   OH272967   2.709   1.666  13.747  0.1565 -0.7439 -1.0281
17159TIP3    H172968   2.647   1.702  13.811  1.2154  0.3707 -0.5996
17159TIP3    H272969   2.760   1.742  13.717  2.0751 -1.7817 -0.5327
17160TIP3   OH272970   5.291   1.091   6.567  0.2117 -0.1071  0.2908
17160TIP3    H172971   5.201   1.072   6.593  0.5924 -4.1022 -0.6534
17160TIP3    H272972   5.287   1.178   6.527 -3.1062  0.0369  0.7008
17161TIP3   OH272973   2.495   0.642   2.739  0.0524  0.2463 -0.4359
17161TIP3    H172974   2.476   0.561   2.788 -0.1729  1.5015  1.6725
17161TIP3    H272975   2.409   0.677   2.717  0.0256  1.3374  1.2127
17162TIP3   OH272976   1.794   1.972  16.934  0.3636 -0.2279  0.2361
17162TIP3    H172977   1.834   1.994  16.850 -1.8934  2.0625 -0.3678
17162TIP3    H272978   1.782   2.056  16.977  1.3452 -1.3372  2.8913
17163TIP3   OH272979   0.303   6.250   3.074 -0.6010  0.1962 -0.7782
17163TIP3    H172980   0.251   6.214   3.003  0.9634 -0.5564 -1.5895
17163TIP3    H272981   0.335   6.174   3.122 -1.1387  0.6827  0.3848
17164TIP3   OH272982   5.907   4.279  13.766  0.2186 -0.9719  0.5137
17164TIP3    H172983   5.827   4.233  13.742 -0.2687  0.3979 -0.6436
17164TIP3    H272984   5.890   4.371  13.742  1.9702 -0.5788  0.6401
17165TIP3   OH272985   2.123   0.229   4.157 -0.3188 -0.0248 -0.0115
17165TIP3    H172986   2.122   0.312   4.109  2.4499 -0.1884 -0.4998
17165TIP3    H272987   2.074   0.169   4.101  1.4564  0.2099 -1.9446
17166TIP3   OH272988   1.275   2.833  16.476 -0.6984  0.5889 -0.4035
17166TIP3    H172989   1.253   2.761  16.535  1.4539  1.0405  1.0645
17166TIP3    H272990   1.197   2.889  16.476 -1.7048 -0.7612 -0.1099
17167TIP3   OH272991   5.309   6.084  13.468 -0.2191 -0.2071  0.4838
17167TIP3    H172992   5.260   6.137  13.405  0.3481  0.3210  0.4836
17167TIP3    H272993   5.244   6.023  13.504 -0.7778  0.1981  0.1658
17168TIP3   OH272994   3.553   6.451  16.743 -0.1097  0.3468 -0.1026
17168TIP3    H172995   3.586   6.536  16.770  0.9717  0.8680 -2.7660
17168TIP3    H272996   3.613   6.422  16.674 -0.4012 -2.6343  0.7524
17169TIP3   OH272997   3.685   5.589   5.836 -0.0142  0.3055  0.0985
17169TIP3    H172998   3.711   5.497   5.838 -1.0125  0.0109  0.9823
17169TIP3    H272999   3.673   5.612   5.928  1.6552  1.7778  0.0024
17170TIP3   OH273000   0.586   2.673   0.872  0.5085  0.2065  0.3687
17170TIP3    H173001   0.663   2.616   0.879  0.5005  0.1545  0.0485
17170TIP3    H273002   0.582   2.717   0.957  1.5457  1.0394  0.0169
17171TIP3   OH273003   0.472   3.503   2.750  0.2200 -0.9825 -0.4611
17171TIP3    H173004   0.400   3.445   2.773 -0.2659 -0.4370 -0.5679
17171TIP3    H273005   0.481   3.562   2.825  1.3068 -1.7505  0.0385
17172TIP3   OH273006   0.063   4.782  10.601  0.4901  0.2000  0.2496
17172TIP3    H173007   0.026   4.742  10.522 -0.3420  0.9461  0.2533
17172TIP3    H273008  -0.008   4.780  10.665  0.7119  0.8737  0.5293
17173TIP3   OH273009   2.401   6.124  16.845  0.1456 -0.1506  0.2423
17173TIP3    H173010   2.470   6.110  16.780  0.5289  1.2567  0.3189
17173TIP3    H273011   2.435   6.085  16.926  0.1204 -0.9527 -0.1227
17174TIP3   OH273012   3.383   5.214   5.488  0.8954 -0.1386  0.0939
17174TIP3    H173013   3.388   5.171   5.403  2.5442 -0.3316  0.2552
17174TIP3    H273014   3.337   5.151   5.544  1.4915 -0.8459 -0.1876
17175TIP3   OH273015   0.992   2.551  13.823 -0.6073 -0.1336 -0.0526
17175TIP3    H173016   0.899   2.530  13.816 -1.3047  1.9306  1.7308
17175TIP3    H273017   1.035   2.466  13.836 -2.3962 -1.0339  0.3048
17176TIP3   OH273018   2.368   5.563  15.435 -0.4657 -0.9605  0.1027
17176TIP3    H173019   2.387   5.656  15.443  1.8375 -1.4726  1.5235
17176TIP3    H273020   2.424   5.533  15.363 -0.2532 -1.4721  0.4791
17177TIP3   OH273021   3.757   3.128   1.154  0.0759  0.3719 -0.3367
17177TIP3    H173022   3.800   3.212   1.170  1.0035  0.2219 -1.9022
17177TIP3    H273023   3.665   3.149   1.143  0.2609  1.1454 -0.4295
17178TIP3   OH273024   6.132   4.207   6.114  0.0146  0.3355 -0.2670
17178TIP3    H173025   6.045   4.183   6.083  0.2603 -0.4643 -0.3607
17178TIP3    H273026   6.174   4.124   6.135  0.4326  0.7642  0.6713
17179TIP3   OH273027   2.312   3.676   0.547  0.0791 -0.1966  0.7012
17179TIP3    H173028   2.239   3.675   0.486  0.6184 -0.6915  0.0455
17179TIP3    H273029   2.381   3.724   0.500  0.5416 -0.6954  0.8594
17180TIP3   OH273030   5.513   1.608   4.508  0.0576  0.1024 -0.0654
17180TIP3    H173031   5.584   1.563   4.463  0.8404  1.4617 -0.2212
17180TIP3    H273032   5.556   1.673   4.562 -1.0543  0.7364  0.0824
17181TIP3   OH273033   6.251   0.603   5.083 -0.2097 -0.6971 -0.5386
17181TIP3    H173034   6.186   0.533   5.074  0.7038 -1.8337  1.1235
17181TIP3    H273035   6.334   0.561   5.059  0.2342  0.0670 -0.3708
17182TIP3   OH273036   1.273   4.053   2.231  0.8433 -0.2637  0.3975
17182TIP3    H173037   1.241   3.979   2.180 -2.2368  0.3316  1.2773
17182TIP3    H273038   1.348   4.086   2.181  0.7997 -2.4638 -1.2621
17183TIP3   OH273039   2.499   3.391  13.651  0.4723 -0.0529  0.3123
17183TIP3    H173040   2.462   3.369  13.736  1.0458  0.8704  0.8203
17183TIP3    H273041   2.481   3.484  13.640  3.6404  0.7871  1.1801
17184TIP3   OH273042   3.192   5.371   5.023 -0.0753 -0.5449  0.4172
17184TIP3    H173043   3.202   5.396   4.931  0.3057 -0.9294  0.3489
17184TIP3    H273044   3.273   5.398   5.065 -0.5151  0.2406  0.7932
17185TIP3   OH273045   5.176   3.188  13.086  0.4114  0.0837 -0.5321
17185TIP3    H173046   5.116   3.116  13.068  1.2918 -1.2357  1.4925
17185TIP3    H273047   5.120   3.260  13.117 -0.3155 -0.3226 -0.8875
17186TIP3   OH273048   5.257   2.579   5.184  0.3861 -0.7810 -0.1545
17186TIP3    H173049   5.187   2.539   5.133 -0.3339  0.8469 -0.4857
17186TIP3    H273050   5.337   2.549   5.142 -0.1301 -1.4700 -0.6742
17187TIP3   OH273051   0.475   6.686  12.850 -0.0992  0.0359 -0.1000
17187TIP3    H173052   0.535   6.657  12.782 -0.2621  0.7623 -0.5578
17187TIP3    H273053   0.528   6.742  12.907  0.0946 -0.7529  0.5117
17188TIP3   OH273054   1.775   6.027   5.604 -0.3672  0.1237 -0.2293
17188TIP3    H173055   1.855   6.018   5.655 -0.6713  1.4613  0.5242
17188TIP3    H273056   1.797   5.991   5.518  0.9532  0.2262  0.0536
17189TIP3   OH273057   4.271   0.260  12.112 -0.8430 -0.2286  0.3451
17189TIP3    H173058   4.255   0.240  12.205  0.8386  0.5031  0.8376
17189TIP3    H273059   4.354   0.216  12.092 -0.7073  0.4073 -0.5371
17190TIP3   OH273060   5.193   1.665   2.118 -0.6126  0.4213 -0.1567
17190TIP3    H173061   5.194   1.610   2.196 -0.6739  0.9346  0.2141
17190TIP3    H273062   5.149   1.612   2.052  0.8212 -0.6414 -0.3202
17191TIP3   OH273063   4.117   5.211  12.020  0.3037  0.0109  0.2083
17191TIP3    H173064   4.128   5.116  12.021 -0.7346 -0.1392  1.5561
17191TIP3    H273065   4.024   5.224  12.001  0.2624  0.7071  0.8218
17192TIP3   OH273066   4.932   2.208  15.461  0.6300 -0.0061  0.2336
17192TIP3    H173067   4.853   2.230  15.511 -0.2403 -0.7321 -0.7973
17192TIP3    H273068   5.002   2.256  15.506 -0.3282  0.3743  1.3748
17193TIP3   OH273069   1.544   0.608   3.470  0.6505  0.5194  0.3233
17193TIP3    H173070   1.566   0.517   3.451 -0.1247  0.2441  0.6832
17193TIP3    H273071   1.565   0.656   3.389 -0.8840 -0.3290 -0.6223
17194TIP3   OH273072   3.312   5.405  15.850  0.0818 -0.0316 -0.3635
17194TIP3    H173073   3.282   5.315  15.841  3.1202 -1.2197  0.0154
17194TIP3    H273074   3.360   5.406  15.933  2.4966  1.0940 -1.6534
17195TIP3   OH273075   5.865   3.882  11.603 -0.4103  0.4002  0.4243
17195TIP3    H173076   5.865   3.796  11.644 -0.3525 -0.5466 -1.4536
17195TIP3    H273077   5.954   3.915  11.614 -0.1031 -0.3124  0.1198
17196TIP3   OH273078   6.515   4.510  12.980 -0.8237  0.2445 -0.1923
17196TIP3    H173079   6.602   4.475  12.961 -1.6241 -1.9821 -0.0653
17196TIP3    H273080   6.512   4.593  12.933  1.0467 -0.0366 -0.9092
17197TIP3   OH273081   5.723   5.058  16.563 -0.2086 -0.5980  0.6548
17197TIP3    H173082   5.642   5.017  16.532 -0.7476  0.3712  0.7280
17197TIP3    H273083   5.715   5.149  16.535  0.8781 -0.4971  0.6412
17198TIP3   OH273084   2.492   4.048  14.444 -0.2374 -0.1618 -0.0943
17198TIP3    H173085   2.478   4.090  14.359 -2.0176  0.1524  0.3206
17198TIP3    H273086   2.442   4.101  14.506 -0.1815 -1.2368  0.9132
17199TIP3   OH273087   6.414   6.514   6.204 -0.7131 -0.2203 -0.6443
17199TIP3    H173088   6.426   6.479   6.293  0.4076 -2.8340 -1.7248
17199TIP3    H273089   6.427   6.608   6.213 -2.6018 -0.1025  2.2675
17200TIP3   OH273090   6.405   0.904   3.108  0.2840  0.5432 -0.2234
17200TIP3    H173091   6.310   0.890   3.117  0.3159  0.6157  0.2332
17200TIP3    H273092   6.443   0.852   3.178  0.3455  3.9284  2.5133
17201TIP3   OH273093   5.433   3.874  11.085  1.0426 -0.0835 -0.0514
17201TIP3    H173094   5.498   3.826  11.135  1.4308  1.7951  1.3240
17201TIP3    H273095   5.482   3.941  11.038  0.3427  0.0023 -0.6889
17202TIP3   OH273096   4.911   6.404  15.973  0.4402  0.3378  0.0976
17202TIP3    H173097   4.869   6.318  15.971  0.8195  0.1189  0.8439
17202TIP3    H273098   4.919   6.423  16.067  1.9382  0.3962 -0.0240
17203TIP3   OH273099   0.685   4.357  11.358  0.1970  0.1702 -0.1676
17203TIP3    H173100   0.648   4.303  11.288 -0.5357  1.4266 -0.7884
17203TIP3    H273101   0.713   4.438  11.314  1.6415  0.1658  0.6695
17204TIP3   OH273102   5.354   1.407  15.080  0.1707  0.1097 -0.4477
17204TIP3    H173103   5.275   1.410  15.133 -0.0830 -0.5999 -0.7694
17204TIP3    H273104   5.417   1.359  15.133 -0.6937 -2.4005 -1.5017
17205TIP3   OH273105   0.336   4.773  12.108  0.5869 -0.3354 -0.3298
17205TIP3    H173106   0.300   4.692  12.074 -1.4709  0.9576 -1.4734
17205TIP3    H273107   0.416   4.747  12.153  0.6322 -2.8186 -1.6608
17206TIP3   OH273108   6.260   3.345  16.195 -0.1556  0.8682 -0.3797
17206TIP3    H173109   6.327   3.413  16.206 -0.3111  1.1140 -0.9207
17206TIP3    H273110   6.306   3.273  16.150  0.1999  0.3042  0.8471
17207TIP3   OH273111   3.163   3.586  16.439 -0.6041  0.1469  0.5771
17207TIP3    H173112   3.095   3.519  16.427 -0.6990  0.1033  1.3118
17207TIP3    H273113   3.145   3.622  16.525 -1.6387  2.3630 -0.4789
17208TIP3   OH273114   4.342   6.559   0.498  0.3116 -0.6217  0.0353
17208TIP3    H173115   4.434   6.546   0.475 -0.0630 -0.5551 -1.5909
17208TIP3    H273116   4.330   6.654   0.496 -0.2110 -0.6915 -1.6124
17209TIP3   OH273117   3.674   6.828  11.058 -0.2479  0.1095  0.2410
17209TIP3    H173118   3.591   6.783  11.047 -0.6359  0.7479  0.5345
17209TIP3    H273119   3.725   6.770  11.115  0.4415 -1.4627 -1.8476
17210TIP3   OH273120   2.407   3.606  11.030 -0.2563 -0.3428  0.5596
17210TIP3    H173121   2.459   3.638  11.104 -1.2202 -0.2324  1.2119
17210TIP3    H273122   2.380   3.518  11.057 -1.0454 -0.1055  0.5730
17211TIP3   OH273123   6.564   1.864   6.075  0.2195 -0.2422  0.6940
17211TIP3    H173124   6.606   1.779   6.058  0.3116  0.1001 -0.8668
17211TIP3    H273125   6.613   1.899   6.150  1.1868 -0.8887  0.3987
17212TIP3   OH273126   5.762   0.006   0.583  0.0618 -0.0374 -0.1412
17212TIP3    H173127   5.800  -0.038   0.659 -1.3742 -0.8679  0.1202
17212TIP3    H273128   5.836   0.015   0.522  0.9559 -0.4736  0.8340
17213TIP3   OH273129   6.605   3.581  15.286  0.0043 -1.0508  0.3837
17213TIP3    H173130   6.642   3.549  15.203 -0.7971 -0.9790 -0.0176
17213TIP3    H273131   6.511   3.591  15.267 -0.0967 -0.5212  1.1460
17214TIP3   OH273132   6.462   2.361   4.296 -0.1197  0.0353 -0.2376
17214TIP3    H173133   6.457   2.275   4.337  0.6811  0.2939  0.4223
17214TIP3    H273134   6.371   2.392   4.293 -0.2308 -0.1551  0.9698
17215TIP3   OH273135   3.745   2.389   1.312  1.1979  0.4816 -0.3746
17215TIP3    H173136   3.733   2.303   1.352  0.4716  0.2543 -1.0498
17215TIP3    H273137   3.656   2.422   1.301  1.1354 -0.5964 -4.2222
17216TIP3   OH273138   2.205   5.671  13.120 -0.0771  0.8402  0.2985
17216TIP3    H173139   2.151   5.625  13.056 -0.7216 -0.0735  1.4528
17216TIP3    H273140   2.144   5.691  13.191  0.6365  1.7617  0.6615
17217TIP3   OH273141   5.234   3.090   3.308  0.2743  0.3957 -0.3106
17217TIP3    H173142   5.321   3.103   3.346  0.6832 -1.2258 -0.6467
17217TIP3    H273143   5.180   3.064   3.382  0.3610  0.2096 -0.3125
17218TIP3   OH273144   1.533   0.923  15.802 -0.1736  0.1687 -0.4545
17218TIP3    H173145   1.439   0.935  15.785 -0.0419  1.4387 -0.3266
17218TIP3    H273146   1.538   0.835  15.841 -1.2683 -0.0490 -0.7520
17219TIP3   OH273147   6.589   1.862   1.866  0.5097  0.6530  0.0843
17219TIP3    H173148   6.557   1.836   1.780  0.3027 -0.3350  0.4448
17219TIP3    H273149   6.625   1.782   1.904  3.6190  1.6964 -0.3378
17220TIP3   OH273150   1.366   0.978  15.464 -0.0373 -0.1172 -0.0999
17220TIP3    H173151   1.445   1.027  15.485 -0.1510 -0.1254  0.3714
17220TIP3    H273152   1.297   1.045  15.463  0.1829  0.1272 -1.9406
17221TIP3   OH273153   2.242   0.726  15.936  0.0739  0.3743 -0.5863
17221TIP3    H173154   2.197   0.667  15.997 -1.1187  0.1388 -1.6583
17221TIP3    H273155   2.326   0.745  15.979 -0.7879  0.3573  1.1900
17222TIP3   OH273156   2.341   0.406  11.478  0.2301 -0.1665  0.9107
17222TIP3    H173157   2.376   0.354  11.406  0.2036  2.8787 -1.4909
17222TIP3    H273158   2.251   0.374  11.489 -0.0973 -0.0678 -1.1156
17223TIP3   OH273159   6.054   2.893  15.288 -0.0560 -0.4765 -0.0773
17223TIP3    H173160   6.128   2.833  15.297 -1.0773 -1.7363  0.2005
17223TIP3    H273161   5.988   2.843  15.240 -1.8128 -0.4652  2.1449
17224TIP3   OH273162   4.569   5.071  12.841 -0.0000  0.4271 -0.0829
17224TIP3    H173163   4.514   5.139  12.801  2.0635  2.1006 -0.2570
17224TIP3    H273164   4.655   5.084  12.802  0.5165 -2.2963 -0.0500
17225TIP3   OH273165   0.686   2.764   1.424 -0.0046 -0.5901  0.1523
17225TIP3    H173166   0.649   2.698   1.367 -1.4900  1.3299 -1.2517
17225TIP3    H273167   0.780   2.748   1.421 -0.1100 -1.1474 -2.1158
17226TIP3   OH273168   1.067   3.601  14.692  0.1940  0.5510 -0.0888
17226TIP3    H173169   1.041   3.520  14.649  1.2236  0.2671 -0.1975
17226TIP3    H273170   1.058   3.582  14.786 -0.1617  0.5230 -0.1268
17227TIP3   OH273171   1.486   5.796  12.214  0.4828  0.7360 -0.5297
17227TIP3    H173172   1.393   5.801  12.235  0.2075 -0.5813 -1.3385
17227TIP3    H273173   1.530   5.825  12.295 -0.6050  0.0752  0.3276
17228TIP3   OH273174   4.020   6.112   4.519  0.3310  0.0399  0.0179
17228TIP3    H173175   4.050   6.135   4.431  1.6194  1.1038  0.6976
17228TIP3    H273176   4.057   6.180   4.575 -0.6115 -0.5239  1.3682
17229TIP3   OH273177   4.241   3.007  16.488 -0.0269 -0.1086  0.6327
17229TIP3    H173178   4.209   3.010  16.578 -0.7830 -1.2588  0.4266
17229TIP3    H273179   4.205   2.926  16.452  2.6006 -1.1419  0.1364
17230TIP3   OH273180   1.594   0.203  14.076  0.4040 -0.5806  0.5097
17230TIP3    H173181   1.519   0.261  14.066  0.9573  0.5856  2.5801
17230TIP3    H273182   1.666   0.260  14.103  1.5363 -1.9286  0.4624
17231TIP3   OH273183   1.405   6.541   2.703 -0.2671 -0.0962 -0.0829
17231TIP3    H173184   1.393   6.539   2.798 -0.6595  0.4549 -0.1219
17231TIP3    H273185   1.341   6.478   2.670 -0.2333 -0.1779  0.0055
17232TIP3   OH273186   6.368   0.971   3.541  0.3664 -0.2960 -0.6761
17232TIP3    H173187   6.285   0.947   3.499 -0.8099  1.5414  0.4259
17232TIP3    H273188   6.414   0.888   3.552 -0.9692 -1.2772 -2.0585
17233TIP3   OH273189   3.143   3.615  15.598 -0.3191  0.3707 -0.5518
17233TIP3    H173190   3.095   3.679  15.546  0.4195 -0.3075 -2.1197
17233TIP3    H273191   3.178   3.666  15.672 -1.2719  1.3824 -0.7804
17234TIP3   OH273192   6.366   4.524   1.686 -0.5720  0.0265  0.0196
17234TIP3    H173193   6.422   4.573   1.627 -1.5901 -0.2499 -1.2303
17234TIP3    H273194   6.306   4.477   1.628 -1.1883 -0.7705  1.2608
17235TIP3   OH273195   3.908   6.630   3.100 -0.2173  0.3361  0.4333
17235TIP3    H173196   3.909   6.721   3.131 -1.4288  0.2945  0.6624
17235TIP3    H273197   3.815   6.611   3.087 -0.0372 -1.1124  1.0933
17236TIP3   OH273198   2.040   5.853  16.675  0.2054 -0.3594  0.7340
17236TIP3    H173199   1.958   5.865  16.627  0.2450 -1.4584  0.3671
17236TIP3    H273200   2.065   5.942  16.701 -0.0512  0.2230 -0.8715
17237TIP3   OH273201   2.186   5.996  14.686 -0.4040 -0.4629 -0.1304
17237TIP3    H173202   2.223   5.955  14.608 -1.5677 -0.8390 -0.5117
17237TIP3    H273203   2.261   6.021  14.738  0.3731 -1.7255 -0.6012
17238TIP3   OH273204   5.196   5.079  12.712  0.5510 -0.2222 -0.9273
17238TIP3    H173205   5.263   5.118  12.768  0.4455  0.1457 -1.0498
17238TIP3    H273206   5.184   4.991  12.746  1.3172 -0.3972 -1.0989
17239TIP3   OH273207   3.807   0.829   3.711 -0.9409  0.0092  0.6530
17239TIP3    H173208   3.722   0.833   3.667  0.0235 -1.2124 -1.4843
17239TIP3    H273209   3.840   0.918   3.708 -1.9725  0.4355  1.2315
17240TIP3   OH273210   5.924   1.135   0.806  0.1292 -1.1597 -0.1159
17240TIP3    H173211   5.879   1.052   0.792 -0.7470 -0.3958 -2.1641
17240TIP3    H273212   5.945   1.167   0.718 -0.5863  1.3202  0.5174
17241TIP3   OH273213   1.737   4.160  11.815  0.4739  0.1906 -0.1639
17241TIP3    H173214   1.756   4.250  11.785  1.6363 -0.3357 -1.0927
17241TIP3    H273215   1.682   4.123  11.745 -1.4133  0.6636  0.9930
17242TIP3   OH273216   1.309   4.826   0.554  0.1452 -0.4735  0.0546
17242TIP3    H173217   1.404   4.839   0.547  0.1808 -0.8637 -0.2481
17242TIP3    H273218   1.278   4.902   0.602  0.3286  0.8053 -1.7274
17243TIP3   OH273219   1.925   5.336  15.239  0.0752 -0.8472 -0.2704
17243TIP3    H173220   1.917   5.353  15.333  1.5981  0.5586 -0.3511
17243TIP3    H273221   1.834   5.336  15.207 -0.4015  2.7000  0.5983
17244TIP3   OH273222   6.645   2.512   2.047 -0.3541  0.1241  1.0613
17244TIP3    H173223   6.692   2.488   2.127 -0.6587  1.3460  1.6266
17244TIP3    H273224   6.689   2.591   2.016  0.7534 -1.1593 -0.8659
17245TIP3   OH273225   4.643   3.437   1.511 -0.3129 -0.3675 -0.1152
17245TIP3    H173226   4.707   3.367   1.521 -2.6883 -2.7816 -0.5084
17245TIP3    H273227   4.591   3.411   1.434 -3.3173  0.0155  1.6118
17246TIP3   OH273228   4.660   3.872   0.382 -0.0378 -0.4502  0.8214
17246TIP3    H173229   4.597   3.866   0.310  1.5997  2.4453 -1.0588
17246TIP3    H273230   4.622   3.937   0.441 -0.1116 -0.8237  1.1932
17247TIP3   OH273231   1.989   0.477  15.926 -0.3954 -0.0795 -0.3340
17247TIP3    H173232   2.049   0.471  16.001  0.4069 -0.2035 -0.9658
17247TIP3    H273233   2.042   0.515  15.856 -0.9259 -0.6123 -1.0415
17248TIP3   OH273234   0.402   5.546  15.557 -0.7483 -0.0404  0.0109
17248TIP3    H173235   0.460   5.486  15.510  1.4890  0.7241  1.6082
17248TIP3    H273236   0.314   5.511  15.542  0.2703 -2.5272 -0.7849
17249TIP3   OH273237   4.933   1.782  10.878  0.3552 -0.3148  0.0624
17249TIP3    H173238   5.005   1.786  10.816  0.4890 -0.8961  0.1824
17249TIP3    H273239   4.885   1.703  10.854  0.2829 -0.4223  0.5680
17250TIP3   OH273240   3.378   2.333  13.027 -0.1483 -0.2315 -0.5884
17250TIP3    H173241   3.362   2.246  12.992  1.4630 -0.6567 -0.3216
17250TIP3    H273242   3.405   2.318  13.118 -2.1879  0.7219  0.2566
17251TIP3   OH273243   1.518   0.520  16.273 -0.6656 -0.2256  0.2787
17251TIP3    H173244   1.463   0.541  16.198 -0.1024 -0.0341 -0.0850
17251TIP3    H273245   1.532   0.425  16.267 -0.4164 -0.1722 -0.0016
17252TIP3   OH273246   4.730   0.154  12.590 -0.1549 -0.5161 -0.7864
17252TIP3    H173247   4.693   0.243  12.594  0.0828 -0.4328  2.7141
17252TIP3    H273248   4.655   0.097  12.602 -0.1129 -0.7296 -1.5215
17253TIP3   OH273249   5.836   4.961  17.080  0.4380  0.3709 -0.0797
17253TIP3    H173250   5.759   5.016  17.067 -0.3762 -1.1102 -1.9234
17253TIP3    H273251   5.837   4.942  17.174 -2.6763 -1.2112 -0.2478
17254TIP3   OH273252   2.287   0.912   6.133 -0.0424  0.3046  0.6033
17254TIP3    H173253   2.292   0.991   6.187  0.6737 -1.0560  2.6436
17254TIP3    H273254   2.364   0.861   6.159 -0.2947 -0.9043 -0.9291
17255TIP3   OH273255   5.348   0.185  16.389 -0.5946  0.0879  0.3185
17255TIP3    H173256   5.325   0.167  16.298  1.2498  1.1194 -0.4162
17255TIP3    H273257   5.433   0.142  16.401 -0.6109  0.3300  1.4309
17256TIP3   OH273258   2.179   0.826   1.314  0.7196 -0.0202  0.2485
17256TIP3    H173259   2.257   0.815   1.259  0.6029  0.3436  0.0051
17256TIP3    H273260   2.214   0.833   1.403  0.8293 -1.8833  0.3841
17257TIP3   OH273261   6.522   2.175  13.817 -0.1837 -0.5072 -0.0560
17257TIP3    H173262   6.602   2.199  13.863 -0.1454 -2.8212  1.2538
17257TIP3    H273263   6.465   2.251  13.828  2.2389  1.8453 -2.3472
17258TIP3   OH273264   1.147   3.615  16.232  0.1227 -0.6619 -0.0514
17258TIP3    H173265   1.188   3.604  16.318  3.3123  0.8791 -1.2491
17258TIP3    H273266   1.155   3.708  16.213 -0.9255 -0.8988 -1.8754
17259TIP3   OH273267   5.090   4.653   3.639 -0.1598 -0.1163 -0.0483
17259TIP3    H173268   5.098   4.615   3.727  0.0298  0.0300 -0.0005
17259TIP3    H273269   5.176   4.639   3.599 -0.4332 -0.7247 -0.4344
17260TIP3   OH273270   3.989   6.435   0.666 -0.3627  0.0414 -0.1625
17260TIP3    H173271   4.084   6.443   0.658 -0.1634  0.7712  2.1926
17260TIP3    H273272   3.974   6.341   0.672  0.6796 -0.0572  2.9588
17261TIP3   OH273273   5.706   5.839   0.250  0.3123 -0.3909  0.0308
17261TIP3    H173274   5.625   5.797   0.221  0.5654 -0.3865 -0.6913
17261TIP3    H273275   5.741   5.780   0.316  0.3647 -1.0226 -0.5511
17262TIP3   OH273276   6.833   2.285  10.836 -0.5031 -0.7661  0.7173
17262TIP3    H173277   6.906   2.285  10.898 -0.2377  0.1496  0.4106
17262TIP3    H273278   6.873   2.300  10.751 -1.1782  1.5569  0.7435
17263TIP3   OH273279   4.282   4.348   2.002 -0.1291  0.1976 -0.4105
17263TIP3    H173280   4.310   4.434   1.971  1.9970  0.1846  1.1728
17263TIP3    H273281   4.359   4.292   1.989 -0.0236 -0.4224  2.2397
17264TIP3   OH273282   2.706   3.454  15.089 -0.3047 -0.4643 -0.2761
17264TIP3    H173283   2.783   3.440  15.144  0.0235  0.8342 -0.3718
17264TIP3    H273284   2.662   3.529  15.128 -0.2432  0.2745 -1.5792
17265TIP3   OH273285   4.489   1.908  15.789  0.8734  0.2969 -0.1115
17265TIP3    H173286   4.543   1.987  15.783  1.5588 -0.1222  0.3354
17265TIP3    H273287   4.542   1.847  15.841  0.1834 -0.3127 -0.1090
17266TIP3   OH273288   5.163   2.158   4.233 -0.3101  0.7273 -0.2721
17266TIP3    H173289   5.254   2.146   4.262 -0.4092 -0.5509 -0.4129
17266TIP3    H273290   5.146   2.252   4.244  0.7390  0.8379  0.5968
17267TIP3   OH273291   2.307   0.120   5.463 -0.5730  0.1604  0.0859
17267TIP3    H173292   2.373   0.061   5.427 -0.5782 -0.1273  0.5407
17267TIP3    H273293   2.340   0.208   5.442  0.1059  0.0263  0.5539
17268TIP3   OH273294   4.702   0.003  12.004 -0.1739 -0.2453  0.1496
17268TIP3    H173295   4.724  -0.068  11.943 -0.6796 -2.5171  2.4533
17268TIP3    H273296   4.771  -0.001  12.070 -1.4585 -0.1612  1.5504
17269TIP3   OH273297   2.220   4.399  11.898  0.4872 -0.0648 -0.0056
17269TIP3    H173298   2.168   4.386  11.819  0.7681 -0.9718 -0.0560
17269TIP3    H273299   2.308   4.369  11.875  0.7462  0.3308  0.4391
17270TIP3   OH273300   2.417   0.446   2.893  0.3240  0.4084  0.1322
17270TIP3    H173301   2.337   0.417   2.849 -0.5592  0.4442  1.6315
17270TIP3    H273302   2.389   0.464   2.983  1.7973  1.5065  0.4012
17271TIP3   OH273303   0.746   1.738   2.168 -1.1711  0.2539 -0.0951
17271TIP3    H173304   0.766   1.771   2.081 -1.1366 -0.8010 -0.5064
17271TIP3    H273305   0.653   1.755   2.179 -1.0997  0.7122 -0.1933
17272TIP3   OH273306   6.637   2.812   4.886 -0.9868  0.1017  0.3366
17272TIP3    H173307   6.705   2.775   4.830 -1.1347 -0.2267  0.3736
17272TIP3    H273308   6.656   2.906   4.887 -0.0418 -0.0793  0.9948
17273TIP3   OH273309   4.150   4.900  10.268 -0.2374 -0.0637  0.0079
17273TIP3    H173310   4.150   4.805  10.279 -0.5144 -0.0573  0.0607
17273TIP3    H273311   4.064   4.928  10.298 -0.7680  0.0338 -1.5008
17274TIP3   OH273312   5.742   4.094  16.606 -0.1024 -0.0534 -0.4530
17274TIP3    H173313   5.677   4.064  16.670 -0.4942 -1.2749 -1.3914
17274TIP3    H273314   5.796   4.156  16.655 -1.4430  0.3587  0.5846
17275TIP3   OH273315   0.594   2.256  11.362  0.8323  0.2633 -0.0063
17275TIP3    H173316   0.529   2.229  11.297 -0.6724  2.4838  0.4805
17275TIP3    H273317   0.645   2.176  11.379 -0.5978 -1.1058 -1.7267
17276TIP3   OH273318   4.260   3.346   4.634  0.4057  0.9164  0.0987
17276TIP3    H173319   4.213   3.427   4.615 -0.2076  0.5465  0.0159
17276TIP3    H273320   4.344   3.356   4.590  0.4570  1.6321  0.3444
17277TIP3   OH273321   0.973   5.431   2.842 -0.0813  1.1081 -0.3091
17277TIP3    H173322   0.934   5.407   2.926  0.3032  1.1086 -0.1280
17277TIP3    H273323   0.976   5.527   2.843 -1.3763  1.1731 -0.9224
17278TIP3   OH273324   6.590   5.334  14.954  0.1077 -1.0554  0.4340
17278TIP3    H173325   6.521   5.279  14.917  1.1699 -2.4168  0.3920
17278TIP3    H273326   6.543   5.400  15.006 -1.3469 -0.0763 -1.9810
17279TIP3   OH273327   2.275   3.718  12.118 -0.3443 -0.3073 -0.3790
17279TIP3    H173328   2.291   3.663  12.195  0.5408  1.4340  0.7270
17279TIP3    H273329   2.353   3.705  12.064  0.1533  0.3188  0.1760
17280TIP3   OH273330   1.634   5.149  15.638  0.0464 -0.3198 -0.2019
17280TIP3    H173331   1.702   5.118  15.578  0.4264  0.5108 -0.2057
17280TIP3    H273332   1.579   5.206  15.583  1.3864  1.8518  0.6022
17281TIP3   OH273333   5.500   2.721  13.778 -0.0329  0.1209 -0.0202
17281TIP3    H173334   5.516   2.729  13.873  1.9668  1.7917 -0.4188
17281TIP3    H273335   5.583   2.746  13.738 -1.1828  0.5840 -2.2680
17282TIP3   OH273336   6.479   5.701  12.992  0.3465  0.0831 -0.4177
17282TIP3    H173337   6.560   5.685  12.945  0.6663  0.6118 -0.0673
17282TIP3    H273338   6.474   5.796  12.999  0.5387  0.0178  0.9756
17283TIP3   OH273339   1.818   3.540  15.893 -0.3144 -0.3410  0.7726
17283TIP3    H173340   1.790   3.615  15.840 -1.3163 -0.2910  1.3383
17283TIP3    H273341   1.896   3.571  15.939  0.6624 -0.4347 -0.7607
17284TIP3   OH273342   5.950   1.863  13.896  0.4674  0.9974  0.1242
17284TIP3    H173343   5.860   1.867  13.865  1.3875  1.0357 -2.9032
17284TIP3    H273344   5.986   1.784  13.856  1.1517 -0.5610  3.4618
17285TIP3   OH273345   5.409   1.906   2.988 -0.2057  0.0571  0.5141
17285TIP3    H173346   5.351   1.842   2.947 -0.7541  1.2200 -0.5568
17285TIP3    H273347   5.358   1.941   3.061  0.4643 -1.3982  1.7550
17286TIP3   OH273348   3.802   3.613   4.518  0.1495  0.7290 -0.2480
17286TIP3    H173349   3.746   3.541   4.489 -2.0451  1.3556  2.1207
17286TIP3    H273350   3.777   3.687   4.464  0.3538  0.4505 -0.7325
17287TIP3   OH273351   3.299   1.112  11.612  0.0993  0.5585 -0.6029
17287TIP3    H173352   3.217   1.161  11.618  1.2671  2.5336  0.3910
17287TIP3    H273353   3.335   1.136  11.526 -0.6151 -0.7720 -1.2905
17288TIP3   OH273354   4.453   0.004  13.981  0.1487 -0.1232 -0.4688
17288TIP3    H173355   4.521   0.035  13.921 -2.1113  1.5860 -2.3718
17288TIP3    H273356   4.500  -0.046  14.047  3.0029 -0.7853 -2.7886
17289TIP3   OH273357   2.497   3.917   3.006 -0.0187  0.0937 -0.1345
17289TIP3    H173358   2.516   3.863   2.930 -2.1818  0.2311 -0.8282
17289TIP3    H273359   2.436   3.984   2.974 -0.8233  0.2809  1.6648
17290TIP3   OH273360   1.960   3.398   2.599  0.3578 -0.1375  0.3006
17290TIP3    H173361   1.942   3.402   2.693  0.1613  1.4026  0.2234
17290TIP3    H273362   2.023   3.468   2.584 -0.1940  0.1448 -0.8328
17291TIP3   OH273363   5.298   5.174  16.465 -0.3385 -0.1803 -0.8379
17291TIP3    H173364   5.349   5.115  16.520  0.3815  1.0302 -0.1696
17291TIP3    H273365   5.208   5.164  16.495 -0.1173 -0.4065 -0.2435
17292TIP3   OH273366   0.252   1.552   3.485 -0.0248  0.1391 -0.1222
17292TIP3    H173367   0.330   1.584   3.530 -0.6263  1.1460  0.2222
17292TIP3    H273368   0.274   1.559   3.392  0.9416 -1.2625 -0.0388
17293TIP3   OH273369   2.517   6.824   5.375 -0.1876 -0.1185 -0.0720
17293TIP3    H173370   2.568   6.885   5.428 -1.5987  1.3706 -0.3492
17293TIP3    H273371   2.575   6.799   5.304  0.8300 -0.0722  0.7190
17294TIP3   OH273372   6.660   4.173   5.239 -0.1809 -0.0772  0.2316
17294TIP3    H173373   6.587   4.212   5.192 -0.2005 -0.4818 -0.0749
17294TIP3    H273374   6.722   4.246   5.251  0.6829 -0.3455 -2.0991
17295TIP3   OH273375   2.499   4.680  17.193 -0.1177  0.3436 -1.3139
17295TIP3    H173376   2.499   4.665  17.288  2.3817 -2.8046 -1.6380
17295TIP3    H273377   2.561   4.751  17.180 -2.0459  2.2639 -0.5401
17296TIP3   OH273378   5.015   5.285   1.107 -0.0890 -0.2924  0.4024
17296TIP3    H173379   5.060   5.355   1.060  1.8564 -0.3883  1.9837
17296TIP3    H273380   4.962   5.241   1.040  0.1198  1.4837 -1.0020
17297TIP3   OH273381   5.232   3.483  15.862  0.4047 -0.4861 -0.5568
17297TIP3    H173382   5.248   3.407  15.806  0.6148 -0.9091  0.0687
17297TIP3    H273383   5.312   3.492  15.914  0.5015  0.3411 -0.8231
17298TIP3   OH273384   4.232   6.576  15.132 -0.1929 -0.2120 -0.2231
17298TIP3    H173385   4.152   6.618  15.160  1.1095  2.4595 -0.2542
17298TIP3    H273386   4.299   6.607  15.193  1.1399 -1.0212 -1.2040
17299TIP3   OH273387   2.568   0.753  16.565 -0.1955  0.0074  0.1040
17299TIP3    H173388   2.529   0.668  16.582 -1.4270 -0.0890 -2.6778
17299TIP3    H273389   2.650   0.733  16.520 -0.7653  0.2554 -1.0807
17300TIP3   OH273390   1.870   2.024   1.780 -0.1988  0.0509  0.0778
17300TIP3    H173391   1.874   1.944   1.727 -0.3313 -1.1777  1.8227
17300TIP3    H273392   1.853   1.992   1.869  1.1753  1.9353  1.0778
17301TIP3   OH273393   4.644   5.675   2.523 -0.1156  0.5734 -0.2939
17301TIP3    H173394   4.630   5.641   2.435 -0.5417  2.1107 -0.8540
17301TIP3    H273395   4.736   5.702   2.524  0.1259 -0.2174  0.0368
17302TIP3   OH273396   6.075   5.682   6.087  0.3089 -0.7643 -0.0461
17302TIP3    H173397   6.150   5.624   6.074 -0.2707 -1.5286 -0.0346
17302TIP3    H273398   6.005   5.642   6.036 -0.7724 -1.3932  1.8406
17303TIP3   OH273399   5.231   4.409  15.693 -0.0846 -0.2007  0.1422
17303TIP3    H173400   5.314   4.377  15.728 -0.4677 -3.2453 -1.4099
17303TIP3    H273401   5.243   4.410  15.598 -1.2854  1.0399 -0.0281
17304TIP3   OH273402   5.652   3.468   5.064  0.6726 -0.3216  0.2051
17304TIP3    H173403   5.743   3.440   5.056  0.6171 -0.3843 -0.2221
17304TIP3    H273404   5.646   3.503   5.153  1.2795  0.2681  0.0289
17305TIP3   OH273405   0.375   2.385   3.082 -0.0167 -0.5710  1.0211
17305TIP3    H173406   0.429   2.450   3.037 -1.6809  0.2330  0.1074
17305TIP3    H273407   0.424   2.365   3.162  0.4201  2.0322  1.4849
17306TIP3   OH273408   2.845   2.072   0.511  0.1016  0.5011 -0.8164
17306TIP3    H173409   2.866   2.139   0.447 -1.6770 -0.3649 -2.4077
17306TIP3    H273410   2.771   2.107   0.560 -0.3890  0.0225 -1.1923
17307TIP3   OH273411   3.410   6.178   5.964 -0.0265  0.0986 -0.0067
17307TIP3    H173412   3.340   6.184   6.029  0.8877  0.5973  0.9364
17307TIP3    H273413   3.394   6.252   5.905 -1.2533 -0.7434 -0.7904
17308TIP3   OH273414   4.618   4.840   1.387  0.0344 -0.1212  0.5884
17308TIP3    H173415   4.685   4.775   1.368  0.2351  0.1221  0.4582
17308TIP3    H273416   4.640   4.873   1.474 -0.8059 -1.1371  1.2114
17309TIP3   OH273417   1.546   6.130  14.484 -0.3045 -0.2649 -0.2846
17309TIP3    H173418   1.561   6.224  14.496 -1.0467 -0.1860  0.1157
17309TIP3    H273419   1.567   6.113  14.393  0.6922  0.1161 -0.1400
17310TIP3   OH273420   4.421   4.124  16.585  0.2296  1.0284  0.1002
17310TIP3    H173421   4.468   4.189  16.636 -0.0296  0.3002  1.2957
17310TIP3    H273422   4.332   4.126  16.619  0.1916  0.1253  0.0808
17311TIP3   OH273423   6.304   1.408   2.136  0.1421 -0.0876  0.0875
17311TIP3    H173424   6.340   1.396   2.224  1.8980 -3.7589 -0.9223
17311TIP3    H273425   6.378   1.441   2.085 -0.9323  2.2685 -0.0927
17312TIP3   OH273426   2.490   0.281   0.935  0.1210  0.8013  0.5968
17312TIP3    H173427   2.470   0.372   0.914 -1.6572  0.6279  1.3717
17312TIP3    H273428   2.563   0.285   0.996 -1.4870  1.8878  2.5480
17313TIP3   OH273429   4.250   4.340   2.707 -0.8728  0.3980  0.3492
17313TIP3    H173430   4.232   4.419   2.757 -1.5649  0.5452 -0.1090
17313TIP3    H273431   4.314   4.292   2.759  0.2226  1.6649  0.2143
17314TIP3   OH273432   5.133   0.154  11.128  0.4916 -0.2415  0.2646
17314TIP3    H173433   5.040   0.131  11.126  0.0280  1.1553  2.5734
17314TIP3    H273434   5.144   0.219  11.058 -0.6282  0.7029  0.9381
17315TIP3   OH273435   3.068   6.259   5.701  0.1593 -0.1284 -0.4763
17315TIP3    H173436   3.059   6.332   5.640 -1.5303 -0.8169 -1.0885
17315TIP3    H273437   3.006   6.193   5.670  2.4038 -2.3233 -0.5767
17316TIP3   OH273438   4.559   3.006   4.839  0.2874  0.2101 -0.0219
17316TIP3    H173439   4.485   2.949   4.816  1.2174 -1.6385  1.2959
17316TIP3    H273440   4.636   2.953   4.819  1.3846  2.5058 -2.4500
17317TIP3   OH273441   0.403   1.490  16.925  0.4417 -0.3498  0.0743
17317TIP3    H173442   0.332   1.502  16.861  1.7439 -0.2940 -1.4414
17317TIP3    H273443   0.467   1.557  16.902  1.2355 -0.7541  1.0379
17318TIP3   OH273444   3.646   5.643   2.845 -0.2102 -0.0595 -0.0832
17318TIP3    H173445   3.687   5.680   2.767  0.2839 -1.4406 -0.5103
17318TIP3    H273446   3.701   5.674   2.918  1.0615 -1.1138 -0.5625
17319TIP3   OH273447   0.133   0.358   4.790  0.6674 -0.0012 -0.4021
17319TIP3    H173448   0.158   0.418   4.719  4.0126 -1.4249 -0.6017
17319TIP3    H273449   0.113   0.275   4.745 -2.9678  0.5151 -0.0444
17320TIP3   OH273450   2.761   4.122  11.852  0.1025  0.0102 -0.2809
17320TIP3    H173451   2.690   4.079  11.805 -0.0808  0.0229 -0.0151
17320TIP3    H273452   2.727   4.209  11.873  1.2278  1.1664 -2.7449
17321TIP3   OH273453   3.495   1.689   2.118  0.4514  0.4882  0.3521
17321TIP3    H173454   3.548   1.737   2.054  0.0101 -0.2321 -0.5851
17321TIP3    H273455   3.509   1.597   2.096 -1.5003  0.2844 -0.2048
17322TIP3   OH273456   3.640   5.082  16.127  0.3276  0.6120  0.0210
17322TIP3    H173457   3.733   5.064  16.113  0.6171 -0.5092  2.6366
17322TIP3    H273458   3.629   5.174  16.107  1.8343  0.5860 -1.0586
17323TIP3   OH273459   2.715   4.305   1.748 -0.1944  0.0523 -0.7856
17323TIP3    H173460   2.777   4.242   1.784 -1.1884 -0.1713  0.6494
17323TIP3    H273461   2.710   4.284   1.655  0.4196 -1.1796 -0.5557
17324TIP3   OH273462   2.430   2.154  17.061  0.7381 -0.2008  0.6636
17324TIP3    H173463   2.373   2.136  16.987 -1.4682 -0.0188  2.2284
17324TIP3    H273464   2.507   2.196  17.022 -0.2266 -0.3286 -1.5261
17325TIP3   OH273465   5.463   3.236   2.652 -0.3685 -0.0942  0.5579
17325TIP3    H173466   5.467   3.285   2.734  2.3630  2.4741 -0.9331
17325TIP3    H273467   5.390   3.276   2.605 -1.0063 -0.5890  1.0943
17326TIP3   OH273468   6.561   0.290   5.341 -0.2991  0.1516  0.0206
17326TIP3    H173469   6.592   0.378   5.319 -2.1658  0.8483  0.0768
17326TIP3    H273470   6.531   0.253   5.258  0.9771 -0.6975 -0.1097
17327TIP3   OH273471   4.742   3.075  16.271  1.0734  0.2837  0.0604
17327TIP3    H173472   4.832   3.089  16.243  0.8588  0.6679 -0.4834
17327TIP3    H273473   4.711   3.162  16.297  0.9629  0.0958  0.5691
17328TIP3   OH273474   1.464   0.449  10.962  0.8249 -0.0652 -0.2710
17328TIP3    H173475   1.536   0.512  10.958  1.4966 -0.8449 -3.2110
17328TIP3    H273476   1.442   0.432  10.870 -0.4627 -2.8481  0.4342
17329TIP3   OH273477   2.484   0.501   3.628 -0.1345  0.4502 -0.7207
17329TIP3    H173478   2.548   0.566   3.600  0.4560 -0.0837 -0.6405
17329TIP3    H273479   2.470   0.518   3.721 -1.1527  1.4310 -1.0297
17330TIP3   OH273480   0.194   0.528   3.025  0.0062  0.0442  0.2292
17330TIP3    H173481   0.156   0.444   2.999  2.5545 -0.7883 -1.1167
17330TIP3    H273482   0.176   0.586   2.951  0.8903 -0.2353 -0.2252
17331TIP3   OH273483   3.888   3.729   2.209  0.2422 -0.0531  0.0879
17331TIP3    H173484   3.802   3.749   2.173 -0.1186  1.8075  1.8336
17331TIP3    H273485   3.943   3.803   2.183  1.1236 -0.8024 -0.2735
17332TIP3   OH273486   1.101   5.886   4.284  0.2876 -0.8853 -0.4814
17332TIP3    H173487   1.172   5.887   4.349  1.0238  0.3822 -1.2526
17332TIP3    H273488   1.099   5.796   4.251 -1.4758 -2.1732  2.6796
17333TIP3   OH273489   0.505   6.363  13.946  0.3005 -0.2848  0.8042
17333TIP3    H173490   0.579   6.361  14.007  1.0233  0.4316 -0.0253
17333TIP3    H273491   0.510   6.450  13.906  0.4452 -1.0818 -0.9938
17334TIP3   OH273492   6.364   2.419  13.829 -0.4703  0.1201 -0.2819
17334TIP3    H173493   6.272   2.436  13.811 -0.9114  0.0889  1.6777
17334TIP3    H273494   6.384   2.475  13.905  0.2591 -2.0398  1.2257
17335TIP3   OH273495   2.352   6.665   0.433  0.4155 -0.7831 -0.0307
17335TIP3    H173496   2.397   6.749   0.443 -0.7576 -0.1210 -0.1704
17335TIP3    H273497   2.355   6.648   0.339  3.0534 -2.2950  0.2255
17336TIP3   OH273498   0.341   1.641  13.212  0.1694 -0.2161  0.3887
17336TIP3    H173499   0.375   1.575  13.273 -1.8841 -1.2375  0.4990
17336TIP3    H273500   0.361   1.605  13.125 -1.5646 -1.4197  0.4302
17337TIP3   OH273501   6.630   0.620  15.689  0.5134 -0.3295 -0.1168
17337TIP3    H173502   6.648   0.708  15.657 -0.8061  0.2376  0.5977
17337TIP3    H273503   6.575   0.581  15.621 -1.8605  0.6944  1.0981
17338TIP3   OH273504   4.129   5.168   2.994 -0.7645  0.1691  0.3321
17338TIP3    H173505   4.063   5.098   2.994  0.1045 -0.7095 -1.2145
17338TIP3    H273506   4.144   5.186   2.901  2.6133 -1.0819  0.5000
17339TIP3   OH273507   2.216   6.748  14.430  0.1570 -0.7195  0.0083
17339TIP3    H173508   2.125   6.719  14.437  0.3338 -1.4447 -0.5344
17339TIP3    H273509   2.211   6.829  14.379 -0.1315 -1.1775 -0.7204
17340TIP3   OH273510   5.856   3.275   2.704  0.6378  0.5961  0.0680
17340TIP3    H173511   5.808   3.216   2.647 -0.1372  0.9197  0.3712
17340TIP3    H273512   5.934   3.226   2.730  0.1863 -0.1498  0.0207
17341TIP3   OH273513   5.290   3.490   3.395  0.1001 -0.2239 -0.3572
17341TIP3    H173514   5.347   3.437   3.340 -0.1332 -0.4178 -0.4127
17341TIP3    H273515   5.349   3.532   3.457  0.2165 -1.0768  0.1248
17342TIP3   OH273516   5.113   1.563  12.213 -0.3621  0.5012  0.3454
17342TIP3    H173517   5.207   1.578  12.210  0.2409 -2.8100 -0.4165
17342TIP3    H273518   5.077   1.622  12.147  1.5643 -0.2845 -1.4958
17343TIP3   OH273519   0.822   6.062   0.582 -0.0973 -0.3348  0.0709
17343TIP3    H173520   0.911   6.055   0.615  0.9601  1.1330 -2.2624
17343TIP3    H273521   0.779   6.123   0.642  1.2168  0.8507 -0.1308
17344TIP3   OH273522   0.222   6.337   0.541  0.1868  0.2998  0.5571
17344TIP3    H173523   0.207   6.415   0.487 -0.9057  0.9990  1.8054
17344TIP3    H273524   0.264   6.274   0.481  2.8875  2.4535 -0.0224
17345TIP3   OH273525   3.377   4.859   0.682 -0.0592 -0.4781  0.1329
17345TIP3    H173526   3.299   4.804   0.681 -0.4004 -0.0073 -0.9262
17345TIP3    H273527   3.437   4.817   0.621 -0.4360  0.4463 -0.9102
17346TIP3   OH273528   0.656   1.226  14.324 -0.0491  0.0003  0.2674
17346TIP3    H173529   0.633   1.221  14.417  0.0204 -0.1948  0.2738
17346TIP3    H273530   0.632   1.141  14.288 -0.8939  0.3606 -0.0790
17347TIP3   OH273531   2.128   3.355  12.717  0.0916  0.0858  0.0313
17347TIP3    H173532   2.189   3.290  12.751 -1.5368 -1.4558  0.1034
17347TIP3    H273533   2.157   3.437  12.757  3.5338 -0.0819 -1.7308
17348TIP3   OH273534   2.253   1.966   2.992  0.2533  0.0993 -0.1908
17348TIP3    H173535   2.309   1.981   2.916  1.9462 -0.3554  0.9091
17348TIP3    H273536   2.178   1.918   2.958  1.2147 -0.5300 -1.4958
17349TIP3   OH273537   4.090   2.281  14.165 -0.3285 -0.5139  0.4169
17349TIP3    H173538   4.119   2.370  14.186  2.3625 -1.3060  0.4109
17349TIP3    H273539   4.143   2.224  14.221 -0.2870 -2.2074 -1.2416
17350TIP3   OH273540   0.733   5.315  15.991  0.4690  0.3609 -0.6437
17350TIP3    H173541   0.679   5.334  15.914  0.0967 -0.5703 -0.6226
17350TIP3    H273542   0.739   5.398  16.037 -1.2545  0.4065 -0.4661
17351TIP3   OH273543   0.459   3.547   5.275 -0.0463  0.1313 -0.2176
17351TIP3    H173544   0.432   3.638   5.269  0.4303  0.4258  1.4570
17351TIP3    H273545   0.549   3.546   5.242 -1.0272 -0.3364 -3.1182
17352TIP3   OH273546   3.219   4.762   0.106 -0.2607 -0.1429  0.3850
17352TIP3    H173547   3.179   4.692   0.053  0.5120 -0.6282  0.4359
17352TIP3    H273548   3.151   4.830   0.110 -0.6027 -0.4039 -0.6252
17353TIP3   OH273549   4.384   4.976  13.478 -0.1198  0.4878 -0.3241
17353TIP3    H173550   4.318   5.044  13.464 -0.6289  0.3556  1.2835
17353TIP3    H273551   4.467   5.023  13.486 -0.4028  0.8759  0.3158
17354TIP3   OH273552   4.433   1.969  16.664 -0.1915 -0.0154 -0.3482
17354TIP3    H173553   4.343   1.939  16.664 -0.0442 -0.5459 -1.8215
17354TIP3    H273554   4.448   2.003  16.753 -1.7246 -0.1972 -0.0043
17355TIP3   OH273555   4.630   3.112   5.824  0.0245  0.0253  0.2730
17355TIP3    H173556   4.721   3.110   5.853 -0.0518 -1.1160  0.5052
17355TIP3    H273557   4.612   3.022   5.795 -1.1993  0.0718  0.8093
17356TIP3   OH273558   0.294   3.290   2.867  0.2925 -0.1625  0.3161
17356TIP3    H173559   0.260   3.212   2.911 -0.5950 -1.0897 -1.8650
17356TIP3    H273560   0.386   3.269   2.849 -0.3331 -1.4951 -1.7097
17357TIP3   OH273561   5.755   4.278  15.004 -0.2151  0.0086 -0.3105
17357TIP3    H173562   5.787   4.308  14.919  0.1206  0.3226 -0.0764
17357TIP3    H273563   5.660   4.272  14.993 -0.0275 -2.2413 -1.4323
17358TIP3   OH273564   2.285   2.516   3.393  0.2871 -0.1598  0.1531
17358TIP3    H173565   2.289   2.421   3.406  1.2265 -0.0435  0.8458
17358TIP3    H273566   2.226   2.547   3.462  2.4791  0.0645  2.0752
17359TIP3   OH273567   5.389   6.115   3.859  0.0812  0.0581  0.3366
17359TIP3    H173568   5.343   6.147   3.937 -2.1487  0.9035 -1.2167
17359TIP3    H273569   5.478   6.148   3.868 -0.5946  1.6710  1.6680
17360TIP3   OH273570   6.797   2.814   3.160  0.1129 -0.3250 -0.3857
17360TIP3    H173571   6.747   2.881   3.207 -0.4805 -0.2411 -1.1139
17360TIP3    H273572   6.888   2.844   3.163 -0.0212  0.0352  0.0919
17361TIP3   OH273573   4.879   5.134   6.246  0.1433 -0.0962 -0.4114
17361TIP3    H173574   4.900   5.224   6.269  0.1851 -0.9342  3.5162
17361TIP3    H273575   4.784   5.135   6.232 -0.2530  0.2033  2.0032
17362TIP3   OH273576   0.868   4.568  11.831  0.4562  0.4624 -0.2720
17362TIP3    H173577   0.954   4.528  11.844  1.3077  1.1632 -2.9577
17362TIP3    H273578   0.825   4.511  11.766  0.3900  2.0123 -1.6675
17363TIP3   OH273579   3.648   5.808   1.020  1.0491  0.1456  0.3393
17363TIP3    H173580   3.703   5.886   1.026 -0.1009  0.9198  1.4087
17363TIP3    H273581   3.701   5.739   1.059  1.5822  0.6842  0.5920
17364TIP3   OH273582   6.004   2.024   6.703 -0.4408  0.6556  0.3693
17364TIP3    H173583   6.053   2.093   6.748 -0.8177  1.2734 -0.1551
17364TIP3    H273584   5.925   2.067   6.672 -0.5019  0.0732 -0.2974
17365TIP3   OH273585   5.504   6.154   2.501 -0.1310  0.5101 -0.1179
17365TIP3    H173586   5.448   6.225   2.533 -1.7991 -0.7856 -0.0900
17365TIP3    H273587   5.574   6.149   2.567  0.0795  2.1573 -0.1646
17366TIP3   OH273588   6.132   1.284  12.593 -0.4764 -0.5748 -0.7513
17366TIP3    H173589   6.218   1.309  12.559 -0.7096  0.1474 -0.8429
17366TIP3    H273590   6.149   1.256  12.683  0.1337 -2.4305 -1.3934
17367TIP3   OH273591   6.152   3.816   1.508 -0.1017  0.3954  0.9016
17367TIP3    H173592   6.066   3.795   1.474 -0.8112  1.2256  2.1162
17367TIP3    H273593   6.171   3.747   1.571  0.4991 -0.2361  0.0557
17368TIP3   OH273594   1.439   1.728   0.993 -0.1400  0.6617  0.5154
17368TIP3    H173595   1.347   1.753   0.995 -0.0365  1.1225 -0.0229
17368TIP3    H273596   1.485   1.803   1.031  0.0075  0.4202  0.8116
17369TIP3   OH273597   6.127   1.700  15.511 -0.4197 -0.2849 -0.2466
17369TIP3    H173598   6.124   1.757  15.435 -2.5971 -2.1141 -1.6800
17369TIP3    H273599   6.185   1.628  15.486 -0.9560 -0.7778 -0.1051
17370TIP3   OH273600   0.907   6.619   5.548 -0.4667 -0.5914 -0.0976
17370TIP3    H173601   0.858   6.646   5.625  1.3038  1.0423  0.5179
17370TIP3    H273602   0.981   6.569   5.582 -0.3467 -0.9430 -0.8389
17371TIP3   OH273603   0.016   0.242  14.973 -0.0414 -0.2050  0.1164
17371TIP3    H173604   0.084   0.303  15.003  3.1569 -4.6417  3.2433
17371TIP3    H273605   0.057   0.194  14.902 -1.5406 -0.3956 -0.6436
17372TIP3   OH273606   4.609   5.509  17.069  0.3161 -0.2901  0.2540
17372TIP3    H173607   4.520   5.474  17.071  0.0628  0.3381  0.7031
17372TIP3    H273608   4.597   5.603  17.083  0.8781  0.1963 -2.0860
17373TIP3   OH273609   1.835   0.914  14.518 -0.6266  0.4682 -0.0894
17373TIP3    H173610   1.899   0.985  14.519 -0.9656  0.7759  0.2567
17373TIP3    H273611   1.813   0.901  14.610 -2.1085  1.3288 -0.2841
17374TIP3   OH273612   3.037   4.313   1.824  0.6082 -0.1312  0.1721
17374TIP3    H173613   3.035   4.250   1.752  0.7432  0.6077 -0.4958
17374TIP3    H273614   3.127   4.313   1.854  0.8968  0.6211 -0.6435
17375TIP3   OH273615   3.100   3.776  12.664  0.0973 -0.3558 -0.2618
17375TIP3    H173616   3.018   3.780  12.615  0.6910  0.8990 -1.1939
17375TIP3    H273617   3.169   3.774  12.598  0.8610 -0.6242  0.5117
17376TIP3   OH273618   1.903   3.707  12.265 -0.4984 -0.0849 -0.1471
17376TIP3    H173619   1.907   3.651  12.187  0.2769 -0.0613 -0.1267
17376TIP3    H273620   1.981   3.762  12.259  1.0300 -1.8558  1.9940
17377TIP3   OH273621   4.253   0.869   4.973 -0.6337  0.9474 -0.1939
17377TIP3    H173622   4.280   0.780   4.996 -0.8651  0.7623 -0.6329
17377TIP3    H273623   4.332   0.921   4.985 -0.2115  0.5056 -0.9315
17378TIP3   OH273624   2.192   3.337  10.502 -0.0169 -0.3572 -0.5294
17378TIP3    H173625   2.255   3.266  10.515  0.7592  0.6613  1.9265
17378TIP3    H273626   2.108   3.301  10.531 -0.2883 -1.2099 -2.2777
17379TIP3   OH273627   2.240   1.047   5.721 -0.1138  0.0745  0.6334
17379TIP3    H173628   2.145   1.052   5.721 -0.0928  0.6518  1.2267
17379TIP3    H273629   2.260   0.965   5.677 -0.8474  0.5397 -0.6258
17380TIP3   OH273630   0.008   6.778  14.062  0.1884 -0.4447  0.3611
17380TIP3    H173631  -0.070   6.775  14.006 -0.7121 -2.1406  1.6122
17380TIP3    H273632  -0.013   6.839  14.132 -0.6957 -2.0301  1.5484
17381TIP3   OH273633   1.946   2.015  14.462 -0.2559 -0.4209 -0.3786
17381TIP3    H173634   1.875   2.079  14.472  0.0266 -0.1235 -0.2579
17381TIP3    H273635   1.922   1.943  14.521 -0.0633  0.0311  0.2631
17382TIP3   OH273636   3.820   3.198   0.029  0.0973 -0.0725 -0.1613
17382TIP3    H173637   3.729   3.167   0.030 -0.3697  1.2159  0.9311
17382TIP3    H273638   3.872   3.123   0.056 -0.4772 -1.1920 -1.9453
17383TIP3   OH273639   5.811   0.079   1.752  0.3139  0.4836 -0.3140
17383TIP3    H173640   5.736   0.105   1.698 -0.5322  0.3346  0.7554
17383TIP3    H273641   5.815   0.146   1.821  0.0792 -0.4675  0.6391
17384TIP3   OH273642   4.739   1.960  13.364 -0.0365 -0.1462 -0.4433
17384TIP3    H173643   4.773   1.923  13.282  0.8387  0.2737 -0.2740
17384TIP3    H273644   4.788   2.041  13.376 -0.5558  0.0758  0.2156
17385TIP3   OH273645   0.088   5.127  12.960  0.1915 -0.2010 -0.3017
17385TIP3    H173646   0.168   5.098  12.916 -0.0236 -0.7322 -0.3563
17385TIP3    H273647   0.116   5.151  13.049  0.2712 -1.3083 -0.0099
17386TIP3   OH273648   3.440   2.632  10.166  0.1481  0.0397 -0.7629
17386TIP3    H173649   3.499   2.581  10.110 -0.0505 -0.7201 -0.3078
17386TIP3    H273650   3.367   2.655  10.109  1.0697  1.3720 -1.4483
17387TIP3   OH273651   4.474   5.559  11.484  1.0157 -0.3375  0.6424
17387TIP3    H173652   4.396   5.504  11.491  0.6820  0.1582  0.8012
17387TIP3    H273653   4.477   5.585  11.392  0.9620 -0.3047  0.6507
17388TIP3   OH273654   1.575   2.385   5.642 -0.1529 -1.2220 -0.6248
17388TIP3    H173655   1.627   2.312   5.676  0.5498  0.1210  1.3470
17388TIP3    H273656   1.635   2.460   5.643 -1.3686 -0.2202 -0.8516
17389TIP3   OH273657   2.917   1.129   3.155  0.0588  0.1633 -0.0492
17389TIP3    H173658   2.878   1.197   3.209  0.6204  0.4062  0.0568
17389TIP3    H273659   2.970   1.078   3.215 -0.1445 -0.2052 -0.1795
17390TIP3   OH273660   3.851   3.161  16.828  0.4046  0.8658 -0.0312
17390TIP3    H173661   3.887   3.205  16.750  1.2291  0.3736  0.0578
17390TIP3    H273662   3.813   3.080  16.794  1.3578  0.3268  0.1423
17391TIP3   OH273663   3.530   5.623   0.793  0.4682  0.0461  0.0324
17391TIP3    H173664   3.491   5.691   0.849  1.3056  0.4532  0.1410
17391TIP3    H273665   3.611   5.663   0.761  0.3901 -0.4781 -0.8456
17392TIP3   OH273666   4.466   5.102  14.627 -0.1771  0.3973  0.2386
17392TIP3    H173667   4.423   5.186  14.612  0.7670  0.9895  0.7521
17392TIP3    H273668   4.556   5.115  14.597  0.4512  0.1282  1.9189
17393TIP3   OH273669   4.631   4.221  10.723 -0.4113  0.6602  0.0636
17393TIP3    H173670   4.631   4.316  10.709  1.2689  0.5495 -1.0061
17393TIP3    H273671   4.660   4.185  10.640 -1.5937 -0.8619  0.2651
17394TIP3   OH273672   0.521   2.535  12.095 -0.3897  0.1908  0.0901
17394TIP3    H173673   0.612   2.551  12.070 -0.5537 -0.8035 -1.2823
17394TIP3    H273674   0.476   2.617  12.077 -0.2995 -0.1841 -2.1116
17395TIP3   OH273675   5.313   4.677  14.343  0.8667 -0.3680  0.1633
17395TIP3    H173676   5.261   4.695  14.265  0.1380 -2.6636  0.0615
17395TIP3    H273677   5.260   4.712  14.415 -0.5455 -2.0504 -0.0083
17396TIP3   OH273678   5.812   4.334   4.804 -0.1742 -0.1574 -0.3061
17396TIP3    H173679   5.763   4.259   4.838 -0.1006 -0.1737 -0.2336
17396TIP3    H273680   5.826   4.390   4.880  0.2486 -0.3363 -0.2440
17397TIP3   OH273681   5.139   6.710   1.195  0.0725  0.4746  0.2547
17397TIP3    H173682   5.073   6.778   1.187 -1.4031 -0.8572  0.6962
17397TIP3    H273683   5.157   6.683   1.105 -2.1988 -1.1583  0.2124
17398TIP3   OH273684   6.523   6.524  11.865 -0.0179 -0.2307 -0.1556
17398TIP3    H173685   6.495   6.600  11.814  0.9478 -1.1228 -2.1195
17398TIP3    H273686   6.491   6.449  11.815 -3.2825 -1.2794  3.0257
17399TIP3   OH273687   4.484   0.187   3.052  0.0412  0.1062 -0.7387
17399TIP3    H173688   4.447   0.215   3.136  1.3405  0.6252 -0.3254
17399TIP3    H273689   4.408   0.175   2.995 -0.9260 -0.8793  0.6819
17400TIP3   OH273690   2.623   4.456   2.995 -0.1545 -0.1548  0.0057
17400TIP3    H173691   2.549   4.408   3.031 -0.7697  1.0204  0.3555
17400TIP3    H273692   2.593   4.547   2.990  0.6484  0.0613 -1.5232
17401TIP3   OH273693   5.041   0.386   1.946 -0.2673  0.2662 -0.1568
17401TIP3    H173694   5.073   0.309   1.993 -0.1085  0.6746  0.4283
17401TIP3    H273695   5.108   0.453   1.961  0.3297  0.1041 -1.8976
17402TIP3   OH273696   3.598   0.628  13.669 -0.1754 -0.3999  0.6365
17402TIP3    H173697   3.548   0.644  13.589  1.0023  0.7096  0.0916
17402TIP3    H273698   3.534   0.633  13.739 -1.0449 -0.3144 -0.1436
17403TIP3   OH273699   2.708   2.580  16.952 -0.1608 -0.4663  0.3174
17403TIP3    H173700   2.673   2.660  16.992  2.2153  1.3313 -0.9114
17403TIP3    H273701   2.655   2.568  16.873  0.6967  1.1555 -0.5693
17404TIP3   OH273702   0.050   5.776   1.435 -0.1919  0.2596  0.1104
17404TIP3    H173703   0.074   5.816   1.352  0.6001  1.4378  0.8832
17404TIP3    H273704   0.049   5.848   1.498  0.2597 -0.7586  1.3423
17405TIP3   OH273705   5.222   4.278   3.680  0.1780 -0.5520  0.2608
17405TIP3    H173706   5.142   4.289   3.630  0.0529 -0.4100  0.4873
17405TIP3    H273707   5.193   4.247   3.766  0.4025 -0.9690  0.1897
17406TIP3   OH273708   0.296   0.551  14.129 -0.0502 -0.4390  0.1017
17406TIP3    H173709   0.258   0.473  14.170  0.8855 -1.2233 -0.4982
17406TIP3    H273710   0.389   0.546  14.149 -0.1004  1.0428  0.8655
17407TIP3   OH273711   6.360   0.445  14.347  0.4286  0.5035 -0.1667
17407TIP3    H173712   6.387   0.410  14.432 -0.5434  0.3237  0.0919
17407TIP3    H273713   6.314   0.526  14.368 -0.5492  0.0353 -0.4262
17408TIP3   OH273714   1.380   4.178   0.289  0.0984  0.0298 -0.0776
17408TIP3    H173715   1.394   4.270   0.313 -1.0340 -0.0308  0.8978
17408TIP3    H273716   1.375   4.132   0.373  0.2787 -0.8763 -0.5502
17409TIP3   OH273717   3.819   5.540   6.747  0.0562  0.7144 -0.3503
17409TIP3    H173718   3.857   5.466   6.700 -0.5967  0.3626 -0.3354
17409TIP3    H273719   3.765   5.585   6.682 -0.0059  0.8417 -0.2127
17410TIP3   OH273720   6.292   5.538   2.209 -0.2352  0.5462  0.8955
17410TIP3    H173721   6.344   5.531   2.289 -1.5299 -1.4109  1.6583
17410TIP3    H273722   6.354   5.525   2.138  0.7780  1.3269  1.6178
17411TIP3   OH273723   2.948   6.638  13.364  0.1695 -0.1575 -0.1380
17411TIP3    H173724   3.033   6.597  13.348  1.4502  2.8033 -1.9549
17411TIP3    H273725   2.963   6.695  13.440  0.5528  1.9126 -1.6687
17412TIP3   OH273726   6.266   0.549   1.144  0.3562  0.5046  0.0363
17412TIP3    H173727   6.242   0.531   1.235  0.2555 -3.6006 -0.6483
17412TIP3    H273728   6.265   0.464   1.101  3.6710  1.7969 -3.1002
17413TIP3   OH273729   2.548   0.065  12.071 -0.1088  0.1268  0.2497
17413TIP3    H173730   2.508   0.130  12.129 -0.1790 -0.4134  0.8159
17413TIP3    H273731   2.560  -0.012  12.126  1.2505  0.1073 -0.0429
17414TIP3   OH273732   4.746   0.980   0.442 -0.8954  0.2211 -0.1699
17414TIP3    H173733   4.772   1.041   0.374 -1.5897  0.2618 -0.3999
17414TIP3    H273734   4.827   0.932   0.463 -0.6176  0.3927 -0.8258
17415TIP3   OH273735   4.517   4.214   1.693 -0.1747 -0.1061 -0.1107
17415TIP3    H173736   4.455   4.282   1.666  0.4478  0.4642 -0.1389
17415TIP3    H273737   4.483   4.183   1.777  0.3127  1.2847  0.6384
17416TIP3   OH273738   4.205   4.375  14.776  0.2097 -0.3868  0.4104
17416TIP3    H173739   4.117   4.389  14.740 -0.2509  1.7385  2.1603
17416TIP3    H273740   4.203   4.284  14.808 -1.4855 -0.2704  0.7476
17417TIP3   OH273741   5.616   2.444  12.679 -0.2037 -0.2599 -0.4471
17417TIP3    H173742   5.688   2.475  12.624 -0.0122 -1.3275 -0.8132
17417TIP3    H273743   5.543   2.503  12.657  0.2559  0.1632 -0.8586
17418TIP3   OH273744   0.390   0.265  15.312  0.6020  0.0661 -0.5169
17418TIP3    H173745   0.302   0.297  15.329  0.7754  1.4949 -2.0372
17418TIP3    H273746   0.377   0.180  15.269 -0.0406  0.2651 -0.7234
17419TIP3   OH273747   1.812   6.574  15.836 -0.2873 -0.4376 -0.0119
17419TIP3    H173748   1.830   6.642  15.901 -0.7034 -1.4418  1.2038
17419TIP3    H273749   1.881   6.584  15.771  1.4297 -0.6905  1.6795
17420TIP3   OH273750   1.376   3.260   4.304  0.2331 -0.0429 -0.5372
17420TIP3    H173751   1.291   3.300   4.318  0.5310  0.2677  0.4191
17420TIP3    H273752   1.422   3.269   4.387  1.8414  1.2999 -1.5139
17421TIP3   OH273753   2.358   5.122   0.774  0.0327  0.1156  0.3319
17421TIP3    H173754   2.310   5.056   0.724  1.2890  1.0262 -2.2098
17421TIP3    H273755   2.294   5.154   0.838 -2.5875  0.7571 -2.4096
17422TIP3   OH273756   2.546   5.895  15.667  0.2307 -0.1878  0.2432
17422TIP3    H173757   2.528   5.812  15.712 -0.6359  0.2428  0.7343
17422TIP3    H273758   2.495   5.960  15.717  1.3739  0.7370  0.2375
17423TIP3   OH273759   6.823   5.248  14.780  0.3288  0.3310  0.2328
17423TIP3    H173760   6.840   5.154  14.775  3.1412  0.7298  0.6408
17423TIP3    H273761   6.745   5.256  14.835  0.6326 -1.7394  1.0271
17424TIP3   OH273762   1.985   6.395  15.988  0.3257  0.1514  0.0453
17424TIP3    H173763   1.960   6.336  15.916  2.5478 -0.1501 -0.5474
17424TIP3    H273764   2.029   6.338  16.051 -1.1628  0.5116  1.4632
17425TIP3   OH273765   4.226   4.748   3.760 -0.2959 -0.4931  0.2363
17425TIP3    H173766   4.192   4.696   3.833 -0.6419 -0.3719  0.1658
17425TIP3    H273767   4.254   4.830   3.801 -0.1970 -0.5489  0.2795
17426TIP3   OH273768   0.408   5.145  15.452 -0.9514 -0.2017  0.4065
17426TIP3    H173769   0.318   5.137  15.420 -0.0560 -2.2473 -1.9576
17426TIP3    H273770   0.461   5.102  15.385  1.6918 -0.1918  2.3261
17427TIP3   OH273771   6.829   3.421  11.909  0.2741  0.3758  0.4416
17427TIP3    H173772   6.864   3.505  11.880  0.0989  0.8390  1.5336
17427TIP3    H273773   6.755   3.444  11.966  0.3793 -0.5083  0.9540
17428TIP3   OH273774   5.026   0.325   5.389  0.4730  0.6333  0.6614
17428TIP3    H173775   5.050   0.244   5.433  0.2783  2.1107  3.7586
17428TIP3    H273776   4.964   0.299   5.321 -3.1525 -1.5502  4.3570
17429TIP3   OH273777   4.230   0.919  14.659 -0.1552 -0.1125  0.6034
17429TIP3    H173778   4.292   0.855  14.695  0.7292  0.7992  0.7258
17429TIP3    H273779   4.233   0.905  14.565  0.0850 -0.2095  0.6254
17430TIP3   OH273780   1.051   5.110  16.560  1.0681 -0.8066  0.6455
17430TIP3    H173781   1.006   5.193  16.540 -0.5413 -2.0763 -1.4994
17430TIP3    H273782   1.136   5.137  16.594  0.2370  1.7308  0.9835
17431TIP3   OH273783   4.610   0.676  12.439  0.3792  0.1414  0.0572
17431TIP3    H173784   4.633   0.741  12.506 -0.8830  0.4257  0.2419
17431TIP3    H273785   4.690   0.624  12.428  0.1568 -0.9998  2.9990
17432TIP3   OH273786   2.868   0.112   0.919 -0.0241  0.3819  0.4848
17432TIP3    H173787   2.796   0.128   0.858  0.5363  1.8637  0.1791
17432TIP3    H273788   2.876   0.193   0.969  1.2549  0.1434  0.6957
17433TIP3   OH273789   0.045   2.009  11.623  0.3481  0.4903 -0.0873
17433TIP3    H173790   0.030   2.099  11.650  0.0662  0.2323  0.6616
17433TIP3    H273791   0.123   1.982  11.671 -0.9773 -0.4353  1.6867
17434TIP3   OH273792   2.668   1.457  16.155 -0.0417 -0.1326 -0.1634
17434TIP3    H173793   2.732   1.408  16.103 -1.4664 -1.2667 -0.8929
17434TIP3    H273794   2.609   1.391  16.191 -0.8542  0.8907  0.4519
17435TIP3   OH273795   1.255   3.000  11.645 -0.4642 -0.2056  0.5592
17435TIP3    H173796   1.249   3.001  11.740  0.9707  0.9818  0.6780
17435TIP3    H273797   1.330   2.942  11.626 -0.8424 -0.5685  0.1335
17436TIP3   OH273798   1.043   1.315  11.999 -0.2795 -0.2603 -0.4470
17436TIP3    H173799   1.048   1.222  12.019  1.2892 -0.5034 -1.7465
17436TIP3    H273800   1.126   1.350  12.030 -1.0144  0.8074  0.3901
17437TIP3   OH273801   1.001   1.763  14.277  0.0696  0.1267 -0.6109
17437TIP3    H173802   0.928   1.769  14.215  0.6152  0.8152 -1.2089
17437TIP3    H273803   1.047   1.683  14.252  0.2220  0.3417 -1.0369
17438TIP3   OH273804   1.293   1.818  13.596  0.1505  0.3797  0.0195
17438TIP3    H173805   1.347   1.758  13.545  0.8399 -0.0490  1.2152
17438TIP3    H273806   1.311   1.904  13.558  0.5725  0.0592 -0.5201
17439TIP3   OH273807   3.634   0.260  13.272 -0.6859  0.1125 -0.4605
17439TIP3    H173808   3.588   0.326  13.219 -2.2372 -0.9092 -0.4476
17439TIP3    H273809   3.667   0.310  13.347 -0.2780  1.1875 -1.3172
17440TIP3   OH273810   1.037   5.282  10.853  0.1245  0.5068  0.4734
17440TIP3    H173811   1.072   5.197  10.881 -0.0109  0.5220  0.6878
17440TIP3    H273812   1.115   5.336  10.837  0.1999  0.6039  1.1441
17441TIP3   OH273813   2.004   2.764   2.310  0.7633  0.1426 -0.2405
17441TIP3    H173814   2.082   2.811   2.339  0.1998  1.4469 -0.7314
17441TIP3    H273815   1.940   2.833   2.291  0.1298 -0.7899 -1.7075
17442TIP3   OH273816   0.949   5.244  16.189 -0.1254 -0.1411  0.0928
17442TIP3    H173817   0.866   5.271  16.150 -0.5706 -0.5929  0.7024
17442TIP3    H273818   0.934   5.153  16.217  1.1799 -0.9280 -1.5370
17443TIP3   OH273819   2.893   6.596  15.217  0.1760  0.0305  0.2055
17443TIP3    H173820   2.906   6.657  15.289  1.5055  0.0216 -0.0035
17443TIP3    H273821   2.816   6.545  15.242  0.3456  0.3383  1.3927
17444TIP3   OH273822   1.279   4.877  15.459  0.7836  0.1197 -0.1651
17444TIP3    H173823   1.223   4.912  15.529  0.0924  1.7614 -1.4752
17444TIP3    H273824   1.365   4.914  15.477  1.0693 -1.0068  0.8740
17445TIP3   OH273825   0.417   1.470   0.169 -0.4264  0.2376  0.1345
17445TIP3    H173826   0.505   1.435   0.157  0.1452  1.0831  1.6372
17445TIP3    H273827   0.413   1.545   0.109 -0.5860 -0.5280 -0.8415
17446TIP3   OH273828   1.604   1.596  16.271  0.0427 -0.0351  1.0632
17446TIP3    H173829   1.515   1.593  16.308 -0.2619 -0.4243  0.3390
17446TIP3    H273830   1.592   1.635  16.184  0.5339 -0.3765  0.8383
17447TIP3   OH273831   5.474   1.813  16.013 -0.1684 -0.1222 -0.3007
17447TIP3    H173832   5.540   1.881  16.030  0.6203 -1.4403  2.5050
17447TIP3    H273833   5.508   1.735  16.057 -2.9039 -1.2695 -0.0269
17448TIP3   OH273834   4.007   3.764   5.723 -0.5677  0.2150  0.2166
17448TIP3    H173835   3.939   3.706   5.759 -1.2577  1.3554  0.7876
17448TIP3    H273836   3.959   3.827   5.669  0.2486 -0.1338 -0.9556
17449TIP3   OH273837   5.746   1.649   5.437  0.0069  0.0818  0.4576
17449TIP3    H173838   5.660   1.610   5.455 -0.4288  0.2668 -1.0730
17449TIP3    H273839   5.775   1.684   5.522 -1.4431  0.0642  0.9858
17450TIP3   OH273840   0.511   4.228  12.807  0.0365 -0.0751 -0.0560
17450TIP3    H173841   0.562   4.152  12.835 -0.9277 -0.9558 -0.5681
17450TIP3    H273842   0.444   4.191  12.749 -1.2814  0.9922  0.7165
17451TIP3   OH273843   0.878   0.226   1.678  0.4714  0.0687 -0.1079
17451TIP3    H173844   0.926   0.164   1.622 -0.2378 -0.2196 -0.4076
17451TIP3    H273845   0.814   0.266   1.620  1.9703  2.3216 -0.3320
17452TIP3   OH273846   0.529   2.995   5.556  0.5174  0.2666 -0.5413
17452TIP3    H173847   0.471   3.005   5.480  0.8332  0.0614 -0.8092
17452TIP3    H273848   0.600   2.939   5.525 -0.1938 -1.2085  0.3655
17453TIP3   OH273849   6.746   5.529   2.969 -0.2066 -0.0547  0.4653
17453TIP3    H173850   6.769   5.464   3.035 -0.7514 -1.7658 -0.9589
17453TIP3    H273851   6.684   5.485   2.912 -1.6563  2.1729  0.1806
17454TIP3   OH273852   2.589   2.252  11.536 -0.2685  0.0698 -0.0098
17454TIP3    H173853   2.534   2.197  11.481  0.0279  0.3955 -0.6435
17454TIP3    H273854   2.604   2.331  11.483 -0.1440  0.4743  0.6162
17455TIP3   OH273855   2.933   6.480   5.166 -0.2768  0.2767  0.3141
17455TIP3    H173856   2.868   6.440   5.224  0.2057 -0.2703  0.4914
17455TIP3    H273857   2.886   6.550   5.121 -1.1825 -0.5689 -0.0941
17456TIP3   OH273858   1.578   4.193  16.651 -0.2877  0.7947 -0.4238
17456TIP3    H173859   1.528   4.259  16.603  0.1424  2.0577  0.7843
17456TIP3    H273860   1.514   4.153  16.710 -0.5679  0.0318 -1.2168
17457TIP3   OH273861   1.790   6.735  13.871 -0.5298 -0.1359  0.3532
17457TIP3    H173862   1.709   6.713  13.826  0.2706 -0.6900 -0.8665
17457TIP3    H273863   1.822   6.651  13.906  1.0527 -0.5605 -1.8393
17458TIP3   OH273864   5.619   5.917  15.152 -0.6838  0.1482  0.1017
17458TIP3    H173865   5.704   5.886  15.120 -1.3766 -2.0113  0.2091
17458TIP3    H273866   5.557   5.849  15.125 -1.6787 -0.7044  4.0361
17459TIP3   OH273867   3.494   1.059   2.710  0.8849 -0.4034  0.1552
17459TIP3    H173868   3.516   1.019   2.626 -0.3411  0.3473 -0.5620
17459TIP3    H273869   3.404   1.091   2.698  0.3144 -1.1755  2.0919
17460TIP3   OH273870   0.260   2.236   1.504 -0.4180 -0.0547  0.2859
17460TIP3    H173871   0.255   2.282   1.420  0.9205  0.7527  0.6215
17460TIP3    H273872   0.184   2.269   1.553 -2.1363 -1.7053 -1.1122
17461TIP3   OH273873   5.967   1.502  16.126  0.3094 -0.1817 -1.0656
17461TIP3    H173874   6.027   1.520  16.053  0.1863  0.5692 -0.9941
17461TIP3    H273875   5.906   1.437  16.091  0.5036 -0.1383 -1.4987
17462TIP3   OH273876   6.707   4.652   0.096 -0.3985 -0.9185  0.3249
17462TIP3    H173877   6.627   4.669   0.046  1.3302 -0.4223 -2.4790
17462TIP3    H273878   6.716   4.729   0.152 -1.8032 -0.9402  0.6358
17463TIP3   OH273879   3.152   0.601  13.093 -0.5738 -0.0894 -0.1742
17463TIP3    H173880   3.236   0.640  13.117 -1.0248 -0.7062  2.8795
17463TIP3    H273881   3.174   0.512  13.064 -0.1444 -0.4731  1.2253
17464TIP3   OH273882   4.773   5.106   4.576  0.0318 -0.1414 -0.0696
17464TIP3    H173883   4.812   5.086   4.661  0.9094 -1.1474 -0.6827
17464TIP3    H273884   4.748   5.198   4.582 -0.4198 -0.3310  1.4547
17465TIP3   OH273885   4.631   1.765  13.964 -0.0809  0.0744 -0.3058
17465TIP3    H173886   4.721   1.793  13.979 -0.1211 -0.0678  0.2359
17465TIP3    H273887   4.637   1.669  13.957 -0.1836  0.0663 -0.2819
17466TIP3   OH273888   5.672   1.287   5.349  0.0617  0.6023 -0.9389
17466TIP3    H173889   5.731   1.295   5.425 -1.2659  1.1577  0.0736
17466TIP3    H273890   5.691   1.201   5.313  2.4275  1.2626 -1.4713
17467TIP3   OH273891   6.215   4.390   5.947  0.1402 -0.0518  0.1243
17467TIP3    H173892   6.195   4.328   6.017  1.1374 -1.0295 -0.4287
17467TIP3    H273893   6.309   4.381   5.934  0.1658  0.9931 -0.5411
17468TIP3   OH273894   1.070   6.489  13.278  0.6576 -0.1444 -0.0672
17468TIP3    H173895   1.008   6.544  13.327  0.8946 -0.7415  0.9150
17468TIP3    H273896   1.019   6.413  13.252  1.0742 -0.8525  1.1332
17469TIP3   OH273897   4.464   3.461   2.776  0.9458 -0.7396 -0.4093
17469TIP3    H173898   4.447   3.498   2.863 -0.4470 -0.3749 -0.8053
17469TIP3    H273899   4.380   3.423   2.749  2.3931 -4.9170  0.2256
17470TIP3   OH273900   0.099   4.414  17.071 -0.0446 -0.2063 -0.7183
17470TIP3    H173901   0.044   4.491  17.055 -2.4943 -1.5095  0.7905
17470TIP3    H273902   0.036   4.343  17.083  1.9453 -1.6876  1.7815
17471TIP3   OH273903   3.975   3.095  13.347 -0.0672 -0.5476 -0.0571
17471TIP3    H173904   4.054   3.048  13.320 -0.9865 -1.6600 -0.8872
17471TIP3    H273905   4.007   3.182  13.373  1.2526 -0.3456 -2.0699
17472TIP3   OH273906   1.009   4.634   1.140  0.1308  0.4516  0.1793
17472TIP3    H173907   1.018   4.712   1.195 -1.0864 -0.7724  2.2373
17472TIP3    H273908   1.046   4.563   1.192  1.5626 -0.3436 -1.8150
17473TIP3   OH273909   1.216   2.779  13.286 -0.0578  0.4442  0.0898
17473TIP3    H173910   1.282   2.783  13.356 -0.8762 -1.5455  1.0332
17473TIP3    H273911   1.138   2.818  13.325  0.5366  3.0621 -1.1219
17474TIP3   OH273912   5.582   2.344   5.652 -0.2729  0.3325  0.5888
17474TIP3    H173913   5.666   2.388   5.639  0.0690 -0.1521  1.1234
17474TIP3    H273914   5.605   2.258   5.687 -0.9936  0.1792  0.6974
17475TIP3   OH273915   3.951   4.966   3.063  0.3214 -0.1962 -0.2689
17475TIP3    H173916   4.013   4.894   3.080  0.2295 -0.0891  0.5444
17475TIP3    H273917   3.865   4.926   3.074  0.2730  0.2384  1.1220
17476TIP3   OH273918   3.626   3.832  15.541  0.0622 -0.3260 -0.1414
17476TIP3    H173919   3.626   3.823  15.636 -1.4113  2.2653  0.1764
17476TIP3    H273920   3.548   3.785  15.512 -0.2638  0.0780  0.0807
17477TIP3   OH273921   0.001   3.032  12.923 -0.0468  0.2959  0.6161
17477TIP3    H173922   0.052   3.042  12.843  1.1282 -1.6479  1.0688
17477TIP3    H273923   0.003   2.939  12.942 -1.0946  0.5839  2.4217
17478TIP3   OH273924   1.355   6.215  11.029 -0.3067  0.3698  0.4602
17478TIP3    H173925   1.348   6.129  11.069  0.2709 -0.3027 -0.8089
17478TIP3    H273926   1.326   6.202  10.938  0.7069  1.2836 -0.0232
17479TIP3   OH273927   0.809   4.518  12.953  0.4580 -0.4154 -0.2489
17479TIP3    H173928   0.867   4.564  12.892 -0.6997 -1.0450 -1.8975
17479TIP3    H273929   0.722   4.530  12.916 -0.3600 -0.5316  1.5088
17480TIP3   OH273930   1.983   0.472   2.756 -0.3619 -0.5721  0.2422
17480TIP3    H173931   1.947   0.510   2.836 -1.6849  0.3013 -0.7222
17480TIP3    H273932   1.909   0.426   2.716 -0.4478  1.0904 -1.6917
17481TIP3   OH273933   0.007   1.167   6.477 -0.1746  0.3722  0.1095
17481TIP3    H173934  -0.073   1.161   6.530  0.0806  0.5966  0.5241
17481TIP3    H273935   0.001   1.093   6.417 -0.9387  0.6774 -0.2013
17482TIP3   OH273936   2.859   0.302  12.303  0.6867  0.1244 -0.2890
17482TIP3    H173937   2.920   0.310  12.377  0.9622 -0.0711 -0.4917
17482TIP3    H273938   2.781   0.260  12.340  0.7360  0.2310 -0.0615
17483TIP3   OH273939   1.107   0.138   5.405  0.2843  0.9075 -0.3033
17483TIP3    H173940   1.121   0.044   5.405  2.1934  1.1535 -0.2125
17483TIP3    H273941   1.152   0.169   5.326  1.7428  1.9794  0.8932
17484TIP3   OH273942   6.476   1.091   1.852 -0.1464 -0.5246 -0.1410
17484TIP3    H173943   6.569   1.101   1.874 -0.7197  0.3731  2.1135
17484TIP3    H273944   6.461   0.997   1.853  0.6456 -0.6607 -0.1616
17485TIP3   OH273945   2.968   5.094   1.678 -0.1167  0.6758 -0.4377
17485TIP3    H173946   3.015   5.164   1.723 -0.8330  0.9360 -0.0804
17485TIP3    H273947   3.035   5.027   1.662  0.0225  0.2128  1.7490
17486TIP3   OH273948   1.489   1.998  15.366 -0.2961  0.2862  0.1350
17486TIP3    H173949   1.495   1.902  15.365 -0.3785  0.2650  1.1017
17486TIP3    H273950   1.576   2.027  15.339  0.2715 -0.0657  1.5136
17487TIP3   OH273951   0.494   1.123   2.122 -0.2012  0.2173  0.0177
17487TIP3    H173952   0.565   1.187   2.110 -0.2335  0.1166 -0.7686
17487TIP3    H273953   0.429   1.147   2.056 -2.0504  1.8257  2.2845
17488TIP3   OH273954   6.263   6.538  13.211 -0.3478  0.2703 -0.3434
17488TIP3    H173955   6.302   6.623  13.190  0.6108  0.3821  1.6213
17488TIP3    H273956   6.169   6.551  13.196 -0.5349  2.4431  1.9094
17489TIP3   OH273957   1.231   5.653   2.677 -0.4632  0.0183 -0.4844
17489TIP3    H173958   1.188   5.569   2.691 -0.5265 -0.2743 -2.2661
17489TIP3    H273959   1.321   5.631   2.655 -0.2869  0.4566 -0.2112
17490TIP3   OH273960   1.034   5.309  11.641  0.2572  0.7135 -0.2388
17490TIP3    H173961   0.988   5.346  11.566 -0.6598  0.6081  0.2625
17490TIP3    H273962   0.984   5.232  11.665  0.4558  0.8226  0.5706
17491TIP3   OH273963   4.950   1.547  14.848  0.3834  0.1376  0.3075
17491TIP3    H173964   4.876   1.576  14.901 -0.6698  0.4041 -1.2256
17491TIP3    H273965   4.910   1.519  14.765  1.8441 -1.2335  0.0050
17492TIP3   OH273966   1.213   1.070   4.422  0.0327  0.2302  0.1607
17492TIP3    H173967   1.308   1.085   4.428  0.3628 -1.9240  1.2414
17492TIP3    H273968   1.191   1.097   4.333  1.7936  0.1987 -0.3319
17493TIP3   OH273969   2.050   5.575   3.490 -0.3980 -0.0042  0.1110
17493TIP3    H173970   2.005   5.490   3.482  0.8098 -0.6117 -0.5622
17493TIP3    H273971   2.114   5.574   3.419 -0.0746  1.3038  0.3674
17494TIP3   OH273972   1.685   1.366  16.604  0.2046  0.2358 -0.4095
17494TIP3    H173973   1.760   1.419  16.580  1.3953 -1.7223 -1.2526
17494TIP3    H273974   1.722   1.283  16.633 -1.5652 -0.0798  1.1546
17495TIP3   OH273975   0.923   5.088  13.338 -0.2711  0.4959  0.2581
17495TIP3    H173976   1.001   5.140  13.356 -0.1734  0.9766 -1.3850
17495TIP3    H273977   0.855   5.127  13.392  0.3802  0.7244  0.9333
17496TIP3   OH273978   3.045   1.670   1.493 -0.5928  0.2643 -0.3334
17496TIP3    H173979   3.013   1.674   1.403 -2.1427  0.2231  0.1878
17496TIP3    H273980   2.983   1.611   1.538  1.4594 -1.5748  0.2504
17497TIP3   OH273981   2.558   6.340  15.883  0.6916  0.1062  0.1926
17497TIP3    H173982   2.506   6.402  15.832  1.0311 -0.0278 -0.3237
17497TIP3    H273983   2.497   6.306  15.948  0.3250  0.4815  0.0514
17498TIP3   OH273984   6.648   0.606  14.959  0.0921 -0.1485 -0.5298
17498TIP3    H173985   6.680   0.633  15.046  0.7733  1.1799 -1.1574
17498TIP3    H273986   6.558   0.577  14.975 -0.0012  0.6412  0.5408
17499TIP3   OH273987   5.022   6.782   3.929  0.0871 -0.8895  0.1325
17499TIP3    H173988   5.059   6.828   4.004 -0.9198  0.8817 -0.3836
17499TIP3    H273989   4.936   6.822   3.916  0.9337  0.2161 -3.0708
17500TIP3   OH273990   1.891   5.878   1.782  0.3640 -0.0562  0.3353
17500TIP3    H173991   1.982   5.892   1.758  0.0467  0.6283 -0.4942
17500TIP3    H273992   1.863   5.803   1.729  0.8082 -1.1357  1.5722
17501TIP3   OH273993   1.505   0.809  12.742 -0.8769  0.2322  0.3622
17501TIP3    H173994   1.512   0.717  12.769 -0.5960  0.4362  1.0353
17501TIP3    H273995   1.415   0.819  12.715 -1.0754 -0.1006  0.8664
17502TIP3   OH273996   2.533   5.087  12.563  0.0078 -0.6818 -0.7742
17502TIP3    H173997   2.598   5.112  12.498 -1.4918 -1.1625 -2.5462
17502TIP3    H273998   2.530   4.991  12.557 -0.5313 -0.6922 -0.3849
17503TIP3   OH273999   2.820   2.432  15.112  0.6568  0.3198  0.5525
17503TIP3    H174000   2.893   2.459  15.056 -0.1868  0.7999 -0.3632
17503TIP3    H274001   2.832   2.480  15.193  1.9774 -0.4793  0.8484
17504TIP3   OH274002   1.247   1.245   3.520  0.2806  0.1936 -0.0390
17504TIP3    H174003   1.289   1.240   3.435  1.3065  1.0216  0.3934
17504TIP3    H274004   1.242   1.339   3.539 -2.4296  0.1876 -0.3698
17505TIP3   OH274005   0.358   5.634   0.082  0.2037 -0.3489  0.0630
17505TIP3    H174006   0.394   5.557   0.037 -0.8366 -1.5507  1.2300
17505TIP3    H274007   0.363   5.704   0.016  0.1510 -1.6729 -1.4153
17506TIP3   OH274008   6.798   0.419   5.234  0.1599  0.6932 -0.3113
17506TIP3    H174009   6.751   0.491   5.192  1.2106  1.8215  0.3856
17506TIP3    H274010   6.839   0.372   5.162 -0.0804  1.1318 -0.7398
17507TIP3   OH274011   1.517   5.614  17.021 -0.5454  0.5671  0.0907
17507TIP3    H174012   1.517   5.697  17.068 -0.1331  0.5068  0.2029
17507TIP3    H274013   1.509   5.548  17.090 -0.5381  0.5003  0.0280
17508TIP3   OH274014   3.323   1.106  14.535  0.0621  0.4091  0.5279
17508TIP3    H174015   3.310   1.079  14.626  1.0060  1.0620  0.8683
17508TIP3    H274016   3.404   1.157  14.537  0.3251  0.0656 -0.7560
17509TIP3   OH274017   5.111   6.107   2.493  0.3277  0.0944  0.4710
17509TIP3    H174018   5.097   6.084   2.401 -1.5283  0.1179  0.6929
17509TIP3    H274019   5.185   6.053   2.521  0.0782 -0.8874 -0.6939
17510TIP3   OH274020   3.358   5.379   2.562  0.1771  0.2375 -0.3077
17510TIP3    H174021   3.423   5.337   2.619  1.1252  1.4231 -0.4825
17510TIP3    H274022   3.407   5.401   2.483 -0.7799 -0.0708 -1.0063
17511TIP3   OH274023   2.235   5.016  10.841  0.1863  0.2242  0.2501
17511TIP3    H174024   2.142   4.996  10.856  0.0425  1.2686  0.8682
17511TIP3    H274025   2.282   4.946  10.885 -0.2964  0.8745  1.8773
17512TIP3   OH274026   6.520   2.923   2.676  0.4176 -0.1719 -0.5018
17512TIP3    H174027   6.462   2.991   2.640  0.4570  0.5110  0.7000
17512TIP3    H274028   6.549   2.958   2.760 -2.9154 -3.3930  2.3042
17513TIP3   OH274029   1.460   4.443  11.059  0.1662 -0.3025 -0.6215
17513TIP3    H174030   1.451   4.460  11.153 -0.5504  0.4511 -0.8116
17513TIP3    H274031   1.552   4.465  11.040  0.2492 -0.2122 -0.1420
17514TIP3   OH274032   0.826   5.271   3.365  0.3013 -0.3398 -0.1280
17514TIP3    H174033   0.765   5.344   3.366 -1.1858 -1.5261  1.4250
17514TIP3    H274034   0.855   5.263   3.456  1.4305 -0.9018 -0.5127
17515TIP3   OH274035   3.204   0.675  14.076 -0.2302  0.1380  0.1893
17515TIP3    H174036   3.181   0.594  14.031  1.1888 -0.7909  1.0588
17515TIP3    H274037   3.123   0.727  14.075 -0.8822 -0.8401 -1.2765
17516TIP3   OH274038   2.016   0.745   1.945 -0.0241  0.4896 -0.5695
17516TIP3    H174039   1.992   0.736   1.853 -0.1763  1.5490 -0.6541
17516TIP3    H274040   2.108   0.717   1.949 -0.2344 -0.2542 -0.9001
17517TIP3   OH274041   4.212   1.202  16.754 -0.8644  0.4697 -0.5599
17517TIP3    H174042   4.200   1.145  16.678 -0.7805 -0.8229  0.3593
17517TIP3    H274043   4.291   1.252  16.735 -0.9460  0.2948 -1.3916
17518TIP3   OH274044   6.258   2.329   3.886 -0.5102  0.0807  0.0884
17518TIP3    H174045   6.180   2.357   3.933 -0.1673  0.2386  0.5658
17518TIP3    H274046   6.311   2.409   3.877  1.3569 -0.6566  3.1107
17519TIP3   OH274047   2.539   3.829  16.067  0.0004  0.0728  0.1941
17519TIP3    H174048   2.486   3.853  15.992  0.2607  0.3961  0.1122
17519TIP3    H274049   2.598   3.761  16.034  1.8414  1.9192 -0.5964
17520TIP3   OH274050   3.290   5.003   0.388  0.2341  0.4225  0.2672
17520TIP3    H174051   3.248   5.050   0.461  1.1260  1.1122  0.3617
17520TIP3    H274052   3.255   5.044   0.309 -0.6227 -0.2264  0.2971
17521TIP3   OH274053   1.705   4.325  11.201  0.1519  0.0766 -0.3954
17521TIP3    H174054   1.715   4.400  11.142  0.5322  0.2877 -0.0750
17521TIP3    H274055   1.719   4.362  11.288  0.3371 -0.3655 -0.2339
17522TIP3   OH274056   3.972   2.979  15.100  0.2608 -0.0095 -0.1125
17522TIP3    H174057   4.052   2.933  15.126 -0.2351  0.8886  3.6284
17522TIP3    H274058   3.907   2.952  15.166 -1.4672  2.0372 -0.8810
17523TIP3   OH274059   4.190   5.612  13.867 -0.0295  0.0162  0.6588
17523TIP3    H174060   4.118   5.675  13.870 -0.7621 -0.7470  0.0286
17523TIP3    H274061   4.146   5.527  13.861  0.8879 -0.7320  3.3264
17524TIP3   OH274062   1.138   1.572  13.501  0.4168 -0.4780  0.2114
17524TIP3    H174063   1.163   1.502  13.562  0.3726 -2.0120 -1.4325
17524TIP3    H274064   1.122   1.648  13.557 -0.4063 -2.0022  2.2025
17525TIP3   OH274065   4.604   0.178   4.627 -0.2346  0.3603  0.2411
17525TIP3    H174066   4.522   0.184   4.675 -0.2480  2.5582  0.0261
17525TIP3    H274067   4.578   0.167   4.535 -0.3466  2.1915  0.0298
17526TIP3   OH274068   4.036   1.164  12.308  0.6447 -0.4364 -0.8865
17526TIP3    H174069   4.057   1.100  12.240  3.5070  0.8656 -1.3803
17526TIP3    H274070   4.005   1.241  12.259  0.5136 -0.2719 -0.5476
17527TIP3   OH274071   1.352   6.281   0.392  0.0025 -0.4403 -0.1557
17527TIP3    H174072   1.396   6.349   0.341  1.6928 -0.7082  0.8593
17527TIP3    H274073   1.321   6.218   0.327 -0.0380  0.4186 -0.9938
17528TIP3   OH274074   4.613   6.298  14.090  0.1328  0.2541  0.3911
17528TIP3    H174075   4.572   6.227  14.041 -0.5405  0.3104  0.8575
17528TIP3    H274076   4.579   6.378  14.050  0.7774  0.3302 -0.0379
17529TIP3   OH274077   4.465   3.360   5.667 -0.2185 -0.4404  0.3888
17529TIP3    H174078   4.376   3.381   5.695 -1.1654 -1.8997 -1.2682
17529TIP3    H274079   4.464   3.266   5.652  1.2398 -0.2990 -0.8902
17530TIP3   OH274080   3.082   1.807   3.193  0.0859  0.2287 -0.0778
17530TIP3    H174081   3.023   1.845   3.128  0.1991 -1.1612 -1.0452
17530TIP3    H274082   3.057   1.715   3.198  0.8758  0.0468  0.9687
17531TIP3   OH274083   0.935   1.653  16.993  0.3736  0.1348  0.2005
17531TIP3    H174084   0.901   1.632  16.906  2.5184  1.3404 -1.0183
17531TIP3    H274085   0.907   1.743  17.009  2.0434  0.8159 -0.4191
17532TIP3   OH274086   6.596   5.032   2.536 -0.1760 -0.3056  0.4758
17532TIP3    H174087   6.660   4.963   2.516 -0.6744 -1.5021  2.6504
17532TIP3    H274088   6.554   5.002   2.617 -1.1579  2.0694  0.9141
17533TIP3   OH274089   1.524   5.573  13.541 -0.2132 -0.0477 -0.0126
17533TIP3    H174090   1.573   5.493  13.522 -0.6206 -0.1695 -0.6017
17533TIP3    H274091   1.518   5.617  13.456 -1.3228 -0.1510  0.0046
17534TIP3   OH274092   4.719   0.713  12.824 -0.3748 -0.2674  0.2833
17534TIP3    H174093   4.656   0.641  12.833 -1.3232  0.6128  0.8975
17534TIP3    H274094   4.751   0.727  12.913 -0.5942  0.4018  0.2627
17535TIP3   OH274095   1.948   1.899  12.897 -0.1147 -0.6253  0.2190
17535TIP3    H174096   1.909   1.979  12.862 -0.7686 -0.4401  1.3268
17535TIP3    H274097   1.920   1.897  12.989  0.5517 -1.7149  0.4125
17536TIP3   OH274098   2.727   1.889  15.218  0.1565 -0.4095 -0.3027
17536TIP3    H174099   2.710   1.975  15.180 -0.6855 -1.3660 -2.2254
17536TIP3    H274100   2.766   1.838  15.147 -1.2240 -2.2055  0.1477
17537TIP3   OH274101   1.536   0.131  14.775 -0.4849 -0.1569  0.0370
17537TIP3    H174102   1.464   0.127  14.838  0.1876 -0.2429  0.8253
17537TIP3    H274103   1.580   0.047  14.785 -0.3290 -0.1438 -0.5131
17538TIP3   OH274104   5.228   5.045  14.390  0.4468  0.2401  0.1646
17538TIP3    H174105   5.270   5.131  14.394 -1.5724  1.3238 -0.3717
17538TIP3    H274106   5.155   5.057  14.329  0.2197 -1.9212 -0.0578
17539TIP3   OH274107   6.208   4.370  16.957 -0.4780  0.2227  0.2739
17539TIP3    H174108   6.229   4.452  17.002 -0.8585  0.6995 -0.3993
17539TIP3    H274109   6.244   4.380  16.869  1.2682 -1.1665  0.7774
17540TIP3   OH274110   2.596   1.271   4.123 -0.5478  0.2521 -0.1689
17540TIP3    H174111   2.685   1.250   4.149  0.1957 -1.1254 -3.3092
17540TIP3    H274112   2.557   1.313   4.199  2.8990  1.3113  1.1701
17541TIP3   OH274113   5.367   2.228  13.509 -0.5398  0.1443  0.3400
17541TIP3    H174114   5.364   2.309  13.558  0.5593 -0.4454  1.4143
17541TIP3    H274115   5.290   2.232  13.452 -0.9092  1.5872  0.9026
17542TIP3   OH274116   3.407   0.657   1.192  0.0307  0.6533 -0.1047
17542TIP3    H174117   3.454   0.737   1.217 -0.9972  0.8986  1.1508
17542TIP3    H274118   3.315   0.678   1.209 -0.2679 -0.7568  0.0951
17543TIP3   OH274119   4.456   1.045  15.778  0.2294  0.1264 -0.4348
17543TIP3    H174120   4.469   0.950  15.772 -3.5642 -0.4626 -3.7912
17543TIP3    H274121   4.503   1.080  15.702  1.4265  0.9664  0.6623
17544TIP3   OH274122   1.655   0.692  11.553 -0.5237 -0.2582 -0.1349
17544TIP3    H174123   1.604   0.665  11.477 -0.0242 -1.0255 -0.2153
17544TIP3    H274124   1.746   0.677  11.527 -0.3722 -1.0913  0.8115
17545TIP3   OH274125   0.472   3.690  16.087  0.6299  0.4669  0.3298
17545TIP3    H174126   0.398   3.629  16.090  2.0774 -1.5720 -2.0350
17545TIP3    H274127   0.442   3.760  16.029 -1.1359  2.3822  3.2598
17546TIP3   OH274128   0.075   5.142  16.303  0.4282 -0.2975  0.4893
17546TIP3    H174129   0.059   5.226  16.260  0.5754  0.5132  1.9502
17546TIP3    H274130   0.170   5.132  16.301  0.3998 -0.5087  0.1755
17547TIP3   OH274131   2.056   2.885  16.610  0.0346  0.2165  0.0876
17547TIP3    H174132   2.022   2.818  16.550  0.8694 -1.2413  1.1788
17547TIP3    H274133   2.089   2.954  16.552  0.9245 -1.2020 -1.1633
17548TIP3   OH274134   4.306   0.549  16.025 -0.0160 -0.2719 -0.0145
17548TIP3    H174135   4.236   0.540  16.091 -0.2093  4.3682  0.7574
17548TIP3    H274136   4.264   0.593  15.951  1.4050 -0.3673 -0.9178
17549TIP3   OH274137   1.515   0.550   2.434  0.4148 -0.0310  0.3232
17549TIP3    H174138   1.510   0.462   2.397  0.1328 -0.2516  0.8747
17549TIP3    H274139   1.588   0.592   2.387  1.3331 -0.9541  0.8772
17550TIP3   OH274140   5.499   6.433  16.119 -0.3985 -0.4951 -0.1041
17550TIP3    H174141   5.569   6.375  16.148 -1.1422 -0.8689  1.0220
17550TIP3    H274142   5.543   6.510  16.085  0.5537 -0.8250  0.3696
17551TIP3   OH274143   0.967   0.314   2.400 -0.2066  0.5619 -0.3628
17551TIP3    H174144   0.953   0.308   2.306 -1.5075  0.3364 -0.1793
17551TIP3    H274145   0.956   0.224   2.431  1.8753  0.3165 -0.1662
17552TIP3   OH274146   1.200   0.955  16.482 -0.5925 -0.1026  0.0941
17552TIP3    H174147   1.242   1.033  16.445 -0.8667  0.7260  1.4387
17552TIP3    H274148   1.212   0.965  16.577 -0.5084 -1.7850  0.2944
17553TIP3   OH274149   6.805   1.424   4.925 -0.7039  0.1661 -0.4758
17553TIP3    H174150   6.867   1.426   4.998 -0.1854  0.2504 -0.9116
17553TIP3    H274151   6.853   1.462   4.851 -1.1062 -0.2139 -0.9435
17554TIP3   OH274152   0.393   4.075   2.657 -0.0726  0.5176  0.5150
17554TIP3    H174153   0.411   4.126   2.578 -1.5625  1.3470  0.6609
17554TIP3    H274154   0.415   3.985   2.634  2.3317  1.1444  0.1545
17555TIP3   OH274155   0.196   6.269   3.436 -0.0289  0.0789  0.1950
17555TIP3    H174156   0.207   6.308   3.523 -1.1590  0.2318  0.2828
17555TIP3    H274157   0.203   6.175   3.450  2.8243  0.1461 -0.0293
17556TIP3   OH274158   4.827   1.518   0.625 -0.2239 -0.2263 -0.3362
17556TIP3    H174159   4.732   1.508   0.624 -0.2108 -0.3358 -0.5151
17556TIP3    H274160   4.843   1.586   0.690 -0.4724  0.2734 -0.7865
17557TIP3   OH274161   5.041   4.341  12.689 -0.4074  0.3243 -0.2324
17557TIP3    H174162   5.091   4.384  12.620  0.2511 -1.3821 -0.8816
17557TIP3    H274163   5.094   4.352  12.768  0.4994 -0.5464 -0.7007
17558TIP3   OH274164   2.541   4.177  16.574  0.2648  0.5310 -0.3336
17558TIP3    H174165   2.525   4.084  16.562 -1.2972  0.5660  1.1161
17558TIP3    H274166   2.620   4.181  16.629 -0.1144  0.0209  0.2654
17559TIP3   OH274167   4.177   1.039   1.437 -0.0869 -0.3853 -0.8555
17559TIP3    H174168   4.219   1.003   1.515  1.2972  1.6604 -0.5805
17559TIP3    H274169   4.092   1.071   1.468 -0.1742 -0.9089 -0.5355
17560TIP3   OH274170   1.963   0.579  13.551 -0.0786 -0.3209  0.2297
17560TIP3    H174171   2.025   0.652  13.555 -0.5944  0.0637  1.3318
17560TIP3    H274172   2.016   0.502  13.571  0.1022 -0.0224  0.9221
17561TIP3   OH274173   3.865   4.881   2.611  0.6279  0.1996 -0.3413
17561TIP3    H174174   3.859   4.964   2.562  3.1201  0.5994 -0.1378
17561TIP3    H274175   3.816   4.819   2.558 -1.5879  1.8325 -0.3454
17562TIP3   OH274176   0.060   1.762   4.420  0.0596  0.3198  0.3627
17562TIP3    H174177   0.022   1.690   4.469  2.8874 -0.5422  1.4807
17562TIP3    H274178   0.100   1.818   4.486  1.0980  0.9165 -0.7179
17563TIP3   OH274179   0.447   4.456   4.447 -0.0288 -0.1014  0.0673
17563TIP3    H174180   0.461   4.492   4.535 -0.6083 -0.1230  0.1744
17563TIP3    H274181   0.524   4.484   4.398 -0.2137  0.8584  0.2842
17564TIP3   OH274182   0.781   6.811   1.191  0.6484 -0.8787 -0.2639
17564TIP3    H174183   0.700   6.779   1.150 -0.9428 -0.2229  2.1309
17564TIP3    H274184   0.805   6.742   1.253 -0.1422  0.3859  1.5528
17565TIP3   OH274185   6.189   3.059  11.894  0.1375  0.3692 -0.0156
17565TIP3    H174186   6.238   3.105  11.825 -1.6299  0.1082 -1.5282
17565TIP3    H274187   6.216   2.968  11.885 -0.0547  0.3427 -0.3580
17566TIP3   OH274188   5.873   1.122   4.375 -0.3825 -0.2596  0.0986
17566TIP3    H174189   5.818   1.083   4.444 -0.0321 -0.8498  0.0487
17566TIP3    H274190   5.853   1.071   4.297 -1.6024  1.0981 -0.5321
17567TIP3   OH274191   2.154   3.476  15.430  0.4003  0.0240  0.5186
17567TIP3    H174192   2.114   3.523  15.503 -0.2712  0.0781  0.1311
17567TIP3    H274193   2.080   3.432  15.387  0.8467 -0.3708  0.1398
17568TIP3   OH274194   2.210   3.597   3.053  0.2565  0.7098  0.5688
17568TIP3    H174195   2.206   3.673   2.995 -0.3372  0.6277  0.4963
17568TIP3    H274196   2.205   3.521   2.994 -0.1347  0.6252  0.7100
17569TIP3   OH274197   6.280   0.695  14.384  0.9921 -0.3837  0.5713
17569TIP3    H174198   6.191   0.701  14.418  0.2027 -0.8639 -1.2803
17569TIP3    H274199   6.312   0.785  14.383  0.5221 -0.2063  1.2340
17570TIP3   OH274200   1.073   1.881  12.284 -0.3406 -0.1206 -0.3424
17570TIP3    H174201   1.050   1.973  12.276 -2.5411 -0.4409  1.4600
17570TIP3    H274202   1.124   1.876  12.365  1.5246 -0.2570 -1.4637
17571TIP3   OH274203   5.195   1.845  11.606 -0.7174 -0.4131  0.1745
17571TIP3    H174204   5.212   1.874  11.695  1.3908 -0.8213 -0.0425
17571TIP3    H274205   5.172   1.753  11.615 -0.9332 -0.3452  0.3264
17572TIP3   OH274206   2.359   0.217   0.138  0.3193 -0.0917 -0.1222
17572TIP3    H174207   2.328   0.218   0.229  1.4007  0.7631  0.2716
17572TIP3    H274208   2.338   0.129   0.106 -1.7673  0.1982  0.3329
17573TIP3   OH274209   5.367   0.578  12.874 -0.3993  0.5558  0.0610
17573TIP3    H174210   5.298   0.606  12.814  0.4736  1.0252 -0.7662
17573TIP3    H274211   5.429   0.531  12.818  0.7108  1.4888  0.4685
17574TIP3   OH274212   3.305   5.448  13.876  0.3878  0.0027 -0.1982
17574TIP3    H174213   3.329   5.481  13.962 -2.6746  2.7452 -0.1714
17574TIP3    H274214   3.339   5.359  13.873  0.8597 -0.1056  3.7284
17575TIP3   OH274215   4.005   1.251  11.408  0.0642  0.0620 -0.0361
17575TIP3    H174216   4.039   1.201  11.482  1.8354 -0.1721 -0.9600
17575TIP3    H274217   3.972   1.185  11.347 -0.7154  0.2166  0.2099
17576TIP3   OH274218   5.118   6.038   5.771  0.3446  0.7389 -0.0354
17576TIP3    H174219   5.028   6.039   5.740 -0.2386  0.8238  1.5647
17576TIP3    H274220   5.120   6.102   5.842  1.3862 -0.0298  0.6574
17577TIP3   OH274221   1.874   1.148  12.469  0.1768  1.1867  0.0751
17577TIP3    H174222   1.828   1.232  12.469 -0.9812  0.5749 -0.9027
17577TIP3    H274223   1.819   1.090  12.418  0.5946 -0.3955  1.3402
17578TIP3   OH274224   5.909   0.016  12.724 -0.1411 -0.5157  0.3621
17578TIP3    H174225   5.885  -0.075  12.708 -0.7580 -0.8978  3.0408
17578TIP3    H274226   5.939   0.017  12.815  0.5289  1.8420  0.1726
17579TIP3   OH274227   4.635   1.142  14.338  0.2206  0.4003  0.4026
17579TIP3    H174228   4.576   1.162  14.410 -0.9759 -1.5960  0.0718
17579TIP3    H274229   4.633   1.220  14.282 -0.5518  1.1180  1.4115
17580TIP3   OH274230   5.834   4.100  13.291 -0.5320 -0.2447  0.1684
17580TIP3    H174231   5.865   4.105  13.381 -1.0608  0.1055  0.3373
17580TIP3    H274232   5.758   4.158  13.288 -0.4501 -0.1537 -0.5334
17581TIP3   OH274233   5.646   1.324   4.414 -0.0072 -0.4593 -0.4129
17581TIP3    H174234   5.682   1.238   4.393 -1.7578 -1.1906 -0.6267
17581TIP3    H274235   5.719   1.373   4.450  2.3733 -0.3415 -4.7594
17582TIP3   OH274236   4.534   4.964  11.927  0.2545  0.0017 -0.2630
17582TIP3    H174237   4.548   5.058  11.934 -0.1024 -0.0532  1.6745
17582TIP3    H274238   4.617   4.925  11.957  0.2383 -0.3107 -0.6104
17583TIP3   OH274239   2.223   5.000  12.542 -0.2661  0.7202 -0.1386
17583TIP3    H174240   2.266   5.026  12.460  0.9821 -1.3063 -0.1918
17583TIP3    H274241   2.285   5.026  12.610 -0.9624  1.7105  0.1445
17584TIP3   OH274242   1.600   2.414   4.862 -0.0708 -0.2463 -0.3302
17584TIP3    H174243   1.526   2.463   4.826  0.2446 -0.1123 -0.7993
17584TIP3    H274244   1.642   2.476   4.922 -1.6461 -1.0283  1.7329
17585TIP3   OH274245   2.809   6.764  12.070 -0.5003  0.7970  0.1119
17585TIP3    H174246   2.740   6.820  12.107 -1.3858  1.3612 -2.1889
17585TIP3    H274247   2.761   6.692  12.028  0.4020  0.4620 -0.3723
17586TIP3   OH274248   0.414   0.723   2.944 -0.5572 -0.0703 -0.7355
17586TIP3    H174249   0.462   0.765   3.015  0.6556 -2.3167 -0.1163
17586TIP3    H274250   0.384   0.795   2.889  0.8815  1.5907  0.5401
17587TIP3   OH274251   3.292   2.733  15.452  0.5671  0.3265 -0.3931
17587TIP3    H174252   3.218   2.748  15.510  0.7388  0.8969 -0.3177
17587TIP3    H274253   3.369   2.750  15.506  0.8174 -1.5081 -0.0893
17588TIP3   OH274254   6.341   1.696   0.755  0.5303 -0.0619  0.4147
17588TIP3    H174255   6.374   1.785   0.746 -2.7147  1.1304 -1.3192
17588TIP3    H274256   6.329   1.683   0.849 -1.2812  2.3913  0.6092
17589TIP3   OH274257   0.208   0.836   4.680  0.0716  0.6551 -0.9223
17589TIP3    H174258   0.286   0.781   4.673 -1.1273 -0.9496 -2.8102
17589TIP3    H274259   0.174   0.840   4.591 -2.9157 -0.1080  0.0794
17590TIP3   OH274260   6.250   6.549  14.706  0.1305 -0.4202  0.6610
17590TIP3    H174261   6.277   6.582  14.792 -0.2964  0.7673  0.3440
17590TIP3    H274262   6.182   6.484  14.726  0.0549 -0.1752  1.2179
17591TIP3   OH274263   0.908   2.293   1.846 -0.2844 -0.1715  0.0127
17591TIP3    H174264   0.954   2.339   1.916 -1.0428  0.2919  0.2234
17591TIP3    H274265   0.899   2.203   1.879 -1.3687  0.2349  0.8981
17592TIP3   OH274266   1.500   4.717   5.136  0.0311 -0.1109 -0.0668
17592TIP3    H174267   1.473   4.779   5.068  0.4760  0.7920  0.5541
17592TIP3    H274268   1.501   4.769   5.216  0.5997 -0.8821  0.4386
17593TIP3   OH274269   0.561   4.797  14.243  0.3583  0.1095 -0.3015
17593TIP3    H174270   0.621   4.773  14.172 -1.8972  0.9836 -2.6464
17593TIP3    H274271   0.486   4.836  14.199 -1.9977 -0.9319  2.4614
17594TIP3   OH274272   6.131   3.040  14.905  0.2943 -0.1275 -0.2257
17594TIP3    H174273   6.161   2.993  14.982  0.5260  0.0639 -0.1990
17594TIP3    H274274   6.201   3.102  14.885 -0.7499  1.4645  0.8105
17595TIP3   OH274275   3.062   1.930  16.677 -0.3457  0.2653  0.4660
17595TIP3    H174276   3.111   1.856  16.641  0.9994  1.5925 -0.5624
17595TIP3    H274277   3.108   1.952  16.758 -0.0875  0.6219  0.2275
17596TIP3   OH274278   4.580   3.291  16.321  0.1602 -0.3482 -0.0099
17596TIP3    H174279   4.613   3.380  16.333  2.3065 -1.0332 -0.2512
17596TIP3    H274280   4.603   3.247  16.403  0.4403 -1.0359 -0.4549
17597TIP3   OH274281   0.481   2.508   6.304 -0.0385  0.2258  0.1766
17597TIP3    H174282   0.484   2.493   6.398  3.1729  0.5992  0.2304
17597TIP3    H274283   0.393   2.480   6.278 -0.8208 -0.4041  3.1654
17598TIP3   OH274284   0.616   0.945  14.707 -0.4359 -0.2220  0.3492
17598TIP3    H174285   0.662   0.862  14.692 -0.7837 -0.6520  1.5637
17598TIP3    H274286   0.545   0.945  14.643 -0.1763 -0.6440  0.0493
17599TIP3   OH274287   5.989   3.439   0.660 -0.2496  0.4044 -0.6527
17599TIP3    H174288   5.941   3.414   0.739 -1.5872 -2.1039 -2.1409
17599TIP3    H274289   6.067   3.384   0.661  0.7331  1.7518 -0.1690
17600TIP3   OH274290   6.767   5.905  13.813 -0.0663  0.2135 -0.2914
17600TIP3    H174291   6.849   5.890  13.764 -0.2531  0.8914 -0.8347
17600TIP3    H274292   6.786   5.981  13.868 -0.0549 -0.1700  0.2340
17601TIP3   OH274293   6.437   3.963  14.702 -0.3949 -0.0904 -0.4591
17601TIP3    H174294   6.358   3.919  14.669 -0.8907 -0.2125  0.8550
17601TIP3    H274295   6.484   3.894  14.749  1.1342 -0.3363 -2.2306
17602TIP3   OH274296   2.335   4.658  11.268 -0.1182  0.4209  0.2843
17602TIP3    H174297   2.402   4.688  11.329 -0.0320  2.2622 -0.6566
17602TIP3    H274298   2.384   4.628  11.192 -0.2313 -1.7998  0.9953
17603TIP3   OH274299   6.490   2.417   1.833 -0.2943 -0.2429  0.1842
17603TIP3    H174300   6.516   2.328   1.857  0.6964  0.1542  0.6089
17603TIP3    H274301   6.556   2.474   1.873  0.3132  0.5675 -1.8371
17604TIP3   OH274302   6.266   2.387  12.387 -0.0097  0.1400  0.4071
17604TIP3    H174303   6.362   2.381  12.392  0.1159  1.1292 -0.4283
17604TIP3    H274304   6.240   2.308  12.338  0.4709  0.3264 -0.1669
17605TIP3   OH274305   5.960   2.647   2.515  0.1264 -0.5770  0.3018
17605TIP3    H174306   5.960   2.582   2.585  1.3572  0.6829  1.5408
17605TIP3    H274307   5.967   2.731   2.560 -1.7285  0.4958 -1.2228
17606TIP3   OH274308   4.949   2.985   6.254 -0.2457  0.2747  0.3089
17606TIP3    H174309   4.918   2.903   6.216 -0.0698  0.8337 -1.0934
17606TIP3    H274310   4.870   3.039   6.260  0.1419  1.1863 -1.9353
17607TIP3   OH274311   4.483   1.261  14.101 -0.2028  0.0134  0.2876
17607TIP3    H174312   4.494   1.325  14.032 -0.5213 -1.2159 -0.9573
17607TIP3    H274313   4.554   1.198  14.088 -0.6237 -0.5671  0.6922
17608TIP3   OH274314   2.471   6.612  14.846 -0.0762 -0.0998 -0.4964
17608TIP3    H174315   2.413   6.537  14.837  0.0707 -0.3910  0.8202
17608TIP3    H274316   2.558   6.575  14.861  0.3345  0.3422 -1.6091
17609TIP3   OH274317   4.680   1.000  12.300  0.3084 -0.3839  0.0030
17609TIP3    H174318   4.741   0.933  12.270  1.6229 -0.0256  1.7262
17609TIP3    H274319   4.678   0.990  12.395 -1.7199  0.1654  0.0811
17610TIP3   OH274320   0.868   0.441   4.740 -0.5220 -0.3626  0.3422
17610TIP3    H174321   0.901   0.526   4.712 -0.8837 -0.2291  0.3163
17610TIP3    H274322   0.877   0.441   4.835 -0.6009 -0.2584  0.3504
17611TIP3   OH274323   3.503   1.437   1.232 -0.4837 -0.1549  0.0608
17611TIP3    H174324   3.451   1.511   1.199 -0.4998 -0.5700 -0.8816
17611TIP3    H274325   3.555   1.409   1.156  2.1217  1.0720  1.2562
17612TIP3   OH274326   3.833   3.170  13.057  0.1567  0.1107 -0.0496
17612TIP3    H174327   3.741   3.141  13.064  0.3178 -0.6016 -0.7202
17612TIP3    H274328   3.868   3.157  13.145 -0.2701 -0.0094  0.1095
17613TIP3   OH274329   4.948   3.195   0.260  0.1720 -0.0816  0.0641
17613TIP3    H174330   5.043   3.192   0.272  0.5272 -0.9091 -2.3179
17613TIP3    H274331   4.920   3.104   0.268 -0.1397 -0.0849 -0.9289
17614TIP3   OH274332   3.735   0.493  13.931  0.4801 -0.3426 -0.5997
17614TIP3    H174333   3.665   0.447  13.978  0.0916 -0.9615 -1.7569
17614TIP3    H274334   3.693   0.524  13.851  2.1791 -3.3682 -2.8555
17615TIP3   OH274335   5.555   3.549   4.814 -0.5333  0.0619 -0.0029
17615TIP3    H174336   5.577   3.552   4.907 -1.0795 -0.4088  0.1469
17615TIP3    H274337   5.512   3.464   4.802 -0.8686  0.3078 -0.5989
17616TIP3   OH274338   5.357   1.605   3.519 -0.3054 -0.3587  0.3129
17616TIP3    H174339   5.266   1.586   3.542  0.3210 -3.6792  0.5538
17616TIP3    H274340   5.365   1.700   3.528 -3.3906 -0.1072  1.5278
17617TIP3   OH274341   4.799   2.218   2.340  0.3100 -0.0752  0.0174
17617TIP3    H174342   4.720   2.197   2.291  0.8363  0.3785 -1.0586
17617TIP3    H274343   4.869   2.218   2.274  1.1198  0.0626  0.8530
17618TIP3   OH274344   6.061   3.959   3.727 -0.2997 -0.3384  0.4570
17618TIP3    H174345   6.069   3.945   3.632  1.0799  1.4841  0.2439
17618TIP3    H274346   6.150   3.980   3.755 -0.7678 -0.4641  2.0875
17619TIP3   OH274347   2.724   2.163   2.939  0.0049  0.2355 -0.2411
17619TIP3    H174348   2.647   2.218   2.947 -0.1661  1.0210 -4.7025
17619TIP3    H274349   2.792   2.210   2.988 -1.4160  1.4678  0.6391
17620TIP3   OH274350   5.459   4.287   2.024 -0.1460  0.3563  0.0550
17620TIP3    H174351   5.383   4.231   2.042  0.3305 -0.2483  0.2221
17620TIP3    H274352   5.462   4.294   1.929 -0.3970  0.3664  0.0471
17621TIP3   OH274353   0.534   5.578   2.930 -0.4976  0.0866 -0.4048
17621TIP3    H174354   0.478   5.638   2.882 -0.1113  1.8513  1.2025
17621TIP3    H274355   0.593   5.635   2.980  0.2003 -1.6390  0.8547
17622TIP3   OH274356   3.870   4.895   1.838 -0.1254  0.3523 -0.3223
17622TIP3    H174357   3.860   4.846   1.920 -1.0461  1.2039  0.1032
17622TIP3    H274358   3.943   4.955   1.855 -0.3136  0.5268 -0.1122
17623TIP3   OH274359   5.217   0.486   5.643 -0.7914  0.0724  0.1552
17623TIP3    H174360   5.283   0.416   5.642  0.3395  1.1245 -0.5441
17623TIP3    H274361   5.138   0.443   5.676 -0.0551 -1.4750 -0.0072
17624TIP3   OH274362   0.964   1.509   4.986  0.2651  0.1774 -0.0484
17624TIP3    H174363   1.045   1.532   4.940  0.3897 -0.1467  0.0046
17624TIP3    H274364   0.992   1.489   5.075  0.1949 -0.3996 -0.1520
17625TIP3   OH274365   4.981   2.118  16.847  0.5985  0.2393  0.1730
17625TIP3    H174366   4.905   2.178  16.848  1.5715  1.5197  0.1296
17625TIP3    H274367   4.978   2.075  16.933 -0.0536  0.4443  0.2599
17626TIP3   OH274368   6.583   2.330  16.681 -0.1110  0.0829 -0.3917
17626TIP3    H174369   6.536   2.317  16.764 -0.3881 -0.7491 -0.6706
17626TIP3    H274370   6.672   2.353  16.707  0.4781 -2.5208  0.1971
17627TIP3   OH274371   3.267   1.171  16.101  0.0113 -0.4374 -0.0155
17627TIP3    H174372   3.261   1.266  16.097  2.6280 -0.0435  2.0171
17627TIP3    H274373   3.354   1.151  16.064 -0.1563 -1.9489  0.3285
17628TIP3   OH274374   4.181   4.258  10.585 -0.2182  0.3608 -0.0711
17628TIP3    H174375   4.195   4.317  10.659  1.7206 -0.9490  0.6946
17628TIP3    H274376   4.090   4.232  10.592 -0.6954  2.0166  0.4757
17629TIP3   OH274377   5.128   6.404   3.279 -0.1981 -0.1757 -0.4181
17629TIP3    H174378   5.102   6.312   3.276 -0.4740 -0.0900 -0.6681
17629TIP3    H274379   5.078   6.440   3.353  0.0499 -0.2675 -0.2033
17630TIP3   OH274380   3.923   4.402   2.225 -0.2307  0.5489  0.1930
17630TIP3    H174381   3.970   4.320   2.240  0.9859  1.1530 -0.2197
17630TIP3    H274382   3.986   4.470   2.245 -1.0171  1.3939 -0.1283
17631TIP3   OH274383   0.514   0.447   4.167 -0.0650 -0.4145 -0.1439
17631TIP3    H174384   0.419   0.459   4.164 -0.2441 -1.6193 -0.0295
17631TIP3    H274385   0.537   0.462   4.259 -0.2235 -0.5911 -0.0740
17632TIP3   OH274386   6.054   2.112   2.385  0.7496  0.1936 -0.5514
17632TIP3    H174387   6.058   2.204   2.357  0.4975 -0.2470 -2.0781
17632TIP3    H274388   5.991   2.071   2.326  0.5175 -0.8864  0.3987
17633TIP3   OH274389   0.356   3.674   3.017  0.2140  0.0539 -0.6269
17633TIP3    H174390   0.286   3.703   2.958  1.1296 -0.9015 -2.2755
17633TIP3    H274391   0.435   3.719   2.984  0.5640  0.3210  0.5475
17634TIP3   OH274392   2.327   0.441  12.394 -0.1391 -0.0567 -0.0810
17634TIP3    H174393   2.280   0.401  12.467 -0.1273  0.3654  0.1612
17634TIP3    H274394   2.359   0.524  12.429 -0.6475  0.4293 -0.7478
17635TIP3   OH274395   4.361   1.892  11.408 -0.1594  0.6138  0.3973
17635TIP3    H174396   4.445   1.846  11.407  0.6648  2.0520 -1.1775
17635TIP3    H274397   4.317   1.859  11.486  1.5601 -0.7048  0.8760
17636TIP3   OH274398   2.156   2.896   5.135  0.0594 -0.0540 -0.6431
17636TIP3    H174399   2.174   2.933   5.049 -3.0485  0.3172 -1.2771
17636TIP3    H274400   2.087   2.832   5.119 -0.4814 -0.1020  1.5477
17637TIP3   OH274401   4.081   2.733   0.511  0.1515  0.7599 -0.5531
17637TIP3    H174402   4.151   2.668   0.513 -0.3749  0.1973 -0.3865
17637TIP3    H274403   4.001   2.683   0.520 -0.2547  1.4396 -0.3137
17638TIP3   OH274404   1.761   2.893  12.941 -0.2382  0.4599  0.0023
17638TIP3    H174405   1.767   2.894  12.845  0.1879  1.3855  0.0203
17638TIP3    H274406   1.747   2.985  12.965  2.4106  0.6999  0.9565
17639TIP3   OH274407   6.456   4.072  15.071 -0.0481 -0.3501  0.3659
17639TIP3    H174408   6.537   4.122  15.069 -0.1294 -0.1845 -1.7755
17639TIP3    H274409   6.479   3.990  15.114  1.0347  0.0228  0.5289
17640TIP3   OH274410   5.524   4.143  11.256  0.3466  0.1755 -0.0780
17640TIP3    H174411   5.556   4.211  11.316 -0.0549 -0.2779  0.6690
17640TIP3    H274412   5.538   4.061  11.304 -3.1213 -0.0075  0.9201
17641TIP3   OH274413   0.200   1.558   1.213  0.0659 -0.7390 -0.2964
17641TIP3    H174414   0.123   1.609   1.236 -0.5682 -1.2994 -1.1426
17641TIP3    H274415   0.214   1.574   1.120  0.7424 -0.9568 -0.2442
17642TIP3   OH274416   6.081   3.163   2.795  0.2497  0.0141 -0.0500
17642TIP3    H174417   6.102   3.073   2.769  1.6014  0.3953 -0.3772
17642TIP3    H274418   6.150   3.186   2.857  0.8047  1.3228 -1.1178
17643TIP3   OH274419   4.183   2.667   6.443  0.1585  0.5290  0.1086
17643TIP3    H174420   4.153   2.629   6.525 -1.0925  2.5857  0.6892
17643TIP3    H274421   4.233   2.598   6.401 -3.8485 -2.6445 -0.0757
17644TIP3   OH274422   3.457   3.983   4.874  0.2095  0.0707  0.3349
17644TIP3    H174423   3.522   3.947   4.934 -0.3528  0.1538  0.9994
17644TIP3    H274424   3.479   4.076   4.868  2.2901 -0.4327 -2.1606
17645TIP3   OH274425   3.355   6.582   5.145  0.1205  0.0991  0.4939
17645TIP3    H174426   3.424   6.535   5.192 -0.8457 -1.3942  0.4722
17645TIP3    H274427   3.399   6.617   5.067  1.0980  0.1609  1.0590
17646TIP3   OH274428   4.338   5.882  10.685  0.4891  0.1913  0.2055
17646TIP3    H174429   4.359   5.938  10.760  0.9939  0.8635 -0.4124
17646TIP3    H274430   4.339   5.942  10.610  1.3840 -0.6969 -0.5276
17647TIP3   OH274431   4.655   1.025   0.700 -0.1733  0.2985  0.1262
17647TIP3    H174432   4.708   1.027   0.620 -2.0472 -0.5944 -1.2051
17647TIP3    H274433   4.655   0.932   0.725 -0.1757  0.4723  0.7834
17648TIP3   OH274434   6.359   2.266   0.312  0.4487 -0.3023  0.2312
17648TIP3    H174435   6.419   2.340   0.311 -1.8616  1.7340  0.4504
17648TIP3    H274436   6.345   2.248   0.405  0.1828 -0.2725  0.1980
17649TIP3   OH274437   2.037   6.477  16.399 -0.0776 -0.2061 -0.2656
17649TIP3    H174438   2.046   6.511  16.311 -0.3251  0.9825  0.1445
17649TIP3    H274439   1.951   6.510  16.428  0.5315  0.4652  0.8406
17650TIP3   OH274440   1.942   4.005   4.326  0.2665  0.4430 -0.1815
17650TIP3    H174441   1.944   4.090   4.281  1.4711  0.1592 -0.7024
17650TIP3    H274442   1.849   3.982   4.330  0.0523  0.9798 -1.5554
17651TIP3   OH274443   4.017   4.249   4.539 -0.0537  0.4871 -0.4822
17651TIP3    H174444   4.065   4.308   4.597 -1.7454  1.0701  0.3893
17651TIP3    H274445   3.982   4.182   4.597  0.0912 -0.1975 -1.1733
17652TIP3   OH274446   0.635   4.889  15.147  0.1592 -0.2230  0.1803
17652TIP3    H174447   0.714   4.836  15.143 -0.1707 -0.6915 -0.2554
17652TIP3    H274448   0.655   4.966  15.093  0.8838  0.4617  1.3643
17653TIP3   OH274449   2.807   3.850   1.450 -0.0079  0.3631 -0.0972
17653TIP3    H174450   2.712   3.843   1.464  0.0176 -1.7430 -0.6583
17653TIP3    H274451   2.845   3.828   1.535 -0.0227 -0.9103 -0.3987
17654TIP3   OH274452   2.505   6.562  17.187  0.4220  0.4131  0.2193
17654TIP3    H174453   2.481   6.472  17.164  0.9506  0.2310  0.3662
17654TIP3    H274454   2.528   6.558  17.280  0.7354  0.6400  0.1551
17655TIP3   OH274455   5.115   5.977   2.779 -0.2006  0.5672  0.1202
17655TIP3    H174456   5.099   5.918   2.853  0.0787  0.5946  0.2061
17655TIP3    H274457   5.140   6.060   2.821  0.7377  0.3647  0.0010
17656TIP3   OH274458   4.340   0.436  10.519  0.0185 -0.1134  0.1096
17656TIP3    H174459   4.434   0.434  10.538  0.7596 -0.6716 -3.0015
17656TIP3    H274460   4.321   0.528  10.503  0.8744 -0.2792 -2.3260
17657TIP3   OH274461   1.897   3.944   0.260 -0.1821  0.4708  0.3833
17657TIP3    H174462   1.892   3.951   0.164  1.7188 -0.2308  0.1934
17657TIP3    H274463   1.856   4.024   0.292  0.8662  1.6387 -1.0834
17658TIP3   OH274464   5.419   5.399   1.347 -0.6861  0.0764 -0.3010
17658TIP3    H174465   5.500   5.438   1.316 -1.0140 -0.8968 -2.5937
17658TIP3    H274466   5.351   5.460   1.322 -0.8860 -0.3292 -0.7638
17659TIP3   OH274467   0.340   5.433  13.998  0.6032 -0.2253 -0.1410
17659TIP3    H174468   0.256   5.456  14.038  0.2877 -1.1468 -0.2488
17659TIP3    H274469   0.364   5.509  13.945  0.8658  0.8978  1.5168
17660TIP3   OH274470   2.630   6.312  11.960 -0.5458 -0.0875  0.5140
17660TIP3    H174471   2.582   6.345  11.885 -0.2868  0.7830  0.7174
17660TIP3    H274472   2.614   6.218  11.960 -2.5592  0.2028  0.7815
17661TIP3   OH274473   5.797   1.934   5.051 -0.4011 -0.1143  0.1929
17661TIP3    H174474   5.804   1.840   5.036  0.9345  0.2551 -1.8682
17661TIP3    H274475   5.786   1.942   5.146  0.2646 -2.2965  0.5160
17662TIP3   OH274476   4.381   1.175   0.477  0.1391 -0.7527  0.0957
17662TIP3    H174477   4.315   1.216   0.533  1.0832  0.0391  0.6768
17662TIP3    H274478   4.386   1.085   0.508 -1.5012 -1.1813 -0.7630
17663TIP3   OH274479   3.342   3.075   4.458 -0.3746  0.6023 -0.0671
17663TIP3    H174480   3.268   3.102   4.512  0.4866  1.3863  0.7606
17663TIP3    H274481   3.303   3.052   4.373 -1.4451  2.0756 -0.0237
17664TIP3   OH274482   3.500   3.007   4.025  0.3177 -0.6228 -0.2370
17664TIP3    H174483   3.496   2.912   4.035  0.6990 -0.5631  0.4983
17664TIP3    H274484   3.570   3.035   4.084 -1.7142  0.4229  1.8209
17665TIP3   OH274485   3.135   6.130   3.607  0.1346 -0.0756  0.0227
17665TIP3    H174486   3.213   6.075   3.600  0.7459  0.8453 -0.7156
17665TIP3    H274487   3.111   6.125   3.699  2.5214  1.5125  0.8428
17666TIP3   OH274488   0.821   3.093   2.826 -0.0301 -0.4277  0.7012
17666TIP3    H174489   0.831   3.039   2.747  0.0009 -0.9602  1.0609
17666TIP3    H274490   0.805   3.030   2.896  0.2953  0.0139  1.1827
17667TIP3   OH274491   0.903   0.885   2.054  0.2953  0.2145  0.1444
17667TIP3    H174492   0.874   0.949   2.119  3.2382  0.6536  1.1988
17667TIP3    H274493   0.947   0.817   2.106  2.0720  0.1950 -1.2744
17668TIP3   OH274494   3.961   4.654   3.083 -0.3056 -0.2725 -0.1913
17668TIP3    H174495   4.052   4.683   3.090 -0.1649 -0.9304  0.9210
17668TIP3    H274496   3.930   4.693   3.002  1.2636 -0.8330 -1.0992
17669TIP3   OH274497   1.798   4.106  13.146  0.4914 -0.1630  0.3412
17669TIP3    H174498   1.808   4.042  13.076  0.4130 -1.0881  1.1477
17669TIP3    H274499   1.824   4.190  13.107  0.0636 -0.5876 -0.8932
17670TIP3   OH274500   5.457   3.280   0.933 -0.4829  0.6155 -0.1225
17670TIP3    H174501   5.536   3.333   0.942 -0.2672  0.2181  0.4233
17670TIP3    H274502   5.462   3.218   1.006 -1.4516  0.7851  0.0995
17671TIP3   OH274503   1.026   0.513   0.897 -0.2500  0.1307  0.4170
17671TIP3    H174504   1.050   0.466   0.977 -0.5723  0.8066  0.9231
17671TIP3    H274505   1.100   0.572   0.881  0.1862 -0.5740 -0.2568
17672TIP3   OH274506   3.324   2.403   5.080  0.0070 -0.8117 -0.7765
17672TIP3    H174507   3.299   2.480   5.029  2.3275  0.5794  0.0408
17672TIP3    H274508   3.284   2.329   5.034 -1.5178  0.7717 -2.1159
17673TIP3   OH274509   4.491   4.611   3.727  0.4299  0.1708  0.2231
17673TIP3    H174510   4.507   4.610   3.821 -2.6210  0.0166  0.8473
17673TIP3    H274511   4.426   4.680   3.715 -0.3628 -0.8272 -1.5424
17674TIP3   OH274512   4.786   1.693  16.773 -0.3034 -0.4084  0.5329
17674TIP3    H174513   4.853   1.707  16.706 -0.3001  0.1400  0.6479
17674TIP3    H274514   4.814   1.614  16.818 -0.8432 -1.3723 -0.7611
17675TIP3   OH274515   4.192   5.369  13.263 -0.6454  0.4159 -0.2887
17675TIP3    H174516   4.097   5.354  13.258 -0.5786 -0.4316  0.6601
17675TIP3    H274517   4.201   5.459  13.292 -1.1716  0.3839 -0.0192
17676TIP3   OH274518   6.554   2.351   5.455 -0.2738 -0.0225  0.2979
17676TIP3    H174519   6.523   2.431   5.497 -1.3513 -0.4408  0.3371
17676TIP3    H274520   6.588   2.380   5.371  0.1517  0.5826  0.6684
17677TIP3   OH274521   4.697   4.368   4.541 -0.0949 -0.1728  0.2923
17677TIP3    H174522   4.623   4.362   4.480  0.2593 -0.6060 -0.1104
17677TIP3    H274523   4.724   4.460   4.537 -0.8905  0.0888  0.7864
17678TIP3   OH274524   0.649   4.095   4.750 -0.6897  0.2211  0.2580
17678TIP3    H174525   0.567   4.082   4.703 -0.5668 -1.7256  0.5141
17678TIP3    H274526   0.632   4.169   4.808 -2.0084  0.3353 -0.2453
17679TIP3   OH274527   4.184   3.211   0.639  0.2941 -0.5804  0.2625
17679TIP3    H174528   4.108   3.264   0.618  1.8742  1.0471 -1.7809
17679TIP3    H274529   4.184   3.141   0.574  0.4319 -0.6908  0.3803
17680TIP3   OH274530   4.437   2.757  16.465  0.1092  0.0768 -0.1178
17680TIP3    H174531   4.355   2.734  16.420  2.1483 -3.1401 -2.6491
17680TIP3    H274532   4.480   2.818  16.406  0.2630  0.4291  0.3612
17681TIP3   OH274533   4.607   1.252  15.405 -0.6025  0.8126  0.5172
17681TIP3    H174534   4.640   1.244  15.494 -1.8221 -0.7506  0.8738
17681TIP3    H274535   4.669   1.201  15.351 -1.8962 -1.4877  1.0743
17682TIP3   OH274536   2.151   3.165   3.949  0.0169  0.1682  0.3314
17682TIP3    H174537   2.154   3.246   3.999  1.6512 -0.2299  0.9557
17682TIP3    H274538   2.172   3.097   4.013  0.8801 -0.4939 -0.6258
17683TIP3   OH274539   2.233   3.152   3.247 -0.4481 -0.0342 -0.6464
17683TIP3    H174540   2.177   3.151   3.170 -2.9875 -1.3988  1.0976
17683TIP3    H274541   2.220   3.239   3.285 -1.3252 -0.3142 -0.2997
17684TIP3   OH274542   6.679   3.800  11.843  0.2989 -0.1255 -0.2927
17684TIP3    H174543   6.659   3.745  11.919  3.6684 -0.0262  0.8048
17684TIP3    H274544   6.625   3.878  11.856 -3.6839 -2.4173 -1.2799
17685TIP3   OH274545   3.884   4.759   2.097 -0.2770  0.1358 -0.1525
17685TIP3    H174546   3.813   4.695   2.099  0.4594 -0.7012  1.2160
17685TIP3    H274547   3.962   4.709   2.120  0.4506  1.3717  0.1845
17686TIP3   OH274548   6.067   3.462   2.757  0.5434 -0.4540  0.5553
17686TIP3    H174549   6.043   3.509   2.677  0.2082  1.1786  1.5660
17686TIP3    H274550   6.022   3.377   2.750  0.9578 -0.5648 -1.1992
17687TIP3   OH274551   6.604   3.985   0.143 -0.0110  0.1117 -0.1043
17687TIP3    H174552   6.518   3.968   0.105  0.0326  1.8620 -1.0694
17687TIP3    H274553   6.585   4.014   0.233 -0.4507  0.7487 -0.3968
17688TIP3   OH274554   3.219   0.970  10.853  0.5643  0.7960 -0.3993
17688TIP3    H174555   3.192   1.015  10.773  0.2971  0.5168 -0.4706
17688TIP3    H274556   3.138   0.960  10.904  0.7588  1.1062 -0.0231
17689TIP3   OH274557   1.417   4.838  12.665  0.4564 -0.0878  0.5758
17689TIP3    H174558   1.482   4.846  12.734  0.3657  1.9104  0.4743
17689TIP3    H274559   1.456   4.882  12.589 -0.3984 -0.1958  0.0510
17690TIP3   OH274560   6.746   0.127  14.233  0.0520  0.1441  0.3842
17690TIP3    H174561   6.659   0.096  14.258 -0.4648 -0.1290 -1.6170
17690TIP3    H274562   6.792   0.136  14.316 -1.9237  0.4684  1.5150
17691TIP3   OH274563   5.938   5.140  15.715  0.2967 -0.0235 -0.4053
17691TIP3    H174564   5.986   5.194  15.778  0.4643  0.1389 -0.6686
17691TIP3    H274565   5.921   5.058  15.762  1.3142 -0.2972 -0.4920
17692TIP3   OH274566   5.547   2.719  16.809  0.1611  0.0769  0.3748
17692TIP3    H174567   5.585   2.682  16.729  0.3268 -0.1548  0.5623
17692TIP3    H274568   5.616   2.774  16.845 -0.4171  1.3985 -0.4372
17693TIP3   OH274569   6.040   0.870  15.662 -0.3670 -0.1000  0.2535
17693TIP3    H174570   6.064   0.786  15.701 -0.5978  0.0514  0.7433
17693TIP3    H274571   5.950   0.884  15.692 -0.5401  0.0361 -0.3250
17694TIP3   OH274572   3.979   2.595   5.374 -0.4633 -0.1840 -0.3440
17694TIP3    H174573   3.973   2.681   5.415 -1.2230 -0.5946  0.4365
17694TIP3    H274574   4.015   2.538   5.442  0.2762 -0.4384 -0.9305
17695TIP3   OH274575   3.067   3.533  14.120 -0.0182  0.6371  0.1436
17695TIP3    H174576   3.008   3.483  14.176  0.8660  0.0128  0.5416
17695TIP3    H274577   3.025   3.619  14.110 -1.5536 -0.1597 -0.5497
17696TIP3   OH274578   3.070   2.598   2.047 -0.2081 -0.3864  0.4673
17696TIP3    H174579   3.088   2.623   2.138 -0.2075 -1.2272  0.7046
17696TIP3    H274580   3.156   2.576   2.011  0.0582  1.6687 -0.2995
17697TIP3   OH274581   1.161   1.036  11.814 -0.2066 -0.1446  0.2697
17697TIP3    H174582   1.108   1.109  11.782  1.0390  0.2159 -1.0772
17697TIP3    H274583   1.098   0.978  11.858 -1.7398  0.2430 -1.3027
17698TIP3   OH274584   3.251   2.928   5.453 -0.3877 -0.5132 -0.0055
17698TIP3    H174585   3.316   2.869   5.414 -0.5158 -0.9011  0.3600
17698TIP3    H274586   3.301   3.005   5.478 -0.3014 -0.2505 -0.9328
17699TIP3   OH274587   6.188   4.877  11.744  0.4959  0.5697  0.4161
17699TIP3    H174588   6.131   4.821  11.691  1.5824  1.1746 -1.5163
17699TIP3    H274589   6.129   4.939  11.786 -0.3809  0.6216 -0.8247
17700TIP3   OH274590   5.455   2.395   3.813  0.3134  0.1058  0.4172
17700TIP3    H174591   5.411   2.429   3.735  0.3236  1.3519  0.9204
17700TIP3    H274592   5.538   2.443   3.817  0.5991 -0.4055  0.8485
17701TIP3   OH274593   2.896   4.657  14.319 -0.4725  0.1604  0.1658
17701TIP3    H174594   2.864   4.673  14.230 -3.4589 -0.3014  1.0472
17701TIP3    H274595   2.902   4.562  14.326  3.6927  0.1538 -0.6614
17702TIP3   OH274596   2.917   4.195   2.357 -0.0072 -0.1533  0.2166
17702TIP3    H174597   2.948   4.191   2.267  0.7999  0.5241  0.4552
17702TIP3    H274598   2.918   4.288   2.379 -0.9143 -0.2430  0.6831
17703TIP3   OH274599   4.893   0.137  16.217 -0.7112 -0.1347  0.2942
17703TIP3    H174600   4.845   0.054  16.212 -1.2584  0.2189 -0.5225
17703TIP3    H274601   4.829   0.201  16.247 -0.4625  0.1210  0.2865
17704TIP3   OH274602   1.581   6.422   1.411  0.6314 -0.0171  0.1619
17704TIP3    H174603   1.517   6.369   1.364  0.7116 -0.9639  1.0771
17704TIP3    H274604   1.558   6.411   1.503  1.0669  1.0129  0.4107
17705TIP3   OH274605   6.756   3.971   4.197  0.2402 -0.3155 -0.2787
17705TIP3    H174606   6.829   4.007   4.248  1.5254  0.6234 -2.6211
17705TIP3    H274607   6.697   4.045   4.183 -0.9247 -0.9361  1.1014
17706TIP3   OH274608   6.225   3.393  16.743  0.0249  0.0439 -0.2525
17706TIP3    H174609   6.210   3.432  16.657 -2.3402  2.2002  1.0261
17706TIP3    H274610   6.143   3.404  16.789  1.1875 -1.1613  2.2903
17707TIP3   OH274611   1.571   6.030  11.121 -0.3404 -0.0522 -0.1960
17707TIP3    H174612   1.598   6.044  11.031 -0.3401 -1.4822 -0.4374
17707TIP3    H274613   1.633   6.080  11.173 -0.4641  0.9566 -0.9839
17708TIP3   OH274614   3.466   5.442   4.287 -0.0521  0.2878 -0.1381
17708TIP3    H174615   3.510   5.516   4.328 -1.3588  0.1456  1.6152
17708TIP3    H274616   3.375   5.448   4.317  0.1442 -2.9704  1.4677
17709TIP3   OH274617   0.395   1.786   2.664 -0.5501  0.6982 -0.2055
17709TIP3    H174618   0.339   1.736   2.724  1.0193 -0.7644  0.1178
17709TIP3    H274619   0.443   1.846   2.720  0.8245 -0.5814  0.0418
17710TIP3   OH274620   3.528   3.511   0.540 -0.3828  0.5387  0.2271
17710TIP3    H174621   3.537   3.456   0.462  0.6599  1.9054 -0.6630
17710TIP3    H274622   3.474   3.585   0.512 -0.3823  0.8208  0.9356
17711TIP3   OH274623   5.932   5.581   3.744  0.4995  0.3454 -0.3720
17711TIP3    H174624   5.955   5.577   3.837  3.0602 -2.9440 -0.9427
17711TIP3    H274625   5.872   5.508   3.732  1.8639 -0.6426 -1.5848
17712TIP3   OH274626   6.763   4.730  15.570  0.0513  0.0112 -0.2567
17712TIP3    H174627   6.772   4.760  15.660  3.4596 -1.2362 -0.0305
17712TIP3    H274628   6.778   4.808  15.517 -0.1399  0.3944  0.2490
17713TIP3   OH274629   3.801   6.251   4.125  0.2562  1.1797 -0.1962
17713TIP3    H174630   3.718   6.257   4.173 -0.6242  1.9551 -1.7270
17713TIP3    H274631   3.842   6.337   4.139 -0.7961  2.0619 -2.1069
17714TIP3   OH274632   3.082   3.267   0.800  0.4446 -0.2395 -0.1704
17714TIP3    H174633   3.111   3.334   0.862 -1.0179 -0.9394  1.3366
17714TIP3    H274634   3.097   3.184   0.846  0.0407 -0.8168 -1.0615
17715TIP3   OH274635   0.117   1.302   6.686  0.2977 -0.1992  0.5332
17715TIP3    H174636   0.110   1.238   6.615  0.2321  0.0502  0.3127
17715TIP3    H274637   0.036   1.292   6.736  0.5012 -0.6202  0.7808
17716TIP3   OH274638   3.561   4.747   4.137  0.3888 -0.2788  0.0586
17716TIP3    H174639   3.589   4.764   4.227  0.4522  2.1137 -0.3458
17716TIP3    H274640   3.620   4.802   4.084 -2.2338  1.5955 -1.1156
17717TIP3   OH274641   2.753   4.977   4.316  0.4322 -0.1449  0.2585
17717TIP3    H174642   2.751   4.992   4.221  0.7529 -0.6205  0.1735
17717TIP3    H274643   2.676   4.923   4.333 -0.3472  1.0028  0.4658
17718TIP3   OH274644   4.876   5.048  11.420 -0.1555  0.3029  0.2392
17718TIP3    H174645   4.943   5.011  11.477 -1.4998  0.9118  2.3147
17718TIP3    H274646   4.821   5.100  11.478 -0.2201  2.9694 -1.9898
17719TIP3   OH274647   2.282   6.584  14.225  0.0018  0.1824  0.3060
17719TIP3    H174648   2.240   6.606  14.308 -0.1170 -0.1299  0.3320
17719TIP3    H274649   2.306   6.492  14.235  1.9237  0.6908  0.8115
17720TIP3   OH274650   0.966   4.914  16.776 -0.1891  0.0654 -0.0001
17720TIP3    H174651   1.025   4.929  16.849  0.1016 -0.2939 -0.1582
17720TIP3    H274652   0.980   4.988  16.717 -1.2962  1.0041  0.8642
17721TIP3   OH274653   2.941   1.415   0.555 -0.5761 -0.7989  0.0878
17721TIP3    H174654   2.866   1.356   0.551 -0.2326 -1.1979 -0.8774
17721TIP3    H274655   3.014   1.359   0.582 -0.2692 -0.8224 -0.7394
17722TIP3   OH274656   1.876   3.420   4.155 -0.2509 -0.0470 -0.2213
17722TIP3    H174657   1.901   3.448   4.067 -0.3011 -0.2098 -0.2865
17722TIP3    H274658   1.800   3.475   4.177  0.4396  0.7851  0.1614
17723TIP3   OH274659   4.424   3.865   3.377  0.0684  0.3021  0.0686
17723TIP3    H174660   4.349   3.839   3.430  1.1899 -0.1237  1.4926
17723TIP3    H274661   4.496   3.811   3.408  1.0589  0.9410 -1.0322
17724TIP3   OH274662   1.683   2.038  16.420 -0.1613  0.1646 -0.5463
17724TIP3    H174663   1.730   1.956  16.405 -0.0178 -0.1451  1.3954
17724TIP3    H274664   1.595   2.010  16.445 -0.7688  0.6931 -1.9837
17725TIP3   OH274665   4.952   6.421  16.851  0.4187 -0.0895  0.1742
17725TIP3    H174666   4.999   6.355  16.800  0.7830  0.3244 -0.0334
17725TIP3    H274667   5.004   6.429  16.931 -1.2138 -2.1842  1.5619
17726TIP3   OH274668   4.835   0.320  11.652  0.1976  0.4885  0.3524
17726TIP3    H174669   4.922   0.289  11.676  0.0570 -0.9986 -0.9497
17726TIP3    H274670   4.788   0.327  11.736  0.9735 -0.5390  0.8893
17727TIP3   OH274671   5.910   6.455   1.500  0.0346  0.5088  0.6538
17727TIP3    H174672   5.950   6.428   1.417 -2.6283  1.3712 -1.0793
17727TIP3    H274673   5.900   6.373   1.550  0.5589 -0.2444 -0.4377
17728TIP3   OH274674   4.984   3.904   4.634  0.1152 -0.3522 -0.1329
17728TIP3    H174675   4.957   3.975   4.692 -0.0692 -0.8447  0.3960
17728TIP3    H274676   4.990   3.945   4.548 -1.4616 -0.0093 -0.1219
17729TIP3   OH274677   5.554   1.728  15.176 -0.2128 -0.3397  0.6105
17729TIP3    H174678   5.638   1.748  15.218  0.1846 -1.1977  0.2426
17729TIP3    H274679   5.563   1.638  15.145  0.0733  0.6390 -2.5631
17730TIP3   OH274680   0.210   0.565   5.109 -0.2437  0.2274 -0.3924
17730TIP3    H174681   0.129   0.616   5.105 -0.6363 -0.3902 -0.4102
17730TIP3    H274682   0.186   0.479   5.075 -0.7035 -1.3944  3.4500
17731TIP3   OH274683   3.213   3.892   4.409  0.4604 -0.4250  0.1852
17731TIP3    H174684   3.217   3.902   4.313  0.4915 -0.8379  0.1428
17731TIP3    H274685   3.183   3.802   4.422 -0.3726 -0.1002  0.5618
17732TIP3   OH274686   2.131   6.187  15.415 -0.4782  0.6758 -0.4513
17732TIP3    H174687   2.082   6.195  15.333  1.4194  2.0659 -1.5526
17732TIP3    H274688   2.083   6.241  15.477 -0.4855  1.8501 -1.4436
17733TIP3   OH274689   5.694   4.948  15.798 -0.3974  0.5100  0.4627
17733TIP3    H174690   5.711   4.985  15.884 -1.0365  0.8855  0.4302
17733TIP3    H274691   5.758   4.878  15.789 -0.6679  0.1192  1.4604
17734TIP3   OH274692   2.484   3.476  11.654  0.3003 -0.4593 -0.0275
17734TIP3    H174693   2.535   3.400  11.627  0.3828 -0.0729 -0.9960
17734TIP3    H274694   2.479   3.531  11.575  1.4932  1.2624  1.0237
17735TIP3   OH274695   0.964   5.706   3.956  0.2980  0.1590  0.3288
17735TIP3    H174696   1.043   5.757   3.940  0.4734 -0.1639  0.1565
17735TIP3    H274697   0.977   5.668   4.043  0.7845 -0.7133 -0.1169
17736TIP3   OH274698   4.630   4.637  10.965 -1.4633 -0.0622 -0.4194
17736TIP3    H174699   4.575   4.633  11.044 -2.1932  2.1631 -0.7367
17736TIP3    H274700   4.572   4.612  10.894 -1.9122  1.5172 -0.6551
17737TIP3   OH274701   6.337   3.409   4.006  0.0722  0.0574 -0.6536
17737TIP3    H174702   6.285   3.464   4.065  1.0027 -0.1178  0.3542
17737TIP3    H274703   6.273   3.350   3.965 -0.3536 -1.3647  1.8906
17738TIP3   OH274704   1.770   4.249   1.867  0.2426 -0.0037 -0.0123
17738TIP3    H174705   1.745   4.319   1.927 -2.2102 -1.0557  0.3092
17738TIP3    H274706   1.722   4.268   1.786  1.7332  0.1577 -0.8997
17739TIP3   OH274707   5.179   1.073  15.868 -0.0795  0.0980 -0.8166
17739TIP3    H174708   5.261   1.053  15.913 -0.9402 -2.5467 -0.2241
17739TIP3    H274709   5.157   1.162  15.896  0.3169 -0.7634  2.7363
17740TIP3   OH274710   5.049   4.966   3.630  0.3053 -0.0670 -0.0789
17740TIP3    H174711   5.091   4.884   3.654  0.1056 -0.2999 -0.5157
17740TIP3    H274712   5.105   5.004   3.563  0.4284  0.1803  0.1661
17741TIP3   OH274713   1.446   5.669   2.294 -0.1894  0.2692 -0.0218
17741TIP3    H174714   1.526   5.657   2.244 -1.0184 -1.1014 -1.0887
17741TIP3    H274715   1.378   5.686   2.229 -1.2691 -1.4367  0.5722
17742TIP3   OH274716   6.771   4.721   5.118  0.1425  0.3342 -0.1469
17742TIP3    H174717   6.847   4.663   5.123  0.0526  0.0499 -1.6768
17742TIP3    H274718   6.712   4.678   5.057 -1.2033  0.6323  0.9099
17743TIP3   OH274719   0.693   0.286  13.649 -0.3292  0.5050 -0.5710
17743TIP3    H174720   0.687   0.312  13.557 -0.1373  0.8333 -0.4949
17743TIP3    H274721   0.720   0.367  13.694  2.3693 -0.2930 -0.5890
17744TIP3   OH274722   4.738   1.130  15.058  0.1946 -0.6126  0.2686
17744TIP3    H174723   4.827   1.151  15.028 -0.4090  0.5177 -0.8693
17744TIP3    H274724   4.746   1.121  15.153  0.8692  3.5959  0.8131
17745TIP3   OH274725   0.789   4.625   6.008  0.2804  0.3566  0.4107
17745TIP3    H174726   0.777   4.673   6.090 -0.2584  1.6082 -0.3559
17745TIP3    H274727   0.778   4.692   5.940  2.6048 -0.2497 -0.6611
17746TIP3   OH274728   1.741   0.678  15.932  0.2406  0.1617 -0.0333
17746TIP3    H174729   1.815   0.658  15.990  1.1377  1.4113 -0.6883
17746TIP3    H274730   1.765   0.761  15.891 -1.1553  0.1609 -0.9060
17747TIP3   OH274731   4.289   3.610  11.394  0.3345 -0.2821 -0.3054
17747TIP3    H174732   4.335   3.530  11.419 -0.3503 -0.9996 -1.2471
17747TIP3    H274733   4.196   3.588  11.403  0.1483  0.9071  0.8691
17748TIP3   OH274734   2.811   4.492   5.199 -0.0585  0.0682  0.3418
17748TIP3    H174735   2.802   4.399   5.178 -1.5301  0.1598  0.4757
17748TIP3    H274736   2.822   4.493   5.294 -2.8548  0.1327  0.7391
17749TIP3   OH274737   4.689   5.509   4.361  0.6617  0.0798 -0.2983
17749TIP3    H174738   4.639   5.558   4.297  0.0116 -1.1147 -0.7265
17749TIP3    H274739   4.696   5.420   4.325  2.0381 -0.0986  0.3225
17750TIP3   OH274740   4.116   2.781  13.423  0.1689 -0.0913  0.5430
17750TIP3    H174741   4.134   2.691  13.450 -0.0581 -0.1095  0.6385
17750TIP3    H274742   4.132   2.834  13.501 -0.8118 -0.1818  0.8160
17751TIP3   OH274743   3.957   6.463  15.334 -0.4752 -0.8117  0.2086
17751TIP3    H174744   3.862   6.465  15.349 -0.8761  0.4307 -1.9628
17751TIP3    H274745   3.969   6.398  15.265 -0.0988  0.6027 -1.1281
17752TIP3   OH274746   0.852   2.565  15.014  0.0578 -0.0080 -0.4683
17752TIP3    H174747   0.857   2.566  15.110  2.3276  0.2197 -0.5391
17752TIP3    H274748   0.871   2.474  14.990 -0.7305 -0.1141 -0.7119
17753TIP3   OH274749   1.687   1.173   1.110  0.0445  0.0182 -0.2933
17753TIP3    H174750   1.778   1.146   1.123  0.0619  0.3345  0.2732
17753TIP3    H274751   1.691   1.238   1.040  0.0789 -0.9652 -1.2226
17754TIP3   OH274752   3.986   5.970  11.435  0.2488 -0.2244  0.1214
17754TIP3    H174753   3.991   5.904  11.505 -0.8117  0.9116  1.3201
17754TIP3    H274754   3.924   5.932  11.372  0.0540 -0.6092  0.5343
17755TIP3   OH274755   6.744   6.224   2.820  0.7282 -0.4367  0.3597
17755TIP3    H174756   6.804   6.234   2.746 -0.2701  0.8987 -0.3156
17755TIP3    H274757   6.729   6.129   2.826  2.7269 -0.8026  0.4578
17756TIP3   OH274758   3.088   5.904   1.301  0.3464  0.5244  0.1651
17756TIP3    H174759   3.065   5.977   1.243  0.2453  0.3113 -0.0615
17756TIP3    H274760   3.022   5.837   1.283  1.2014 -0.1422 -0.5837
17757TIP3   OH274761   3.853   1.278   5.942  0.3106 -0.8899 -0.0374
17757TIP3    H174762   3.927   1.229   5.904  0.8098 -2.3509  2.5896
17757TIP3    H274763   3.894   1.349   5.990 -0.0346 -1.1861  0.7040
17758TIP3   OH274764   3.608   3.567   4.041 -0.0767  1.2601  0.3915
17758TIP3    H174765   3.571   3.575   4.129 -0.0952  1.0986  0.3996
17758TIP3    H274766   3.693   3.525   4.055 -0.8183 -0.3891  0.1844
17759TIP3   OH274767   0.045   1.117  14.305 -0.2011  0.1042  0.9135
17759TIP3    H174768   0.032   1.183  14.373  1.4017  0.6698  0.7027
17759TIP3    H274769   0.129   1.138  14.266 -1.8935  1.0149 -2.6560
17760TIP3   OH274770   0.747   6.760  14.281 -0.6048  0.6024  0.0467
17760TIP3    H174771   0.782   6.805  14.358 -1.1286  0.3981  0.4125
17760TIP3    H274772   0.816   6.697  14.257 -0.3720  0.7744  0.2523
17761TIP3   OH274773   3.271   1.642   4.559 -0.2196  0.5591  0.1731
17761TIP3    H174774   3.292   1.564   4.508 -0.1655 -1.2111  2.7204
17761TIP3    H274775   3.176   1.650   4.552 -0.4624 -0.8730  1.3313
17762TIP3   OH274776   5.275   1.600  12.861 -0.1389 -0.7214 -0.1386
17762TIP3    H174777   5.306   1.630  12.776  0.4538  1.6609  0.8152
17762TIP3    H274778   5.180   1.615  12.858 -0.3685 -2.1897 -0.9107
17763TIP3   OH274779   5.068   2.310   6.329  0.3327  0.0486  0.7874
17763TIP3    H174780   5.066   2.320   6.234 -0.6903 -0.9259  0.6925
17763TIP3    H274781   5.090   2.397   6.362  2.2621  0.0673 -0.3883
17764TIP3   OH274782   2.747   1.441  14.841 -0.4008  0.2180 -0.3466
17764TIP3    H174783   2.842   1.452  14.841 -0.4314  0.6007 -1.7415
17764TIP3    H274784   2.721   1.456  14.751 -1.7505 -0.3108 -0.0671
17765TIP3   OH274785   1.515   0.086   2.397 -0.4470 -0.6228 -0.1477
17765TIP3    H174786   1.496   0.127   2.481 -0.4836  0.4625 -0.6562
17765TIP3    H274787   1.468   0.003   2.399 -1.8470  0.1405  0.2515
17766TIP3   OH274788   4.630   3.772  14.383  0.0445  0.0661 -0.1559
17766TIP3    H174789   4.663   3.691  14.423  2.5686 -0.2912 -2.7183
17766TIP3    H274790   4.534   3.762  14.386  0.2511 -3.5985 -1.4108
17767TIP3   OH274791   4.304   1.813   5.389  0.5989 -0.0050 -0.6616
17767TIP3    H174792   4.259   1.836   5.471 -0.0514  1.0538 -1.3057
17767TIP3    H274793   4.389   1.779   5.418 -0.2968 -1.3686  0.5431
17768TIP3   OH274794   2.937   5.618   3.226  0.0229 -0.3279  0.2758
17768TIP3    H174795   2.854   5.656   3.197  0.7238  0.1152 -1.2362
17768TIP3    H274796   2.991   5.616   3.147  0.9121 -2.0928  0.8927
17769TIP3   OH274797   5.521   3.303   2.968  0.3811 -0.6470 -0.6435
17769TIP3    H174798   5.433   3.314   3.005 -0.5761 -3.5403 -1.7637
17769TIP3    H274799   5.576   3.279   3.043 -0.2232 -0.8134 -0.2490
17770TIP3   OH274800   4.154   3.960   4.715 -0.0457 -0.0474  0.1619
17770TIP3    H174801   4.163   3.878   4.764 -1.2846  0.1379  0.7600
17770TIP3    H274802   4.059   3.973   4.709 -0.0038 -0.3949 -2.8892
17771TIP3   OH274803   3.027   0.850   5.568  0.1030  0.1430  0.1904
17771TIP3    H174804   3.071   0.910   5.628 -1.8386  1.2405  0.6075
17771TIP3    H274805   3.022   0.898   5.485 -2.7287  1.3139  0.8969
17772TIP3   OH274806   3.982   1.942   4.484 -0.3681  0.4116 -0.2626
17772TIP3    H174807   3.922   1.920   4.555  0.3300 -0.4867  0.0766
17772TIP3    H274808   4.025   1.859   4.463 -1.5792  0.2993 -2.7406
17773TIP3   OH274809   6.268   3.316   5.528  0.1262 -0.2844  0.1105
17773TIP3    H174810   6.360   3.327   5.503 -0.2191  1.2620 -0.6132
17773TIP3    H274811   6.272   3.269   5.612  1.5521 -0.5611 -0.0761
17774TIP3   OH274812   2.721   6.649   4.365 -0.0248  0.6564  0.3570
17774TIP3    H174813   2.725   6.737   4.402 -0.1050 -0.2571  2.6605
17774TIP3    H274814   2.628   6.633   4.350 -0.1883  0.3153  1.6511
17775TIP3   OH274815   2.592   1.789   1.529  0.2089  0.1860  0.7991
17775TIP3    H174816   2.584   1.883   1.548 -3.3093  0.6034 -1.8343
17775TIP3    H274817   2.673   1.782   1.479  0.9314  1.6443  1.6818
17776TIP3   OH274818   3.283   5.277   3.162  0.2993 -0.0602  0.1420
17776TIP3    H174819   3.210   5.314   3.211 -0.2720  0.5358 -1.1027
17776TIP3    H274820   3.305   5.345   3.098  0.1975 -1.2873 -1.2335
17777TIP3   OH274821   5.753   0.995   4.575  0.7022 -0.3691 -0.6672
17777TIP3    H174822   5.824   0.941   4.608 -0.5691 -1.1559  0.9195
17777TIP3    H274823   5.687   0.994   4.644 -0.6784  0.6939 -1.8868
17778TIP3   OH274824   2.406   0.760  11.190 -0.1196  0.4234 -0.3241
17778TIP3    H174825   2.454   0.710  11.256  0.5981  0.7575 -0.5896
17778TIP3    H274826   2.349   0.695  11.148 -1.8254  0.4828  1.7021
17779TIP3   OH274827   6.410   4.867  12.162  0.2311 -0.1037  0.5100
17779TIP3    H174828   6.430   4.908  12.077 -0.3029 -2.5946 -0.9291
17779TIP3    H274829   6.403   4.940  12.223 -2.3148  2.1166 -2.1539
17780TIP3   OH274830   5.075   2.810  14.656  0.1110  0.1364 -0.1484
17780TIP3    H174831   5.051   2.884  14.601  0.2120 -0.2307 -0.6976
17780TIP3    H274832   4.994   2.759  14.664  0.2579 -0.1636 -0.5220
17781TIP3   OH274833   4.877   3.110   2.725 -0.0153  0.5154  0.4994
17781TIP3    H174834   4.871   3.098   2.820 -0.1623  0.0901  0.4394
17781TIP3    H274835   4.834   3.193   2.708 -0.2977  0.4254  0.7676
17782TIP3   OH274836   6.582   0.969  12.324  0.2415 -0.1150 -0.1305
17782TIP3    H174837   6.549   0.960  12.234 -2.5280 -2.2775  0.9786
17782TIP3    H274838   6.506   0.993  12.376  0.8729 -2.6620  2.1963
17783TIP3   OH274839   0.067   2.667   6.259  0.2740 -0.3246 -0.4628
17783TIP3    H174840   0.048   2.717   6.338 -0.1886 -2.0946  0.5982
17783TIP3    H274841  -0.018   2.635   6.229  0.3814  0.6978 -1.9839
17784TIP3   OH274842   1.442   0.239  15.843 -0.6092 -0.1699  0.4952
17784TIP3    H174843   1.488   0.321  15.861  0.7228 -0.8994  0.5824
17784TIP3    H274844   1.390   0.257  15.765 -0.5725  0.8410  0.6926
17785TIP3   OH274845   0.974   4.825  11.113  0.3750 -0.1740  0.6883
17785TIP3    H174846   0.886   4.862  11.114  0.2703 -0.4039  0.2974
17785TIP3    H274847   0.975   4.762  11.185  0.1071 -0.4295  0.4683
17786TIP3   OH274848   2.590   1.047  16.169 -0.4719 -0.4459 -0.0090
17786TIP3    H174849   2.532   1.121  16.189 -0.7096 -0.8793  0.9628
17786TIP3    H274850   2.562   1.018  16.082  0.8060  1.6992 -1.2250
17787TIP3   OH274851   3.885   4.737  14.343 -0.4824 -0.0089  0.0126
17787TIP3    H174852   3.851   4.676  14.278  0.5546  0.3849 -0.9367
17787TIP3    H274853   3.976   4.751  14.317 -0.6483  1.8252  0.2876
17788TIP3   OH274854   1.499   3.143  14.134 -0.0829 -0.6116  0.0611
17788TIP3    H174855   1.534   3.207  14.197  0.4421  0.4860 -1.3072
17788TIP3    H274856   1.405   3.144  14.151 -0.0364  0.2020  0.3639
17789TIP3   OH274857   2.816   2.811   2.492  0.2382 -0.1439  0.2485
17789TIP3    H174858   2.736   2.762   2.470 -0.2359  0.9116 -0.4625
17789TIP3    H274859   2.821   2.805   2.587 -0.0726 -1.1598  0.2166
17790TIP3   OH274860   2.065   5.932  10.298 -0.4532 -0.0078  0.2430
17790TIP3    H174861   2.126   5.897  10.233 -0.3650  0.5915 -0.0014
17790TIP3    H274862   2.023   5.855  10.336  0.9365 -0.4903  0.8862
17791TIP3   OH274863   6.211   0.436   4.764 -0.5187 -0.0011 -0.3493
17791TIP3    H174864   6.148   0.414   4.695  0.0363 -0.7089 -0.6378
17791TIP3    H274865   6.290   0.460   4.718 -0.7961  1.6775 -0.0056
17792TIP3   OH274866   5.199   0.603  15.567  0.6016 -0.5908 -0.4263
17792TIP3    H174867   5.116   0.588  15.612  0.3978 -0.3984 -0.7336
17792TIP3    H274868   5.221   0.519  15.528  0.8921 -0.8200  0.2081
17793TIP3   OH274869   3.441   1.273  13.227  0.0123 -0.1064 -0.2474
17793TIP3    H174870   3.459   1.363  13.253  0.3423 -0.6683  1.6665
17793TIP3    H274871   3.436   1.275  13.132  0.2448  1.8817 -0.2482
17794TIP3   OH274872   3.363   6.644  13.271  0.0026 -0.8983 -0.4843
17794TIP3    H174873   3.363   6.739  13.282  0.4032 -0.8454 -0.9007
17794TIP3    H274874   3.367   6.610  13.360 -0.2256 -0.5263 -0.3272
17795TIP3   OH274875   2.212   1.943   0.788 -0.2594 -0.0242  0.1193
17795TIP3    H174876   2.224   2.029   0.748  0.1405  0.4662  1.2437
17795TIP3    H274877   2.117   1.933   0.797 -0.2774  0.7966  0.9882
17796TIP3   OH274878   3.121   4.071   3.552  0.3582 -0.1772  0.4394
17796TIP3    H174879   3.212   4.047   3.569  1.4065  0.5979 -3.1824
17796TIP3    H274880   3.084   3.997   3.503 -0.4316  0.1970  0.4477
17797TIP3   OH274881   5.487   3.862   5.963 -0.2812 -0.0371 -0.1794
17797TIP3    H174882   5.426   3.881   6.034 -1.2909  0.4324 -1.1417
17797TIP3    H274883   5.563   3.917   5.980 -0.5595  0.1458  0.4780
17798TIP3   OH274884   1.145   5.413   1.050 -0.0766  0.8577  0.1531
17798TIP3    H174885   1.131   5.320   1.030 -0.3704  0.4418  2.0469
17798TIP3    H274886   1.077   5.459   1.002 -0.4000  0.0070 -0.2134
17799TIP3   OH274887   2.880   3.039   1.728  0.0646  0.5054  0.7738
17799TIP3    H174888   2.815   3.058   1.795 -0.8889 -0.4808  0.1571
17799TIP3    H274889   2.963   3.038   1.775 -0.5895 -0.2142  1.9586
17800TIP3   OH274890   5.427   5.392   4.081 -0.3008 -0.2955  0.7960
17800TIP3    H174891   5.340   5.425   4.105  0.4899  0.5610  2.6337
17800TIP3    H274892   5.487   5.463   4.102  0.8693 -0.8319 -0.5430
17801TIP3   OH274893   1.163   1.632  16.620 -0.5252 -0.0948 -0.1075
17801TIP3    H174894   1.099   1.689  16.577  0.2625  0.0822 -1.0636
17801TIP3    H274895   1.204   1.688  16.686  0.7063  0.6742 -1.4758
17802TIP3   OH274896   2.110   2.796  15.869 -0.0379  0.3495 -0.3458
17802TIP3    H174897   2.035   2.850  15.895  0.2076  0.8483 -0.6538
17802TIP3    H274898   2.137   2.832  15.784 -2.1994 -2.6253 -2.5126
17803TIP3   OH274899   0.027   5.595   3.910 -0.2966 -0.6716  0.0609
17803TIP3    H174900   0.053   5.600   3.818  3.1419 -0.6039  0.8880
17803TIP3    H274901   0.012   5.686   3.936 -0.0281 -0.5736 -0.1321
17804TIP3   OH274902   3.779   4.893  16.632 -0.0485  0.1964  0.1592
17804TIP3    H174903   3.816   4.924  16.715 -0.1275  1.3358 -0.2128
17804TIP3    H274904   3.685   4.884  16.649 -0.1279  0.8494  0.0736
17805TIP3   OH274905   0.360   0.066  15.133 -0.2845  0.3048  0.4741
17805TIP3    H174906   0.360   0.126  15.058  2.9532  1.7663  1.4517
17805TIP3    H274907   0.379  -0.020  15.096  1.8253  1.0946 -0.4342
17806TIP3   OH274908   6.172   2.661  11.029 -0.2754 -0.5104 -0.0417
17806TIP3    H174909   6.228   2.589  11.060 -1.5342 -0.6969  2.0047
17806TIP3    H274910   6.170   2.651  10.934  0.6752 -2.3704  0.0910
17807TIP3   OH274911   3.158   1.265   0.593 -0.1084 -0.0472 -0.4077
17807TIP3    H174912   3.203   1.205   0.534  1.7637  0.7341  0.1594
17807TIP3    H274913   3.151   1.217   0.676  0.5242  0.1541 -0.2331
17808TIP3   OH274914   2.245   5.321   0.946 -0.8300  0.6295  0.5102
17808TIP3    H174915   2.336   5.348   0.930 -0.0950 -0.9154  1.7499
17808TIP3    H274916   2.253   5.243   1.001 -2.9518  1.2079  1.7483
17809TIP3   OH274917   1.729   4.830  15.065  0.1136 -0.5940  0.5201
17809TIP3    H174918   1.792   4.837  14.994  0.2594 -0.0486  0.6958
17809TIP3    H274919   1.763   4.759  15.121 -0.7544 -2.0151 -0.6801
17810TIP3   OH274920   2.309   1.668   4.779  0.2262 -0.0838 -0.7122
17810TIP3    H174921   2.390   1.696   4.821 -0.8165  1.2450  0.5255
17810TIP3    H274922   2.289   1.737   4.716 -0.0913 -0.2536 -0.8005
17811TIP3   OH274923   5.911   2.180  14.401 -0.4223  0.2074 -0.2869
17811TIP3    H174924   5.857   2.217  14.331 -0.3599  1.2686  0.2125
17811TIP3    H274925   5.996   2.164  14.360 -0.5692  0.2533 -0.6089
17812TIP3   OH274926   4.239   0.993  15.388  0.5344 -0.0871  0.0363
17812TIP3    H174927   4.272   1.071  15.342 -1.4525  1.0285  0.3676
17812TIP3    H274928   4.211   1.026  15.474 -0.0785 -1.2147  0.2927
17813TIP3   OH274929   6.678   1.879   0.138  0.2863 -0.0956 -0.0953
17813TIP3    H174930   6.731   1.956   0.115  1.0276 -1.3360 -3.1324
17813TIP3    H274931   6.690   1.820   0.063 -1.1691 -2.6914  1.5961
17814TIP3   OH274932   5.682   0.549   3.198 -0.4126  0.0062  0.0671
17814TIP3    H174933   5.652   0.588   3.116  0.1340 -1.1232 -0.6960
17814TIP3    H274934   5.614   0.571   3.261 -3.3469 -2.9878 -1.7139
17815TIP3   OH274935   5.309   4.434   4.342  0.3090 -0.0772  0.5925
17815TIP3    H174936   5.365   4.512   4.342  0.1124  0.0681  1.1920
17815TIP3    H274937   5.232   4.461   4.291 -0.6408  0.7808  2.4050
17816TIP3   OH274938   3.617   3.672   1.631 -0.6482 -0.1589  0.2658
17816TIP3    H174939   3.637   3.748   1.576  2.5550 -1.4217 -0.5772
17816TIP3    H274940   3.679   3.679   1.704 -0.2042 -1.9286  0.1140
17817TIP3   OH274941   0.635   6.410  15.490 -0.1470  0.6696  1.0337
17817TIP3    H174942   0.573   6.378  15.424  0.9756 -0.9684  0.7238
17817TIP3    H274943   0.720   6.408  15.447  0.2044  2.6527  1.5416
17818TIP3   OH274944   3.472   4.738  16.390  0.5363  0.1102 -0.0926
17818TIP3    H174945   3.537   4.808  16.386  0.1859  0.5063  0.8008
17818TIP3    H274946   3.471   4.701  16.302 -0.0024  1.9000 -0.8957
17819TIP3   OH274947   3.804   3.708  10.488  0.3248  0.3667 -0.5606
17819TIP3    H174948   3.740   3.671  10.427 -2.9786 -0.3365  2.8688
17819TIP3    H274949   3.866   3.637  10.504 -0.0454 -0.1708 -1.4550
17820TIP3   OH274950   5.315   1.509   1.718  0.4364  0.3512 -0.7813
17820TIP3    H174951   5.401   1.523   1.757 -0.1502 -0.9469  1.1097
17820TIP3    H274952   5.314   1.418   1.691 -0.1698  0.4975 -1.2965
17821TIP3   OH274953   1.737   1.743   4.302 -0.4394  0.4228 -0.4227
17821TIP3    H174954   1.650   1.734   4.343 -0.5604  1.3012 -0.4714
17821TIP3    H274955   1.728   1.818   4.244 -0.0769 -0.4071 -1.5886
17822TIP3   OH274956   5.853   2.375  10.717 -0.0474 -0.3792  0.2574
17822TIP3    H174957   5.885   2.323  10.790 -0.7994 -0.4737  0.5170
17822TIP3    H274958   5.818   2.311  10.655  0.3425 -0.2802 -0.0776
17823TIP3   OH274959   4.534   1.416   5.058  0.0470 -0.3861 -0.0809
17823TIP3    H174960   4.601   1.381   4.999  0.0357  0.4302 -0.5832
17823TIP3    H274961   4.574   1.493   5.097 -0.2812 -0.4022  0.2910
17824TIP3   OH274962   1.540   3.175  13.342  0.0421 -0.0918 -0.3185
17824TIP3    H174963   1.553   3.096  13.289  1.8290  0.5812 -0.9807
17824TIP3    H274964   1.584   3.157  13.425  0.4264  0.1687 -0.4586
17825TIP3   OH274965   2.410   5.472  16.463 -0.0994  0.7445 -0.1311
17825TIP3    H174966   2.444   5.430  16.542 -0.6484  0.4722 -0.0361
17825TIP3    H274967   2.470   5.546  16.447  1.2237 -0.3792 -0.6242
17826TIP3   OH274968   3.462   4.038  14.051 -0.1662 -0.1099 -0.1499
17826TIP3    H174969   3.539   4.063  14.000  0.0717  0.0188  0.2618
17826TIP3    H274970   3.414   4.120  14.063  1.4182  0.5412  2.5443
17827TIP3   OH274971   4.994   3.023  12.949  0.5618 -0.3625 -0.3001
17827TIP3    H174972   4.959   2.995  12.864  0.2968 -0.5536 -0.1302
17827TIP3    H274973   4.947   3.104  12.968  0.6002 -0.3347 -0.3243
17828TIP3   OH274974   6.494   4.496   4.644  0.1810  0.2804 -0.0361
17828TIP3    H174975   6.451   4.546   4.714  1.3853 -0.4318  1.2714
17828TIP3    H274976   6.542   4.427   4.690 -0.6552 -1.5179 -1.7180
17829TIP3   OH274977   4.662   1.018   4.425  0.3813  0.2819  0.4061
17829TIP3    H174978   4.670   1.017   4.520  0.9760 -0.4174  0.3591
17829TIP3    H274979   4.753   1.017   4.393  0.1938  0.7999 -0.1692
17830TIP3   OH274980   2.413   0.576  12.681  0.2130 -0.1302 -0.2434
17830TIP3    H174981   2.472   0.646  12.709  0.0404  0.2318 -0.7564
17830TIP3    H274982   2.330   0.621  12.663  0.1606 -0.4352 -0.7869
17831TIP3   OH274983   5.940   1.618  14.920 -0.1731 -0.6356 -0.5068
17831TIP3    H174984   5.964   1.705  14.952 -0.2366 -0.9504  0.4407
17831TIP3    H274985   5.869   1.634  14.858 -2.9608 -0.2049  2.5189
17832TIP3   OH274986   3.137   5.681  11.148 -0.1293  0.0683 -0.0677
17832TIP3    H174987   3.118   5.602  11.197  1.1668 -1.1940 -1.4956
17832TIP3    H274988   3.074   5.681  11.076 -0.6381  0.7755  0.3635
17833TIP3   OH274989   0.004   4.332  16.725  0.2882 -0.7141 -0.6155
17833TIP3    H174990   0.004   4.427  16.714 -1.5400 -0.4711  0.9923
17833TIP3    H274991  -0.019   4.298  16.638  0.6923  0.3133 -1.1469
17834TIP3   OH274992   4.026   3.584   1.858 -0.5258 -0.1772  0.8084
17834TIP3    H174993   4.032   3.490   1.837  0.6295  0.3018 -1.3151
17834TIP3    H274994   4.098   3.599   1.919 -1.0175 -0.7453  1.5474
17835TIP3   OH274995   5.143   0.009  13.612  0.0521  0.0097  0.2812
17835TIP3    H174996   5.089   0.076  13.570 -0.4122  0.5474  1.6531
17835TIP3    H274997   5.173  -0.047  13.541 -0.9562  0.6814 -0.7032
17836TIP3   OH274998   6.081   3.271   3.531  0.0897 -0.1304 -0.3857
17836TIP3    H174999   6.054   3.309   3.615  0.6100  0.2273 -0.3800
17836TIP3    H275000   6.095   3.178   3.551 -0.8868 -0.2809 -0.3357
17837TIP3   OH275001   0.987   1.478  12.532 -0.4929 -0.1168  0.4049
17837TIP3    H175002   1.054   1.474  12.463 -1.9850  2.2483 -1.3667
17837TIP3    H275003   1.033   1.516  12.607  0.3693  0.8254 -0.5479
17838TIP3   OH275004   1.825   2.745   1.047  0.4088  0.2708  0.2428
17838TIP3    H175005   1.785   2.659   1.060 -0.1947  0.3171 -1.1131
17838TIP3    H275006   1.771   2.806   1.098  0.9416 -0.1562  1.3494
17839TIP3   OH275007   2.748   4.808  11.138  0.1897 -0.0754 -0.3212
17839TIP3    H175008   2.699   4.801  11.056 -0.5400  1.2171 -0.0341
17839TIP3    H275009   2.693   4.865  11.193  1.4698  0.4684  0.4289
17840TIP3   OH275010   0.731   1.586   1.308 -0.4752 -0.2750  0.3390
17840TIP3    H175011   0.715   1.542   1.225 -0.9021  3.4749 -1.8202
17840TIP3    H275012   0.818   1.626   1.297 -0.0795 -0.5240  2.1668
17841TIP3   OH275013   6.610   6.349  13.318  0.4195 -0.0802  0.0745
17841TIP3    H175014   6.600   6.423  13.258  2.7589 -0.1035 -0.4610
17841TIP3    H275015   6.604   6.388  13.405 -1.1540  0.2533 -0.1610
17842TIP3   OH275016   6.315   5.222   0.664  0.3668  0.2465  0.2486
17842TIP3    H175017   6.238   5.170   0.688  0.4673  0.0610  0.1747
17842TIP3    H275018   6.371   5.217   0.741 -0.2574  1.4651  0.8026
17843TIP3   OH275019   6.440   5.279  12.476 -0.2907 -0.2955 -0.6016
17843TIP3    H175020   6.420   5.268  12.383 -0.1159 -0.1085 -0.6597
17843TIP3    H275021   6.355   5.301  12.515 -0.6645 -1.8375 -0.4790
17844TIP3   OH275022   3.006   1.593  16.615 -0.0129 -0.1509 -0.2910
17844TIP3    H175023   3.087   1.634  16.585 -0.0389 -0.5737 -0.9695
17844TIP3    H275024   3.026   1.559  16.702  0.5034 -0.1536 -0.4102
17845TIP3   OH275025   2.234   0.040  14.738  0.1223  0.1152  0.1373
17845TIP3    H175026   2.273  -0.028  14.793  0.6309 -0.3200 -0.7482
17845TIP3    H275027   2.305   0.070  14.682 -0.3690  0.6139 -0.2353
17846TIP3   OH275028   0.509   2.705   2.076 -0.3210 -0.3117 -0.5710
17846TIP3    H175029   0.553   2.709   2.162  1.5274 -0.5188 -1.4584
17846TIP3    H275030   0.575   2.669   2.017 -1.2405  0.7036 -2.2925
17847TIP3   OH275031   0.084   0.548  11.545 -0.7436 -0.0510  0.4649
17847TIP3    H175032   0.172   0.578  11.569 -0.8996  0.0754  0.8919
17847TIP3    H275033   0.087   0.539  11.450  0.5775 -2.7354  0.6776
17848TIP3   OH275034   6.560   3.971  14.421  0.2557 -0.3519  0.5157
17848TIP3    H175035   6.466   3.959  14.409  0.4549 -1.8187  0.2987
17848TIP3    H275036   6.576   4.061  14.393 -0.8967 -0.4686 -0.5824
17849TIP3   OH275037   4.038   2.738  11.546 -0.3398 -0.3609 -0.8773
17849TIP3    H175038   4.132   2.727  11.560  0.0494  2.7521 -0.4423
17849TIP3    H275039   3.998   2.688  11.617  1.0824  0.3829  0.5122
17850TIP3   OH275040   6.220   2.501   5.033  0.6131 -0.1880  0.8548
17850TIP3    H175041   6.305   2.535   5.007  0.0095 -0.6856 -2.0744
17850TIP3    H275042   6.194   2.443   4.962 -2.0004 -0.3670  1.8405
17851TIP3   OH275043   1.676   2.656  14.992 -0.1354 -0.0800 -0.1443
17851TIP3    H175044   1.627   2.614  15.062  0.0542 -0.5937 -0.3193
17851TIP3    H275045   1.752   2.600  14.979 -0.4049 -0.2405 -1.0785
17852TIP3   OH275046   2.485   1.770   5.506  0.2450  0.5930  0.0661
17852TIP3    H175047   2.525   1.798   5.589  2.0198 -0.0840 -0.5091
17852TIP3    H275048   2.415   1.710   5.531  0.0623  1.2131  1.0945
17853TIP3   OH275049   6.680   3.082   1.620  0.0890 -0.2262  0.0331
17853TIP3    H175050   6.774   3.101   1.612  0.3836 -1.6803 -0.4397
17853TIP3    H275051   6.640   3.127   1.545  0.4084  0.3767  0.2190
17854TIP3   OH275052   6.415   4.708   0.560  0.1851  0.2443  0.5881
17854TIP3    H175053   6.361   4.669   0.492  0.5649  1.2686 -0.3402
17854TIP3    H275054   6.459   4.634   0.602  0.1434 -0.3913 -0.4602
17855TIP3   OH275055   3.018   2.864  11.521  0.8111  0.4077  0.2539
17855TIP3    H175056   3.019   2.906  11.435  1.4953  1.7654  0.8921
17855TIP3    H275057   3.092   2.803  11.518  0.2591 -0.2605 -0.4216
17856TIP3   OH275058   3.795   1.866   0.524 -0.0135  0.1339  0.0690
17856TIP3    H175059   3.700   1.871   0.523 -0.0865 -0.9928 -0.1779
17856TIP3    H275060   3.815   1.775   0.500  1.1562  0.6186 -0.9123
17857TIP3   OH275061   6.413   1.749  11.740  0.0485  0.1873  0.0603
17857TIP3    H175062   6.433   1.818  11.678 -0.1577 -0.0742 -0.3057
17857TIP3    H275063   6.399   1.794  11.823  1.7178  0.4117  0.2492
17858TIP3   OH275064   2.851   1.887  14.316  0.3016  0.1989  0.0583
17858TIP3    H175065   2.827   1.888  14.409  0.0713 -2.6507  0.1091
17858TIP3    H275066   2.946   1.877  14.316  0.1710 -1.2499  0.0536
17859TIP3   OH275067   2.491   1.892  16.593 -0.6075 -0.3541 -0.1278
17859TIP3    H175068   2.510   1.820  16.533 -2.4491 -1.4709  0.5769
17859TIP3    H275069   2.548   1.876  16.669 -0.1760 -0.3858 -0.4516
17860TIP3   OH275070   6.652   3.504   1.679 -0.5599 -0.3010 -0.1107
17860TIP3    H175071   6.718   3.572   1.689  1.6435 -2.2333 -0.7632
17860TIP3    H275072   6.631   3.476   1.768 -0.2152  0.0422  0.0781
17861TIP3   OH275073   1.307   6.838  10.875  0.1085 -0.1348 -0.3629
17861TIP3    H175074   1.336   6.862  10.787  1.4221 -0.1744  0.0353
17861TIP3    H275075   1.268   6.918  10.910  1.8102  0.6356 -0.1085
17862TIP3   OH275076   1.171   3.935   2.466  0.2439  0.3159 -0.4905
17862TIP3    H175077   1.156   4.011   2.522 -1.5125 -0.5028  0.2163
17862TIP3    H275078   1.238   3.965   2.403 -0.0471  2.2721  0.0538
17863TIP3   OH275079   2.079   0.777   5.118  0.0164 -0.3441 -0.7484
17863TIP3    H175080   2.134   0.710   5.158 -0.0766 -0.2837 -0.5207
17863TIP3    H275081   2.142   0.837   5.076  0.2139  0.4799  0.6639
17864TIP3   OH275082   2.409   3.623   2.624  0.4031 -0.4965  0.2197
17864TIP3    H175083   2.480   3.630   2.688  2.5019 -2.3958 -1.7316
17864TIP3    H275084   2.348   3.560   2.663  0.0404  0.6581  1.6312
17865TIP3   OH275085   1.719   3.546  17.193  0.2059 -0.1711 -0.2296
17865TIP3    H175086   1.750   3.565  17.105 -0.7116 -1.6275 -0.9051
17865TIP3    H275087   1.691   3.454  17.189  0.2613 -0.3116  1.6104
17866TIP3   OH275088   4.179   2.290  13.614  0.2353 -0.3362  0.3038
17866TIP3    H175089   4.272   2.313  13.615  0.1894 -0.1682  0.6686
17866TIP3    H275090   4.161   2.255  13.701  0.2117 -1.4049 -0.1157
17867TIP3   OH275091   4.441   0.780  14.745  0.0478  0.0409 -1.1351
17867TIP3    H175092   4.531   0.795  14.773 -0.0581  0.1519 -0.8433
17867TIP3    H275093   4.448   0.718  14.672  0.4552  1.1024 -2.0166
17868TIP3   OH275094   5.749   4.188   1.733 -0.0898 -0.0102  0.7884
17868TIP3    H175095   5.738   4.093   1.726 -0.3506  0.0632  0.1678
17868TIP3    H275096   5.779   4.202   1.824  0.7892 -0.7563  0.6342
17869TIP3   OH275097   2.668   2.496  11.430  0.3089 -0.4063 -0.1431
17869TIP3    H175098   2.720   2.576  11.440  0.1905 -0.1549 -1.3333
17869TIP3    H275099   2.578   2.527  11.418  0.3649 -0.6540 -1.3703
17870TIP3   OH275100   4.531   1.117   1.644 -0.5525  0.0663 -0.3197
17870TIP3    H175101   4.618   1.139   1.612 -0.7934 -1.3076 -2.0745
17870TIP3    H275102   4.542   1.033   1.688 -0.8249  0.3819  0.3717
17871TIP3   OH275103   2.032   2.370   4.167 -0.1276 -0.7636 -0.4568
17871TIP3    H175104   2.052   2.441   4.106 -0.3823 -0.2728  0.0178
17871TIP3    H275105   2.052   2.290   4.119  3.3145 -0.3593  0.0882
17872TIP3   OH275106   4.026   2.291  11.040  0.0794  0.5397 -0.2439
17872TIP3    H175107   3.975   2.323  10.965 -0.8191  0.1362  0.1755
17872TIP3    H275108   4.034   2.366  11.098 -3.7333 -0.3134  1.6819
17873TIP3   OH275109   1.717   1.283  12.126 -0.3416  0.0861  0.8346
17873TIP3    H175110   1.761   1.367  12.114  1.4895 -0.8385  0.7022
17873TIP3    H275111   1.784   1.226  12.162 -0.5836 -2.1764 -1.9423
17874TIP3   OH275112   4.579   2.517   5.759  0.1767  0.0032  0.8671
17874TIP3    H175113   4.563   2.452   5.690  0.9046  0.7450 -0.0251
17874TIP3    H275114   4.549   2.474   5.839 -0.5263 -0.9483  0.1200
17875TIP3   OH275115   6.263   4.981  14.874  0.4957 -0.4798 -0.1155
17875TIP3    H175116   6.301   5.068  14.888  1.6527 -0.7301 -1.4515
17875TIP3    H275117   6.339   4.922  14.875 -0.2492 -1.4488  0.5148
17876TIP3   OH275118   3.080   0.278  12.029  0.0534 -0.6241 -0.1463
17876TIP3    H175119   3.003   0.330  12.050  0.6909 -0.5226  2.1611
17876TIP3    H275120   3.051   0.219  11.959 -1.3232  1.2124 -1.2071
17877TIP3   OH275121   5.032   4.641   5.873 -0.1459  0.1782 -0.0511
17877TIP3    H175122   5.006   4.730   5.846 -0.5883  0.0883  0.0619
17877TIP3    H275123   5.051   4.649   5.966 -0.7823  0.0329  0.0968
17878TIP3   OH275124   0.082   2.127   2.282  0.0040  0.2287  0.3846
17878TIP3    H175125   0.015   2.087   2.337  0.3863  1.2578  1.6561
17878TIP3    H275126   0.056   2.218   2.274  0.8950  0.4950  0.3463
17879TIP3   OH275127   6.693   1.355   1.118  0.7366 -0.2025  0.1074
17879TIP3    H175128   6.629   1.285   1.122  0.3967  0.1454  1.3921
17879TIP3    H275129   6.772   1.318   1.159  0.4650  0.2349  1.0532
17880TIP3   OH275130   5.488   0.536  15.594  0.0507  0.1763  0.2924
17880TIP3    H175131   5.478   0.536  15.498 -0.3405  1.2172  0.3226
17880TIP3    H275132   5.422   0.597  15.625  0.4755  0.1891  1.2008
17881TIP3   OH275133   3.561   2.342  13.255 -0.0183 -0.5590  0.5371
17881TIP3    H175134   3.561   2.424  13.303 -1.1940 -0.3062  0.1340
17881TIP3    H275135   3.581   2.275  13.320 -1.6122 -0.2275  1.4218
17882TIP3   OH275136   4.779   0.199  16.752 -0.2399  0.6559 -0.7953
17882TIP3    H175137   4.874   0.213  16.755 -0.2401  0.4479  1.2435
17882TIP3    H275138   4.769   0.105  16.760 -0.6462  0.8350  1.1470
17883TIP3   OH275139   6.324   6.262   4.364 -0.0768 -0.3231  0.1640
17883TIP3    H175140   6.388   6.191   4.370 -3.1941 -3.3970  0.8551
17883TIP3    H275141   6.335   6.312   4.444  1.5310 -0.6698  0.1834
17884TIP3   OH275142   3.190   4.745  12.953  0.2927 -0.1441  0.4994
17884TIP3    H175143   3.206   4.742  13.048  0.3275 -1.4765  0.4618
17884TIP3    H275144   3.098   4.771  12.945  0.4708  0.6616  0.8620
17885TIP3   OH275145   0.471   2.422  11.094 -0.0038  0.4274 -0.3958
17885TIP3    H175146   0.476   2.493  11.158  2.4112  0.0519 -0.0553
17885TIP3    H275147   0.408   2.361  11.132 -0.2231  1.2136  0.5576
17886TIP3   OH275148   4.552   3.604  14.923 -0.0240  0.5476  0.2288
17886TIP3    H175149   4.544   3.509  14.923  0.2697  0.4785 -1.6217
17886TIP3    H275150   4.500   3.633  14.998 -0.7190 -1.0197  0.3913
17887TIP3   OH275151   0.727   3.511   2.452 -0.3536  0.3427 -0.3741
17887TIP3    H175152   0.754   3.549   2.536 -0.0348 -0.7208  0.0114
17887TIP3    H275153   0.641   3.550   2.436  0.2261  1.7205 -0.3171
17888TIP3   OH275154   5.101   4.881   4.996 -0.4650 -0.0489 -0.8463
17888TIP3    H175155   5.146   4.944   5.052 -1.0883 -0.4275  0.1019
17888TIP3    H275156   5.008   4.888   5.021 -0.6141 -0.9429 -1.1124
17889TIP3   OH275157   3.320   0.537   0.374  0.6114  0.5179 -0.1046
17889TIP3    H175158   3.339   0.446   0.351  1.2129  1.1591 -2.4671
17889TIP3    H275159   3.257   0.566   0.307 -1.7493  1.1201  2.1900
17890TIP3   OH275160   0.012   5.523  10.495 -0.5602  0.2185  0.9318
17890TIP3    H175161  -0.061   5.498  10.552 -0.9864 -3.0689 -0.8362
17890TIP3    H275162  -0.024   5.592  10.438 -2.4847 -1.5720 -0.1338
17891TIP3   OH275163   6.143   2.658   5.510  0.3611  0.5114 -0.7448
17891TIP3    H175164   6.104   2.729   5.561 -1.0282  0.2637 -1.4272
17891TIP3    H275165   6.116   2.674   5.420 -0.0817 -0.9417 -0.8925
17892TIP3   OH275166   3.479   5.790  14.602 -0.0801 -0.2790  0.1747
17892TIP3    H175167   3.555   5.836  14.638 -1.5035  1.3042  1.3054
17892TIP3    H275168   3.502   5.774  14.510  1.3542  0.7317  0.3270
17893TIP3   OH275169   5.962   0.920  13.703  0.2560 -0.1540 -0.4513
17893TIP3    H175170   6.038   0.895  13.756 -0.0782 -1.8604 -0.7131
17893TIP3    H275171   5.991   0.910  13.613  0.1587  0.6484 -0.5809
17894TIP3   OH275172   5.405   3.969  15.092  0.2345  0.1948  0.6069
17894TIP3    H175173   5.425   3.912  15.166  0.8809  0.6399  0.7839
17894TIP3    H275174   5.324   4.015  15.118  0.8298  0.8544  1.3402
17895TIP3   OH275175   2.515   1.126  11.400  0.0459 -0.4816 -0.5871
17895TIP3    H175176   2.425   1.118  11.368 -0.4497 -0.9298  0.8540
17895TIP3    H275177   2.508   1.178  11.480  0.6982 -2.6495  0.9486
17896TIP3   OH275178   5.084   5.700  13.252  0.4207 -0.1739 -0.1303
17896TIP3    H175179   5.156   5.694  13.315  2.0102  0.2158 -1.8065
17896TIP3    H275180   5.079   5.793  13.229  0.3294 -0.4027 -1.0686
17897TIP3   OH275181   0.175   0.470   1.293  0.3136 -0.3070 -0.5324
17897TIP3    H175182   0.172   0.384   1.250 -1.4730 -0.4593 -0.1854
17897TIP3    H275183   0.147   0.531   1.226 -0.9718 -0.3526 -0.0680
17898TIP3   OH275184   3.688   3.341  10.951 -0.0503  0.0401  0.3798
17898TIP3    H175185   3.670   3.433  10.935 -0.1652  0.0652  0.6542
17898TIP3    H275186   3.773   3.326  10.909 -0.5942 -0.0310 -0.7236
17899TIP3   OH275187   2.300   0.946  13.233  0.4718 -0.3665  0.1068
17899TIP3    H175188   2.291   0.977  13.143  0.7758 -0.6997 -0.0435
17899TIP3    H275189   2.244   0.869  13.237  0.7875 -0.5976  0.0798
17900TIP3   OH275190   5.231   0.432  16.765  0.1968 -0.1635  0.0625
17900TIP3    H175191   5.301   0.418  16.828 -0.0825 -0.5704  0.2901
17900TIP3    H275192   5.274   0.430  16.679  0.3779 -1.0648  0.1645
17901TIP3   OH275193   6.801   6.460  11.691  0.3638  0.1032  0.1818
17901TIP3    H175194   6.778   6.395  11.758  0.5327  0.2512  0.3852
17901TIP3    H275195   6.807   6.410  11.610  0.2108 -0.0880  0.2869
17902TIP3   OH275196   6.068   3.126   5.494 -0.1145  0.2101 -0.3576
17902TIP3    H175197   6.140   3.187   5.513  0.1474  0.3578 -1.7102
17902TIP3    H275198   5.990   3.171   5.524  0.3387 -0.0523  1.3714
17903TIP3   OH275199   3.970   0.616  15.630  0.1194  0.2751  0.4640
17903TIP3    H175200   3.894   0.668  15.602 -0.4736  0.5662  2.4246
17903TIP3    H275201   4.015   0.594  15.549 -0.1235  3.0495 -0.5335
17904TIP3   OH275202   5.910   3.259  13.474 -0.5787  0.1803 -0.1654
17904TIP3    H175203   5.973   3.327  13.452 -1.3402  0.9089 -0.1671
17904TIP3    H275204   5.869   3.290  13.556 -0.2385 -0.7654  0.3749
17905TIP3   OH275205   3.361   2.779  13.231  0.7558  0.2526  0.6387
17905TIP3    H175206   3.302   2.726  13.177 -0.4064  2.9854 -0.9829
17905TIP3    H275207   3.305   2.813  13.301  1.7045 -1.2813  2.2235
17906TIP3   OH275208   1.647   5.548   5.410  0.2068 -0.5710 -0.3877
17906TIP3    H175209   1.684   5.592   5.486 -0.5128 -0.5056 -0.0675
17906TIP3    H275210   1.692   5.588   5.335  0.1442  0.1320 -0.0588
17907TIP3   OH275211   3.523   3.932  10.940 -0.1705 -0.3783 -0.3476
17907TIP3    H175212   3.563   3.874  10.875  0.1025 -0.5180 -0.0569
17907TIP3    H275213   3.461   3.985  10.890  1.9369  1.4103 -1.2406
17908TIP3   OH275214   0.147   1.696   2.265  0.5701  0.0251  0.3536
17908TIP3    H175215   0.069   1.746   2.240  0.9472  1.0422  1.1602
17908TIP3    H275216   0.112   1.615   2.303 -0.0893  0.3209  0.3977
17909TIP3   OH275217   5.957   4.735  11.355 -0.4985  0.1086  0.5102
17909TIP3    H175218   5.979   4.827  11.373  0.5751 -0.2094  0.9346
17909TIP3    H275219   5.865   4.727  11.379 -0.6201  1.0850  0.4217
17910TIP3   OH275220   5.895   1.285   0.535 -0.4456  0.2371  0.6759
17910TIP3    H175221   5.806   1.251   0.545 -1.0606  1.3743 -0.5661
17910TIP3    H275222   5.885   1.362   0.478  1.3664  0.2637  0.3313
17911TIP3   OH275223   5.823   0.790  16.947  0.6342 -0.0361  0.2082
17911TIP3    H175224   5.843   0.878  16.977  0.6408 -0.2579  0.8652
17911TIP3    H275225   5.907   0.745  16.948  0.8561  0.2713 -1.2793
17912TIP3   OH275226   0.409   2.610  13.813 -0.4770  0.1123 -0.0032
17912TIP3    H175227   0.323   2.603  13.770 -0.5149 -0.4263  0.1456
17912TIP3    H275228   0.472   2.592  13.743 -0.3697  2.4676 -0.5843
17913TIP3   OH275229   5.663   3.126  11.362 -0.5801  0.3318  0.2335
17913TIP3    H175230   5.749   3.167  11.358 -0.1612 -0.4054  1.1370
17913TIP3    H275231   5.644   3.101  11.271  0.9972 -1.1108  0.2345
17914TIP3   OH275232   2.020   0.613   1.127 -0.8604 -0.1714  0.2208
17914TIP3    H175233   2.032   0.519   1.142 -0.0320  0.0403  0.9496
17914TIP3    H275234   1.998   0.648   1.213  0.9556  0.6124  0.4045
17915TIP3   OH275235   1.430   4.132   3.220 -0.1390  0.1538  0.4879
17915TIP3    H175236   1.398   4.127   3.129 -0.3028  0.2506  0.5383
17915TIP3    H275237   1.385   4.060   3.265 -0.9606  0.8074  0.7559
17916TIP3   OH275238   5.877   5.234   3.597  0.8878 -0.1263  0.3919
17916TIP3    H175239   5.899   5.288   3.672 -0.3560 -2.0045  2.1970
17916TIP3    H275240   5.848   5.151   3.634 -0.8457 -0.7672 -2.1120
17917TIP3   OH275241   2.511   4.799  14.286  0.0859  0.4831  0.0477
17917TIP3    H175242   2.424   4.838  14.287 -0.3132 -0.3489 -0.5060
17917TIP3    H275243   2.568   4.868  14.252 -0.6827  0.4531 -1.3795
17918TIP3   OH275244   2.101   5.465   1.478  0.3059  0.1648  0.4602
17918TIP3    H175245   2.102   5.550   1.434 -0.8197  0.5697  1.1819
17918TIP3    H275246   2.008   5.441   1.481  0.4074 -0.1039  2.1266
17919TIP3   OH275247   5.573   4.578  14.332 -0.1456  0.5685  0.1194
17919TIP3    H175248   5.538   4.491  14.349  0.5444  0.0393 -1.0475
17919TIP3    H275249   5.498   4.637  14.342 -0.5031 -0.0832  1.4427
17920TIP3   OH275250   2.590   0.178   1.771  0.0898  0.2411  0.0607
17920TIP3    H175251   2.651   0.205   1.703  0.2527 -1.6764 -0.6208
17920TIP3    H275252   2.505   0.170   1.726  0.0069 -0.1673  0.2839
17921TIP3   OH275253   5.966   5.185   0.674  0.0872  0.1393  0.3767
17921TIP3    H175254   5.906   5.255   0.649  0.6756  0.7611  0.7083
17921TIP3    H275255   5.974   5.132   0.594 -0.3519  0.4409  0.1260
17922TIP3   OH275256   0.181   0.077   0.187 -0.2809  0.0759  0.3618
17922TIP3    H175257   0.145   0.142   0.127 -0.0370 -0.7873 -0.7617
17922TIP3    H275258   0.276   0.090   0.182 -0.0259 -1.9769 -1.8753
17923TIP3   OH275259   3.446   4.413   2.578 -0.4642  0.5639  0.5444
17923TIP3    H175260   3.385   4.343   2.554 -0.4124  1.1047 -1.3396
17923TIP3    H275261   3.530   4.369   2.590 -0.4713  0.2477 -0.4518
17924TIP3   OH275262   5.286   2.213   0.887 -0.9084 -0.7657 -0.1520
17924TIP3    H175263   5.263   2.152   0.957  1.4501 -0.1244  1.3219
17924TIP3    H275264   5.366   2.256   0.918 -0.3792  0.3706 -2.7837
17925TIP3   OH275265   2.888   5.343  10.861 -0.6517  0.2897  0.5121
17925TIP3    H175266   2.982   5.351  10.847 -0.9849  0.8100 -1.7925
17925TIP3    H275267   2.852   5.429  10.841 -1.8835 -0.6386 -1.6790
17926TIP3   OH275268   2.195   6.705  12.189 -0.0741 -0.4889 -0.1671
17926TIP3    H175269   2.211   6.796  12.166 -0.6942 -0.4051 -0.2710
17926TIP3    H275270   2.101   6.701  12.209 -0.0779 -1.1309 -0.3031
17927TIP3   OH275271   1.924   6.655   1.840 -0.2819 -0.2463  0.0761
17927TIP3    H175272   1.865   6.618   1.775 -0.0611 -1.0414  0.3163
17927TIP3    H275273   1.875   6.649   1.923  0.0256 -0.6521  0.2296
17928TIP3   OH275274   1.045   1.181  15.845  0.0042 -0.7012 -0.1710
17928TIP3    H175275   0.966   1.178  15.899  0.4925 -1.4469  0.5210
17928TIP3    H275276   1.030   1.117  15.776 -0.7822  0.5259 -1.1798
17929TIP3   OH275277   0.455   2.074   5.723  0.2160 -0.0261  0.0844
17929TIP3    H175278   0.492   2.015   5.789  0.4595  0.8279  0.7354
17929TIP3    H275279   0.361   2.054   5.723  0.5025 -1.5821 -0.9322
17930TIP3   OH275280   0.314   2.620   0.830  0.3144  0.6196  0.6507
17930TIP3    H175281   0.404   2.607   0.803  0.1600  0.5881  0.1291
17930TIP3    H275282   0.319   2.651   0.920  0.8616  0.9985  0.4901
17931TIP3   OH275283   1.570   6.727   3.548 -0.3246 -0.4313  0.1349
17931TIP3    H175284   1.657   6.762   3.527 -0.2131 -1.5797 -1.5284
17931TIP3    H275285   1.582   6.684   3.633  0.9381 -1.2172 -0.4103
17932TIP3   OH275286   2.373   2.262   5.665  0.1748  0.1306  0.6690
17932TIP3    H175287   2.326   2.345   5.677 -0.2439  0.3109 -1.7126
17932TIP3    H275288   2.307   2.202   5.630  1.0934 -0.3916 -0.2154
17933TIP3   OH275289   6.027   2.390   2.344 -0.3091 -0.1980 -0.4915
17933TIP3    H175290   5.957   2.413   2.283 -0.5967 -0.4753 -0.2645
17933TIP3    H275291   6.007   2.440   2.424 -0.0903 -0.0574 -0.5228
17934TIP3   OH275292   4.774   1.531  12.236 -0.1369 -0.2808 -0.1608
17934TIP3    H175293   4.861   1.522  12.275  0.3868 -0.6857 -1.3928
17934TIP3    H275294   4.776   1.475  12.159 -2.3394 -2.3062  1.1318
17935TIP3   OH275295   6.053   3.898   4.962 -0.0518  0.6512 -0.0884
17935TIP3    H175296   6.088   3.959   4.898 -0.2068 -0.8375 -1.6864
17935TIP3    H275297   6.094   3.814   4.940  1.0549  0.3318  2.7386
17936TIP3   OH275298   5.131   6.496   2.736  0.3077  0.0380  0.2595
17936TIP3    H175299   5.134   6.464   2.826  1.4098  1.7751  0.8947
17936TIP3    H275300   5.204   6.452   2.692  0.3825 -0.0768  0.4978
17937TIP3   OH275301   0.919   6.040  13.546 -0.2340  0.5200 -0.0882
17937TIP3    H175302   0.939   6.127  13.580 -1.8807  0.6375  0.7140
17937TIP3    H275303   1.004   5.997  13.536  0.5491  1.9495  0.2356
17938TIP3   OH275304   5.878   4.274  16.763  0.3901  0.3477  0.2972
17938TIP3    H175305   5.853   4.366  16.748  0.2415  0.5395  1.5761
17938TIP3    H275306   5.907   4.272  16.854  0.2798 -0.9063  0.3210
17939TIP3   OH275307   3.951   2.172  13.485 -0.2605 -0.1310  0.0652
17939TIP3    H175308   3.958   2.226  13.406 -2.2369  1.0478  0.6143
17939TIP3    H275309   4.034   2.185  13.531  1.6280 -2.1419 -2.5207
17940TIP3   OH275310   0.281   2.518  11.348  0.3139  0.0291  0.6802
17940TIP3    H175311   0.368   2.556  11.335  0.9144 -1.3053  0.6687
17940TIP3    H275312   0.263   2.531  11.441  0.2342  0.8869  0.5518
17941TIP3   OH275313   6.470   0.750  16.507 -0.0612  0.6182  0.5778
17941TIP3    H175314   6.480   0.655  16.499  2.7700  0.9333 -0.4089
17941TIP3    H275315   6.454   0.764  16.601 -0.8558 -0.8197  0.6879
17942TIP3   OH275316   0.444   2.169  13.988  0.0525  0.2994 -0.1499
17942TIP3    H175317   0.531   2.134  13.971 -0.2000 -0.2748 -0.2885
17942TIP3    H275318   0.413   2.121  14.065  0.3477  1.3889  0.6721
17943TIP3   OH275319   3.957   6.235  14.043  0.1232 -0.2185 -0.3546
17943TIP3    H175320   3.927   6.150  14.010  0.6801  0.4462 -2.7200
17943TIP3    H275321   3.893   6.297  14.009  1.7062  0.6984 -1.8045
17944TIP3   OH275322   1.832   3.120  11.542 -0.5794 -0.2088  0.0517
17944TIP3    H175323   1.840   3.058  11.615  0.8923 -0.1793 -0.0447
17944TIP3    H275324   1.810   3.203  11.583  0.7448 -0.0760  0.5572
17945TIP3   OH275325   6.397   1.248   3.501  0.2360 -0.1120 -0.2126
17945TIP3    H175326   6.418   1.160   3.531  1.3526 -0.6331 -2.2900
17945TIP3    H275327   6.458   1.305   3.548  1.7735 -0.8675 -1.2008
17946TIP3   OH275328   5.876   0.313   0.986 -1.4138  0.2028 -0.1314
17946TIP3    H175329   5.850   0.336   1.075 -2.6023  0.6460 -0.5656
17946TIP3    H275330   5.888   0.218   0.988 -1.0110  0.2657  0.5977
17947TIP3   OH275331   0.922   1.832   5.199 -0.4580 -0.2415  0.5738
17947TIP3    H175332   0.841   1.780   5.194 -1.2081  0.4777  3.5121
17947TIP3    H275333   0.958   1.813   5.285  2.0515  0.2130 -0.2948
17948TIP3   OH275334   3.791   5.657   5.387  0.0543  0.4547  0.7049
17948TIP3    H175335   3.695   5.655   5.382  0.0816 -0.3428  0.1128
17948TIP3    H275336   3.811   5.732   5.442 -0.8233  2.5129 -1.5617
17949TIP3   OH275337   3.405   0.093   1.039  0.0445  0.3009  0.0299
17949TIP3    H175338   3.493   0.115   1.007 -0.0405 -0.5581 -0.8360
17949TIP3    H275339   3.359   0.177   1.043  0.3630  0.5574 -1.2192
17950TIP3   OH275340   5.131   6.324  12.359  0.2389 -0.0633 -0.9045
17950TIP3    H175341   5.194   6.395  12.365 -0.9873  0.9299  0.7829
17950TIP3    H275342   5.183   6.248  12.331  2.0587  0.8575 -0.1429
17951TIP3   OH275343   2.732   5.601  15.548  0.5618  0.3686 -0.3804
17951TIP3    H175344   2.694   5.585  15.462 -0.3671  0.0789  0.0685
17951TIP3    H275345   2.821   5.629  15.530 -0.0922  1.9085 -1.5389
17952TIP3   OH275346   5.114   0.967   3.023 -0.2500  0.0224 -0.4547
17952TIP3    H175347   5.145   0.881   2.995 -0.7576 -0.2481 -0.1867
17952TIP3    H275348   5.163   1.029   2.968  0.4329 -0.4124 -0.3480
17953TIP3   OH275349   2.397   6.255   1.177  0.1985  0.0839 -0.2623
17953TIP3    H175350   2.419   6.198   1.251 -0.6460  1.1181  0.8259
17953TIP3    H275351   2.306   6.231   1.156  0.0913  0.5155 -0.2856
17954TIP3   OH275352   4.491   4.528   6.419 -0.4920 -0.1504 -0.3118
17954TIP3    H175353   4.552   4.537   6.346  0.9530  0.4897  0.9112
17954TIP3    H275354   4.511   4.443   6.457 -0.1967  0.1538  0.2235
17955TIP3   OH275355   0.175   2.394   0.061  0.0452 -0.0242  0.9869
17955TIP3    H175356   0.227   2.315   0.079 -1.6047 -0.8779  2.3394
17955TIP3    H275357   0.087   2.371   0.091 -0.5026  2.3230  1.3395
17956TIP3   OH275358   3.004   2.120  11.550 -0.1378  0.5015  0.1388
17956TIP3    H175359   2.939   2.182  11.584 -0.7547 -0.4843  0.8163
17956TIP3    H275360   3.085   2.143  11.596 -0.4030  0.7153  0.5076
17957TIP3   OH275361   3.380   5.805  15.318  0.6062  0.3190  0.4337
17957TIP3    H175362   3.460   5.755  15.333  0.6888  0.0057 -0.9218
17957TIP3    H275363   3.316   5.739  15.290  0.2721  0.7650  0.1408
17958TIP3   OH275364   4.118   2.353   3.050 -0.1471  0.1606 -0.1353
17958TIP3    H175365   4.165   2.389   3.124  0.5533  0.7970 -0.8721
17958TIP3    H275366   4.093   2.429   2.997 -1.0614 -0.2448 -0.3105
17959TIP3   OH275367   3.115   3.115  15.836  0.2775 -0.1760  0.1518
17959TIP3    H175368   3.033   3.116  15.787  0.3445  0.4870  0.0437
17959TIP3    H275369   3.099   3.054  15.908  0.9177 -2.8937 -1.8665
17960TIP3   OH275370   4.826   2.884  10.726  0.0511 -0.1022 -0.6020
17960TIP3    H175371   4.887   2.823  10.685 -0.1315  0.6888 -2.1540
17960TIP3    H275372   4.877   2.964  10.739  0.1301 -0.3724  0.8662
17961TIP3   OH275373   4.892   2.643   0.709  0.7267  1.0650  0.2393
17961TIP3    H175374   4.903   2.593   0.790 -0.3816  2.8106  1.5448
17961TIP3    H275375   4.941   2.594   0.643  3.6764  0.7731  2.4356
17962TIP3   OH275376   6.135   5.622  11.569 -0.2513  0.1368 -0.1658
17962TIP3    H175377   6.159   5.682  11.497 -0.7218  0.3873 -0.1210
17962TIP3    H275378   6.161   5.536  11.538  0.4962  0.3728 -0.2063
17963TIP3   OH275379   1.206   0.999   5.208 -0.2795 -0.3333 -0.3721
17963TIP3    H175380   1.258   1.068   5.166 -0.1023  0.4823  1.1027
17963TIP3    H275381   1.241   0.994   5.297 -1.9507 -0.5718  0.3134
17964TIP3   OH275382   0.035   3.195  14.283  0.2705  0.9379  0.6106
17964TIP3    H175383   0.018   3.254  14.210  1.4124  1.7025  0.9356
17964TIP3    H275384   0.085   3.123  14.245 -0.6342  0.4433  0.3232
17965TIP3   OH275385   6.199   1.682   3.009 -0.5372 -0.2461  0.4496
17965TIP3    H175386   6.249   1.612   2.967  0.2928  0.2490  0.5961
17965TIP3    H275387   6.137   1.636   3.065 -1.1379 -0.8977 -0.7142
17966TIP3   OH275388   3.901   0.466   4.125  0.3789 -0.1752 -0.4668
17966TIP3    H175389   3.841   0.391   4.125 -1.1247  0.8891  1.9864
17966TIP3    H275390   3.864   0.525   4.059 -1.9576  0.8447  1.5947
17967TIP3   OH275391   4.126   1.645  11.845 -0.4530 -0.8940  0.2957
17967TIP3    H175392   4.131   1.653  11.940 -0.9296 -1.5333  0.3756
17967TIP3    H275393   4.033   1.653  11.825 -0.3330 -0.5185 -0.1473
17968TIP3   OH275394   6.511   2.142   2.678 -0.2848 -0.1445 -0.4290
17968TIP3    H175395   6.485   2.050   2.672 -1.3635  0.1662 -0.7652
17968TIP3    H275396   6.431   2.190   2.658  0.2103  0.8715  0.0090
17969TIP3   OH275397   6.233   2.098  17.124  0.6114  0.1583  0.5580
17969TIP3    H175398   6.252   2.191  17.140  3.0300 -0.2702  0.6094
17969TIP3    H275399   6.246   2.086  17.030 -0.7694  0.0467  0.3544
17970TIP3   OH275400   6.261   3.489  15.871 -0.0841  0.5947 -0.2223
17970TIP3    H175401   6.285   3.404  15.908 -1.5951  0.6415  0.9265
17970TIP3    H275402   6.337   3.544  15.888  0.2357 -0.0711  0.5688
17971TIP3   OH275403   4.457   6.156   2.015  0.1516 -0.7834  0.0312
17971TIP3    H175404   4.368   6.123   2.016 -0.8035  1.6219  0.4490
17971TIP3    H275405   4.483   6.158   2.107  0.7058 -1.5761 -0.0959
17972TIP3   OH275406   6.504   0.744   0.035  0.3561  0.4302 -0.1807
17972TIP3    H175407   6.478   0.652   0.032  1.7793  0.0220 -2.0185
17972TIP3    H275408   6.448   0.787  -0.030  0.3820  0.6627 -0.0510
17973TIP3   OH275409   4.385   3.709  12.539  0.0306  0.0097 -0.1572
17973TIP3    H175410   4.468   3.670  12.510 -0.4897  0.3828 -2.2882
17973TIP3    H275411   4.336   3.635  12.577  0.5064 -0.6522 -0.8093
17974TIP3   OH275412   5.326   3.861   0.453 -0.3394 -0.3081  0.3453
17974TIP3    H175413   5.335   3.908   0.370  2.3096 -0.6827  0.3248
17974TIP3    H275414   5.347   3.926   0.520 -1.4667 -0.2609  0.6633
17975TIP3   OH275415   5.059   4.704  16.157 -0.2504  0.0089 -0.0296
17975TIP3    H175416   5.130   4.765  16.135  0.0237 -0.2873  0.0302
17975TIP3    H275417   5.050   4.649  16.079  0.8998 -1.2163  0.6656
17976TIP3   OH275418   3.110   0.149  11.444  0.5087  0.0274  0.4138
17976TIP3    H175419   3.163   0.093  11.387 -1.3443 -1.3391 -0.0939
17976TIP3    H275420   3.020   0.121  11.428 -0.1816  0.0569  3.5110
17977TIP3   OH275421   0.539   0.527  14.718 -0.2287  0.0096 -0.3887
17977TIP3    H175422   0.492   0.609  14.734 -0.8161 -0.4003  0.0080
17977TIP3    H275423   0.492   0.486  14.646  0.2250  0.1406 -0.7652
17978TIP3   OH275424   1.020   3.688   0.392  0.0399  0.1406 -0.5379
17978TIP3    H175425   0.934   3.646   0.388 -0.2774  0.8420 -1.4705
17978TIP3    H275426   1.074   3.628   0.445 -1.2546  0.1424  0.8401
17979TIP3   OH275427   2.156   2.883   5.877  0.0489 -0.3062 -0.1859
17979TIP3    H175428   2.080   2.916   5.925  1.4762  0.4603  1.6608
17979TIP3    H275429   2.199   2.823   5.938  1.1158 -0.4455 -1.0452
17980TIP3   OH275430   4.206   3.568   0.504 -0.2015 -0.5162  0.3607
17980TIP3    H175431   4.208   3.639   0.440  2.6900 -1.9532 -1.3546
17980TIP3    H275432   4.166   3.495   0.457  1.9775 -1.5979  0.0886
17981TIP3   OH275433   0.741   4.399  15.114  0.1456  0.4870 -0.0310
17981TIP3    H175434   0.776   4.321  15.158  0.9638 -0.7464 -2.6540
17981TIP3    H275435   0.763   4.386  15.022 -0.1626  3.6156 -0.6529
17982TIP3   OH275436   1.802   5.058  15.445 -0.4172 -0.4333  0.4904
17982TIP3    H175437   1.775   5.074  15.354  0.8343 -1.0003 -0.0094
17982TIP3    H275438   1.872   4.993  15.438  3.5015  3.2288  1.3020
17983TIP3   OH275439   4.017   1.930  13.711 -0.0891  0.1354  0.1715
17983TIP3    H175440   4.086   1.945  13.646  0.0779 -0.2035  0.2661
17983TIP3    H275441   3.984   2.017  13.731 -0.6392  0.1934 -0.8999
17984TIP3   OH275442   1.445   5.110  16.850  0.4874  0.0959  0.2043
17984TIP3    H175443   1.515   5.139  16.792  1.2279 -2.4358 -0.3140
17984TIP3    H275444   1.365   5.133  16.805  1.0050  1.3140 -0.1212
17985TIP3   OH275445   0.058   4.226   0.926  0.0180 -0.2227  0.1954
17985TIP3    H175446   0.141   4.212   0.971 -0.9888  0.4804  2.4337
17985TIP3    H275447   0.013   4.141   0.931 -0.4476  0.0689  1.3935
17986TIP3   OH275448   6.364   6.474   2.882  0.0271 -0.0822 -0.2039
17986TIP3    H175449   6.454   6.447   2.900  0.4781  0.3638 -1.6738
17986TIP3    H275450   6.337   6.519   2.962  1.5233  0.8071 -0.1481
17987TIP3   OH275451   6.405   4.793  12.953 -0.4320 -0.4453 -0.3709
17987TIP3    H175452   6.347   4.854  12.909 -0.7780 -1.5317 -1.4940
17987TIP3    H275453   6.387   4.804  13.046  0.8884  2.5044 -0.3433
17988TIP3   OH275454   0.692   3.094  17.096 -0.3005 -0.3371 -0.2052
17988TIP3    H175455   0.606   3.053  17.089 -1.0119  1.1314 -0.6086
17988TIP3    H275456   0.674   3.181  17.132  0.7714  0.7425 -2.1343
17989TIP3   OH275457   2.020   0.141  12.098  0.3239 -0.0060 -0.2024
17989TIP3    H175458   1.949   0.136  12.034 -1.3994 -0.8620  1.6670
17989TIP3    H275459   2.100   0.149  12.045 -1.1129  0.8068 -2.3850
17990TIP3   OH275460   3.269   3.071  10.888  0.1994 -0.5504  0.3028
17990TIP3    H175461   3.327   3.121  10.831  0.2157  0.2131  0.9675
17990TIP3    H275462   3.186   3.067  10.841  0.7605 -1.6143 -0.6357
17991TIP3   OH275463   0.336   0.905   2.782 -0.0030 -0.1994 -0.8082
17991TIP3    H175464   0.383   0.980   2.817 -1.1539  0.8501 -1.4153
17991TIP3    H275465   0.257   0.943   2.743 -0.6633 -1.7401 -1.0391
17992TIP3   OH275466   1.219   5.909   0.520 -0.3890  0.0563 -0.7026
17992TIP3    H175467   1.200   5.815   0.520  1.0252 -0.2784  0.9435
17992TIP3    H275468   1.305   5.916   0.477  1.3214  0.0614  2.4003
17993TIP3   OH275469   5.657   4.344   4.459 -0.4082 -0.0756 -0.9713
17993TIP3    H175470   5.636   4.272   4.518  0.9546  0.1236 -0.2098
17993TIP3    H275471   5.697   4.302   4.383  1.5045 -0.0716 -0.0040
17994TIP3   OH275472   3.222   1.751   2.213 -0.1710 -0.2138 -0.8237
17994TIP3    H175473   3.306   1.734   2.170  1.9990 -0.4118  3.0282
17994TIP3    H275474   3.223   1.845   2.231 -2.2863  0.3969 -3.3015
17995TIP3   OH275475   2.954   5.780   5.519 -0.4913 -0.5386  0.3316
17995TIP3    H175476   3.023   5.841   5.493 -1.1075 -0.3513 -0.9121
17995TIP3    H275477   2.919   5.818   5.600  0.1110 -0.0298  0.3627
17996TIP3   OH275478   3.797   2.835  11.412 -0.3360  0.3151 -0.2130
17996TIP3    H175479   3.741   2.773  11.459  0.1410  1.3672  1.8910
17996TIP3    H275480   3.885   2.818  11.445  0.2526  0.2062 -1.7700
17997TIP3   OH275481   5.827   6.759  16.370  0.0858 -0.3129  0.3254
17997TIP3    H175482   5.819   6.710  16.452 -0.7114  0.1068  0.5075
17997TIP3    H275483   5.821   6.691  16.302 -0.6962 -0.5217  0.5842
17998TIP3   OH275484   5.299   3.475  11.229 -0.1343 -0.2087  0.0654
17998TIP3    H175485   5.346   3.477  11.313 -0.4072  0.9401  0.2126
17998TIP3    H275486   5.367   3.491  11.164 -0.3815  2.5973  0.3536
17999TIP3   OH275487   2.335   3.841  14.518 -0.3582  0.3553  0.5224
17999TIP3    H175488   2.295   3.882  14.595  2.2181  0.8527  1.7072
17999TIP3    H275489   2.411   3.896  14.498 -0.3292 -0.4035 -1.7125
18000TIP3   OH275490   6.830   6.301  11.415  0.2084 -0.3296  0.3549
18000TIP3    H175491   6.876   6.225  11.378  0.7445 -0.7136  1.7677
18000TIP3    H275492   6.793   6.345  11.338 -1.4900 -2.8719 -0.4066
18001TIP3   OH275493   3.229   3.131  15.489  0.1049  0.2120  0.6287
18001TIP3    H175494   3.212   3.219  15.523 -0.9321  0.6406 -0.9195
18001TIP3    H275495   3.152   3.080  15.515 -0.1692  0.2557 -0.0738
18002TIP3   OH275496   4.702   5.636  11.930  0.5260 -0.4147  0.0706
18002TIP3    H175497   4.700   5.626  11.835 -2.7263  1.9983 -0.2982
18002TIP3    H275498   4.679   5.550  11.964  0.1225 -0.9251 -1.4346
18003TIP3   OH275499   3.146   5.604  12.825  0.1145 -0.1139 -0.0158
18003TIP3    H175500   3.168   5.633  12.736 -0.3010 -1.0192 -0.4343
18003TIP3    H275501   3.114   5.514  12.813  1.6161 -0.8603  1.2360
18004TIP3   OH275502   1.638   0.616  11.868 -0.4611 -0.4473 -0.5429
18004TIP3    H175503   1.597   0.646  11.786  1.0939  1.0164 -0.8362
18004TIP3    H275504   1.701   0.550  11.840  1.1583  1.1134 -0.7859
18005TIP3   OH275505   2.580   4.245   2.760  0.0390  0.8176 -0.2691
18005TIP3    H175506   2.671   4.213   2.760  0.1768  1.2068 -0.5450
18005TIP3    H275507   2.583   4.325   2.812  0.0641  1.4165 -1.1774
18006TIP3   OH275508   6.296   0.232   0.080  0.1248 -0.1141  0.3618
18006TIP3    H175509   6.286   0.184   0.163  2.3818  0.0909  0.8096
18006TIP3    H275510   6.390   0.249   0.073 -0.0200  0.0372 -2.1759
18007TIP3   OH275511   1.285   3.356  16.181 -0.5523 -0.1872  0.1392
18007TIP3    H175512   1.255   3.446  16.168  0.6948  0.2560  0.1601
18007TIP3    H275513   1.331   3.334  16.100  0.2063 -0.3565  0.6036
18008TIP3   OH275514   6.402   0.125  15.031  0.1327 -0.5550 -0.1405
18008TIP3    H175515   6.346   0.047  15.028  0.7602 -0.9823 -1.1150
18008TIP3    H275516   6.486   0.094  15.064  0.0543 -0.0585  0.5645
18009TIP3   OH275517   3.920   3.539   2.532  0.0348 -0.4016  0.2707
18009TIP3    H175518   3.887   3.585   2.455  0.1082  0.6960  0.8697
18009TIP3    H275519   4.013   3.528   2.516  0.5919  2.2246  1.3166
18010TIP3   OH275520   6.455   3.146  16.236  0.1024  0.5705 -0.3930
18010TIP3    H175521   6.455   3.185  16.324 -1.5179  2.3215 -1.0885
18010TIP3    H275522   6.547   3.128  16.218  0.5055  0.5545  1.4989
18011TIP3   OH275523   4.116   5.541  14.713  0.1003 -0.6071 -0.0070
18011TIP3    H175524   4.139   5.610  14.775  2.7911 -0.6747 -0.8261
18011TIP3    H275525   4.157   5.462  14.748 -0.6209 -1.2205 -0.5143
18012TIP3   OH275526   0.238   6.135  12.707 -0.5896  1.0735  0.1219
18012TIP3    H175527   0.301   6.204  12.686 -1.6954  1.5738 -1.7126
18012TIP3    H275528   0.186   6.171  12.779  0.8624  0.8356  1.3482
18013TIP3   OH275529   0.707   5.495  11.650  0.2483 -0.4999  0.3234
18013TIP3    H175530   0.753   5.487  11.734  0.3107  2.1278  0.6237
18013TIP3    H275531   0.758   5.441  11.589  1.1567 -1.1231  1.5916
18014TIP3   OH275532   6.550   4.974  13.222 -0.0683  0.0220  0.2301
18014TIP3    H175533   6.579   4.963  13.312 -0.2250  1.1727  0.4405
18014TIP3    H275534   6.478   4.911  13.211  0.1411 -0.3237  0.8102
18015TIP3   OH275535   6.324   6.068  11.009  0.1144  0.5760 -0.1438
18015TIP3    H175536   6.315   6.009  10.935  0.5534  0.2716  0.0463
18015TIP3    H275537   6.361   6.148  10.971  1.0656  0.1521 -0.1301
18016TIP3   OH275538   6.113   0.248  14.723  0.1684 -0.4941 -0.6498
18016TIP3    H175539   6.145   0.314  14.662  2.6946 -1.8436 -0.9388
18016TIP3    H275540   6.117   0.290  14.809 -0.2443  0.3673 -1.0452
18017TIP3   OH275541   6.757   6.040   3.563 -0.2385  0.1523 -0.3332
18017TIP3    H175542   6.719   6.034   3.476  0.0119 -0.9991 -0.3686
18017TIP3    H275543   6.683   6.025   3.622 -0.4818  1.2965 -0.3215
18018TIP3   OH275544   0.693   0.103  12.731  0.0128  0.0588  0.4840
18018TIP3    H175545   0.699   0.196  12.754 -0.6227 -0.3788  2.5407
18018TIP3    H275546   0.777   0.067  12.759 -0.2364 -0.2282  0.8584
18019TIP3   OH275547   3.944   1.821   5.373 -0.1723 -0.1886 -0.0869
18019TIP3    H175548   3.911   1.756   5.311  1.5605 -1.2536  0.0380
18019TIP3    H275549   3.967   1.771   5.451  0.9908  0.5954  0.0939
18020TIP3   OH275550   1.768   5.933  17.139  0.1210 -0.7624 -0.1788
18020TIP3    H175551   1.675   5.953  17.149  0.8714  3.3234  0.6307
18020TIP3    H275552   1.805   5.948  17.225  1.7453 -0.6869 -0.8624
18021TIP3   OH275553   6.046   0.487  13.456 -0.2745 -0.4050  0.8348
18021TIP3    H175554   6.087   0.490  13.370 -0.3063  1.6340  0.8357
18021TIP3    H275555   6.075   0.568  13.499 -2.9461  0.3239  1.4429
18022TIP3   OH275556   5.589   2.852  12.550  0.1571 -0.1386 -0.6064
18022TIP3    H175557   5.652   2.856  12.623 -0.2685 -0.9366 -0.1794
18022TIP3    H275558   5.559   2.942  12.540  0.6052  0.0728 -0.1277
18023TIP3   OH275559   0.717   6.099  16.335  0.2376 -0.2195 -0.0367
18023TIP3    H175560   0.720   6.021  16.280  0.4773  0.9095 -1.6799
18023TIP3    H275561   0.640   6.147  16.305  1.4359  1.3503 -0.7532
18024TIP3   OH275562   1.642   3.628  16.731 -0.9884 -0.3201  0.1765
18024TIP3    H175563   1.645   3.647  16.637 -0.3499  1.6886  0.5498
18024TIP3    H275564   1.649   3.533  16.736 -1.2300 -0.4924 -1.8128
18025TIP3   OH275565   6.785   1.785  11.798 -0.1559  0.7012  0.5247
18025TIP3    H175566   6.797   1.853  11.733  0.7395  0.6312  0.5991
18025TIP3    H275567   6.863   1.791  11.854 -0.5703  0.3049  1.1626
18026TIP3   OH275568   5.001   3.186   3.883  0.0606  0.0000 -0.0869
18026TIP3    H175569   4.932   3.121   3.869  0.8307 -0.6839 -0.8745
18026TIP3    H275570   4.957   3.271   3.873 -0.7201 -0.4102 -0.2352
18027TIP3   OH275571   1.938   1.460  16.549 -0.1626  0.0950 -0.0285
18027TIP3    H175572   1.937   1.386  16.488  0.2065 -0.8746  1.1052
18027TIP3    H275573   2.031   1.482  16.557 -0.3498  1.6709 -1.4630
18028TIP3   OH275574   0.663   1.173   1.757 -0.2452  0.1233  0.3936
18028TIP3    H175575   0.721   1.099   1.777  1.8197  1.1356 -1.4172
18028TIP3    H275576   0.677   1.234   1.830  2.5990  1.1890 -0.8881
18029TIP3   OH275577   2.345   6.775   0.096 -0.5514  0.3755  0.1593
18029TIP3    H175578   2.419   6.718   0.075  0.4949  1.6865  0.1563
18029TIP3    H275579   2.269   6.717   0.094  0.5561 -1.1888  1.0284
18030TIP3   OH275580   2.738   6.300   1.890 -0.2436 -0.4064 -0.0497
18030TIP3    H175581   2.819   6.351   1.891 -0.9697  0.7653  0.7631
18030TIP3    H275582   2.748   6.241   1.815 -0.0430  2.0653 -2.0984
18031TIP3   OH275583   4.707   3.084  12.607  0.3510 -0.1701  0.1437
18031TIP3    H175584   4.801   3.063  12.601 -0.1597 -2.5275 -0.4395
18031TIP3    H275585   4.668   3.008  12.649 -1.4872  0.2277 -0.7485
18032TIP3   OH275586   6.054   3.980   1.261  0.3254  0.1064 -0.2073
18032TIP3    H175587   5.966   3.960   1.229  0.3814  0.1595 -0.3945
18032TIP3    H275588   6.112   3.952   1.191  0.5150 -0.7207  0.2648
18033TIP3   OH275589   2.916   4.407  15.165  0.1374 -0.4649  0.0123
18033TIP3    H175590   2.837   4.459  15.147  0.2869  0.1286  0.9979
18033TIP3    H275591   2.988   4.469  15.153  0.3937 -0.7613  0.0201
18034TIP3   OH275592   3.843   2.292   6.636  0.1315 -0.0097 -0.3534
18034TIP3    H175593   3.792   2.372   6.644 -1.1224 -0.8119  0.1048
18034TIP3    H275594   3.933   2.318   6.654 -0.6693  0.7052  3.4194
18035TIP3   OH275595   2.143   2.306   1.246 -0.0029  0.1193  0.1482
18035TIP3    H175596   2.198   2.382   1.232 -1.4293  0.8826 -1.7827
18035TIP3    H275597   2.162   2.248   1.173 -0.9837 -0.0681  0.0242
18036TIP3   OH275598   6.383   4.933   5.565  0.4806  0.7269 -0.0219
18036TIP3    H175599   6.335   4.855   5.590  0.8039  0.1039 -1.2337
18036TIP3    H275600   6.471   4.921   5.602  0.1609  1.1320  0.8788
18037TIP3   OH275601   5.408   4.475  12.393  0.2153  0.2908 -0.2693
18037TIP3    H175602   5.407   4.451  12.486 -1.8701 -1.6616 -0.6967
18037TIP3    H275603   5.483   4.429  12.357  0.7039  0.6037  0.3336
18038TIP3   OH275604   6.442   4.487   2.074 -0.4773 -0.1040 -0.0354
18038TIP3    H175605   6.409   4.456   2.159 -1.3799 -0.3561 -0.4673
18038TIP3    H275606   6.427   4.414   2.014 -1.4734  0.6943 -0.7902
18039TIP3   OH275607   1.555   4.098  14.958  0.0065  0.0930 -0.1355
18039TIP3    H175608   1.516   4.134  14.879 -0.4726  1.5502  0.7352
18039TIP3    H275609   1.645   4.133  14.959  0.9731 -2.1337 -1.4094
18040TIP3   OH275610   0.997   4.727   0.729  0.1585  0.4922  0.0289
18040TIP3    H175611   1.000   4.690   0.641 -0.5681  1.5760 -0.4628
18040TIP3    H275612   1.085   4.712   0.764  0.6135  0.4998 -1.0663
18041TIP3   OH275613   4.672   2.025   3.728  0.1898 -0.0633 -0.4548
18041TIP3    H175614   4.721   1.950   3.761 -0.6224 -1.0835 -1.4780
18041TIP3    H275615   4.682   2.092   3.796  0.8807 -1.1086  0.5131
18042TIP3   OH275616   1.272   2.004  13.399  0.5086 -0.2890  0.3395
18042TIP3    H175617   1.226   2.086  13.382 -1.1899 -1.1368  0.7018
18042TIP3    H275618   1.272   1.959  13.315 -1.2833 -1.2207  0.7963
18043TIP3   OH275619   5.707   1.599   1.151 -0.3981 -0.1775 -0.3392
18043TIP3    H175620   5.742   1.511   1.162 -1.4370 -0.7865 -1.6176
18043TIP3    H275621   5.707   1.614   1.056  0.7323  1.6267 -0.1126
18044TIP3   OH275622   1.408   1.140   5.655 -0.1629  0.1095 -0.8556
18044TIP3    H175623   1.497   1.153   5.690 -0.6449  0.2964  0.3616
18044TIP3    H275624   1.388   1.222   5.611 -0.3429  0.7300  0.3222
18045TIP3   OH275625   5.911   2.972  13.427 -0.1889 -0.3653 -0.1136
18045TIP3    H175626   5.934   2.900  13.486  3.4240 -0.2256 -1.0643
18045TIP3    H275627   5.934   3.051  13.475 -1.4974  0.0178 -0.0951
18046TIP3   OH275628   3.789   3.967  12.097  0.3829  0.4390 -0.2981
18046TIP3    H175629   3.721   3.910  12.133 -1.7784  1.0314 -3.0412
18046TIP3    H275630   3.762   4.055  12.123 -2.1044  1.0557 -4.1339
18047TIP3   OH275631   0.521   0.768  15.671 -0.2224  0.0848 -0.0289
18047TIP3    H175632   0.528   0.684  15.717 -2.0933  0.5042  1.1434
18047TIP3    H275633   0.572   0.829  15.724  1.1085 -0.2687 -0.8620
18048TIP3   OH275634   3.322   6.494   3.550 -0.1163  0.2074 -0.0947
18048TIP3    H175635   3.373   6.469   3.473 -0.2467 -1.3475  0.2798
18048TIP3    H275636   3.235   6.514   3.516 -0.4139 -1.2985 -0.3028
18049TIP3   OH275637   3.369   5.173  13.134  0.1026 -0.8318  0.1681
18049TIP3    H175638   3.281   5.208  13.150  0.8699  2.0450 -1.2786
18049TIP3    H275639   3.422   5.207  13.206  0.6783  0.3650 -0.7806
18050TIP3   OH275640   3.551   6.700   4.990 -0.5117 -0.5332  0.2541
18050TIP3    H175641   3.544   6.701   4.895 -2.4660 -0.2383  0.3619
18050TIP3    H275642   3.611   6.772   5.010 -1.2764  0.4198 -0.7109
18051TIP3   OH275643   6.390   2.873  11.160  0.5167  0.1651 -0.2141
18051TIP3    H175644   6.411   2.780  11.163  1.1960  0.3134 -0.1737
18051TIP3    H275645   6.359   2.888  11.070  1.3813  0.0900 -0.5408
18052TIP3   OH275646   0.360   1.839   2.352  0.4738  0.7631 -0.4494
18052TIP3    H175647   0.293   1.776   2.326  1.0036  0.6054 -1.4778
18052TIP3    H275648   0.366   1.829   2.447 -0.7603  0.5942 -0.3662
18053TIP3   OH275649   5.917   6.611  17.143 -0.1363  0.0018 -0.5860
18053TIP3    H175650   5.945   6.566  17.063  2.7405  1.0562 -0.2952
18053TIP3    H275651   5.996   6.614  17.197 -0.9361  2.9078  0.5911
18054TIP3   OH275652   4.657   4.251   4.020  0.5281  0.6108  0.0820
18054TIP3    H175653   4.675   4.213   4.107  1.8188  0.9395 -0.0191
18054TIP3    H275654   4.576   4.209   3.992  1.4364 -1.4624  0.3519
18055TIP3   OH275655   3.525   1.284   4.663  0.3934 -0.2231  0.0132
18055TIP3    H175656   3.475   1.246   4.735 -2.4419 -0.4827 -1.9244
18055TIP3    H275657   3.494   1.374   4.657 -0.8095 -0.6965 -1.9058
18056TIP3   OH275658   0.723   2.893   3.475  0.6542  0.3191  0.4972
18056TIP3    H175659   0.732   2.877   3.569 -2.1915  1.4225  1.0773
18056TIP3    H275660   0.780   2.968   3.458  2.0482 -0.5697  1.0490
18057TIP3   OH275661   2.281   3.009  14.679 -0.1141  0.0523  0.1361
18057TIP3    H175662   2.368   3.030  14.644 -0.1048  1.3326  0.8581
18057TIP3    H275663   2.232   3.091  14.671 -0.6015 -0.0679  1.5996
18058TIP3   OH275664   2.714   0.842   1.541  0.6105 -0.3006 -0.4416
18058TIP3    H175665   2.720   0.937   1.532 -0.6708 -0.0468  1.0119
18058TIP3    H275666   2.725   0.826   1.635 -2.2270 -1.2723 -0.1718
18059TIP3   OH275667   4.518   1.437   1.663 -0.3451  0.6615  0.3758
18059TIP3    H175668   4.442   1.495   1.659 -1.2795 -0.5557 -0.1154
18059TIP3    H275669   4.518   1.404   1.753 -1.8263 -1.1207 -0.2124
18060TIP3   OH275670   3.522   0.009   2.777 -1.0415 -0.3851 -0.2327
18060TIP3    H175671   3.462   0.025   2.704 -0.8119 -0.0846 -0.3594
18060TIP3    H275672   3.555  -0.079   2.763 -2.3695 -1.0311  0.4987
18061TIP3   OH275673   2.472   1.628  11.482 -0.5184 -0.0933 -0.5494
18061TIP3    H175674   2.521   1.553  11.517  0.3802  1.1057  0.8575
18061TIP3    H275675   2.463   1.687  11.556 -0.2385  1.6962 -1.8919
18062TIP3   OH275676   6.114   1.619  13.867 -0.1271 -0.0116  0.3450
18062TIP3    H175677   6.091   1.529  13.891 -1.9275  0.0307 -0.9993
18062TIP3    H275678   6.201   1.612  13.828 -0.3606 -1.2192  0.0118
18063TIP3   OH275679   3.419   1.602   3.916  0.0126 -0.7047 -0.3927
18063TIP3    H175680   3.339   1.619   3.866 -0.1801  0.2520  0.2064
18063TIP3    H275681   3.390   1.599   4.007  0.4670 -1.7038 -0.2726
18064TIP3   OH275682   5.682   3.180   0.151 -0.1483 -0.0470  0.1648
18064TIP3    H175683   5.750   3.198   0.217  1.4270  0.7148 -1.5596
18064TIP3    H275684   5.637   3.264   0.141 -0.8060 -0.3318  0.7085
18065TIP3   OH275685   5.022   1.052  14.012  0.2927  0.1441 -0.9654
18065TIP3    H175686   5.095   1.071  14.071 -1.3777  0.0630  1.2682
18065TIP3    H275687   4.984   1.138  13.993 -1.5439 -0.0444  1.4137
18066TIP3   OH275688   6.428   0.153  14.291 -0.7190  0.0336  0.1245
18066TIP3    H175689   6.399   0.112  14.209 -1.2768 -0.2757  0.4717
18066TIP3    H275690   6.394   0.242  14.287 -1.0286 -0.0842  0.1741
18067TIP3   OH275691   1.875   2.672   2.708  0.2186  0.2500 -0.6178
18067TIP3    H175692   1.968   2.665   2.732 -0.2678  0.9177  1.6641
18067TIP3    H275693   1.873   2.741   2.642  1.3917 -0.1646 -1.1227
18068TIP3   OH275694   6.265   5.858  10.844 -0.3623  0.0151  0.0539
18068TIP3    H175695   6.180   5.902  10.844  0.1689  1.1003 -1.0693
18068TIP3    H275696   6.250   5.776  10.798 -0.5127  0.8579 -1.4501
18069TIP3   OH275697   5.987   1.922   4.090  0.1578  0.1382 -0.6474
18069TIP3    H175698   5.984   1.878   4.005 -0.5022  0.6705 -0.9069
18069TIP3    H275699   6.064   1.886   4.133 -0.5111 -1.4647 -0.7465
18070TIP3   OH275700   0.135   6.661   4.758 -0.4830 -1.0309  0.3977
18070TIP3    H175701   0.057   6.619   4.796 -0.7947 -1.1738 -0.3936
18070TIP3    H275702   0.192   6.677   4.834 -0.5112 -2.5534  0.7837
18071TIP3   OH275703   6.249   6.418   5.974  0.2154  0.0872  0.4794
18071TIP3    H175704   6.233   6.475   6.049 -0.0653  0.3695  0.2107
18071TIP3    H275705   6.191   6.344   5.987 -0.6087  0.6345  0.0141
18072TIP3   OH275706   3.572   5.749  14.354 -0.0759 -0.3962  0.4134
18072TIP3    H175707   3.640   5.703  14.305 -0.4879 -1.6042  0.9515
18072TIP3    H275708   3.601   5.840  14.355  1.0317 -0.7269 -0.2100
18073TIP3   OH275709   5.368   3.359   4.862  0.5580  0.0467 -0.2194
18073TIP3    H175710   5.285   3.335   4.820  0.4102  0.2185 -0.0254
18073TIP3    H275711   5.343   3.419   4.932  1.1143  3.5609 -2.7318
18074TIP3   OH275712   6.058   5.474  12.674  0.3257  0.1445 -0.0729
18074TIP3    H175713   6.043   5.554  12.623 -1.8250  1.1267  1.8993
18074TIP3    H275714   6.029   5.497  12.762 -0.1335 -2.7535  0.6220
18075TIP3   OH275715   2.019   3.409  11.831  0.1241  0.0906  0.1487
18075TIP3    H175716   2.015   3.469  11.906  1.9807 -0.8064  1.0356
18075TIP3    H275717   2.070   3.456  11.765 -1.1324  0.7039 -0.4156
18076TIP3   OH275718   0.070   0.491  15.603 -0.1039  0.2678 -0.4082
18076TIP3    H175719   0.129   0.534  15.665  0.1601  1.0119 -1.1562
18076TIP3    H275720  -0.018   0.516  15.632  0.0204  0.7004 -0.3994
18077TIP3   OH275721   6.276   1.530   1.228  0.4768 -1.2602  0.1369
18077TIP3    H175722   6.222   1.578   1.165  0.7385 -0.0458  0.8148
18077TIP3    H275723   6.351   1.499   1.177  0.4964 -0.6211 -0.2307
18078TIP3   OH275724   2.350   0.820   4.971 -0.4785 -0.5386 -0.9693
18078TIP3    H175725   2.350   0.910   4.941 -1.5025  0.0005  0.5222
18078TIP3    H275726   2.438   0.804   5.004 -0.3150 -0.0618 -1.1815
18079TIP3   OH275727   0.864   0.019  14.499  0.2516 -0.4975  0.2736
18079TIP3    H175728   0.945   0.060  14.531 -0.6205  1.0738  0.5566
18079TIP3    H275729   0.803   0.027  14.572 -1.5965  2.6184 -1.3771
18080TIP3   OH275730   3.296   1.646  15.532  0.1372 -0.1264 -0.2899
18080TIP3    H175731   3.273   1.562  15.493 -1.2672  0.3969 -0.6452
18080TIP3    H275732   3.214   1.680  15.568  0.3782  1.6767 -1.2985
18081TIP3   OH275733   1.260   0.557  14.321 -0.9786  0.2510  0.2644
18081TIP3    H175734   1.312   0.480  14.343 -1.2835  0.3344  1.3188
18081TIP3    H275735   1.322   0.630  14.328 -0.5642  0.0775 -1.2219
18082TIP3   OH275736   1.159   3.084  15.280 -0.0961  0.3260 -0.4006
18082TIP3    H175737   1.080   3.045  15.242 -0.1826  0.4911 -0.3926
18082TIP3    H275738   1.195   3.138  15.210 -1.5923  2.5856  0.4799
18083TIP3   OH275739   2.831   4.602  17.044 -0.2150  0.2645 -0.5740
18083TIP3    H175740   2.801   4.596  17.135  1.1524 -2.7717 -0.2093
18083TIP3    H275741   2.758   4.645  16.998 -1.7198  0.2299  1.6148
18084TIP3   OH275742   4.853   5.544   2.323 -0.4725 -0.0805  0.4117
18084TIP3    H175743   4.921   5.492   2.278 -0.5994  0.8530 -0.9056
18084TIP3    H275744   4.893   5.568   2.407  0.2970 -0.7038  0.2387
18085TIP3   OH275745   6.262   1.663   5.732  0.3670 -0.0330  0.0201
18085TIP3    H175746   6.309   1.714   5.667  1.2573 -0.6867  0.1399
18085TIP3    H275747   6.329   1.631   5.792 -0.3987  0.3345  1.1245
18086TIP3   OH275748   4.465   2.075   5.422 -0.0303  0.1774 -0.5207
18086TIP3    H175749   4.502   1.988   5.439 -1.6402 -0.5687 -0.6356
18086TIP3    H275750   4.443   2.073   5.329 -0.8072  0.4060 -0.3469
18087TIP3   OH275751   6.594   4.227   0.512  0.6044  0.2421 -0.1346
18087TIP3    H175752   6.650   4.176   0.570  0.9619  2.0817  1.2274
18087TIP3    H275753   6.654   4.284   0.464  0.1990 -0.4202 -1.4595
18088TIP3   OH275754   3.002   0.745   0.586 -0.3475 -0.1561  0.3012
18088TIP3    H175755   3.079   0.749   0.642 -0.6872  1.4623  0.6806
18088TIP3    H275756   3.036   0.757   0.497 -0.1694  0.7957  0.4906
18089TIP3   OH275757   0.150   4.115  15.800 -0.0772  0.3035 -0.4774
18089TIP3    H175758   0.214   4.047  15.781 -0.5425 -0.0896 -0.6602
18089TIP3    H275759   0.202   4.195  15.811  0.7319 -0.4500  1.9042
18090TIP3   OH275760   5.219   3.662   1.993  0.2657 -0.2618 -0.6001
18090TIP3    H175761   5.201   3.580   1.947 -1.2318  0.7208 -1.8719
18090TIP3    H275762   5.308   3.652   2.026 -0.2561 -2.8027  0.2081
18091TIP3   OH275763   3.561   6.425   5.248 -0.1288  0.5611 -0.4475
18091TIP3    H175764   3.570   6.332   5.270  0.3750  0.5241 -0.7913
18091TIP3    H275765   3.650   6.460   5.255 -0.0648  0.6869 -1.7609
18092TIP3   OH275766   4.985   3.825   5.219 -0.0237  0.2944  0.1215
18092TIP3    H175767   5.046   3.890   5.183  0.5900 -0.2899  0.0924
18092TIP3    H275768   5.024   3.741   5.197  1.3286 -0.1544  3.6440
18093TIP3   OH275769   5.318   3.440  12.143 -0.5405 -0.0234  0.0305
18093TIP3    H175770   5.412   3.440  12.163 -0.1256  2.3441 -1.4823
18093TIP3    H275771   5.282   3.506  12.202 -0.9421  0.2590 -0.5224
18094TIP3   OH275772   3.839   2.091  11.738  0.2447  0.2966  0.5183
18094TIP3    H175773   3.806   2.065  11.824  2.3497 -0.3006  1.1940
18094TIP3    H275774   3.928   2.058  11.735  0.4290  0.8220 -1.6865
18095TIP3   OH275775   4.869   2.541   1.435  0.1993  0.5488 -0.0505
18095TIP3    H175776   4.818   2.535   1.517 -0.7285  0.6031 -0.6066
18095TIP3    H275777   4.935   2.608   1.454 -0.5005  1.1350  0.4187
18096TIP3   OH275778   6.445   5.255  16.740  0.2433  0.5571  0.3091
18096TIP3    H175779   6.414   5.308  16.814  1.0388  1.8699 -0.2699
18096TIP3    H275780   6.488   5.180  16.780  1.7261  1.8590  1.2270
18097TIP3   OH275781   5.194   0.151   3.329 -0.1497  0.3703 -0.3842
18097TIP3    H175782   5.206   0.139   3.234 -1.1992  0.3956 -0.5362
18097TIP3    H275783   5.261   0.214   3.354  0.1783  0.3176 -1.1073
18098TIP3   OH275784   3.392   2.325   1.832  0.6708  0.1268  0.1479
18098TIP3    H175785   3.443   2.249   1.860 -0.0153  0.0394  1.2259
18098TIP3    H275786   3.351   2.298   1.750 -0.5610 -1.1593  1.1424
18099TIP3   OH275787   6.740   5.700   5.697 -0.2617  0.4695  0.1325
18099TIP3    H175788   6.655   5.741   5.682 -0.4861  0.2395  0.7523
18099TIP3    H275789   6.801   5.774   5.704 -0.5765  0.6737  0.7150
18100TIP3   OH275790   4.895   2.382   3.800 -0.1079  0.0083 -0.4170
18100TIP3    H175791   4.846   2.451   3.845 -0.8245 -0.4628 -0.4667
18100TIP3    H275792   4.867   2.388   3.709 -3.6085 -3.1344  0.2306
18101TIP3   OH275793   0.423   6.258   2.253  0.0185 -0.5385  0.0030
18101TIP3    H175794   0.358   6.193   2.280  0.4635 -1.3432 -0.7968
18101TIP3    H275795   0.380   6.307   2.183 -0.2952  0.0143  0.5658
18102TIP3   OH275796   0.419   3.902   4.243  0.4350 -0.2291  0.5612
18102TIP3    H175797   0.389   3.909   4.152  0.3102 -1.0261  0.5253
18102TIP3    H275798   0.425   3.992   4.274  3.3675  0.2757 -1.1538
18103TIP3   OH275799   1.776   3.329  11.711 -0.1405  0.3029 -0.0699
18103TIP3    H175800   1.852   3.377  11.744 -0.7419  1.8101 -0.7810
18103TIP3    H275801   1.704   3.391  11.715 -1.7414 -1.5512  1.9899
18104TIP3   OH275802   5.736   4.931   0.643  0.0026  0.2756 -0.1889
18104TIP3    H175803   5.815   4.967   0.602  1.4531 -1.2115  1.1910
18104TIP3    H275804   5.698   4.875   0.576  1.0316 -0.2538 -0.3568
18105TIP3   OH275805   5.801   2.506  15.132 -0.2779 -0.4924  0.4721
18105TIP3    H175806   5.712   2.477  15.151 -1.2779  2.1396  0.2270
18105TIP3    H275807   5.809   2.496  15.037 -2.0288  3.2678 -0.2384
18106TIP3   OH275808   1.728   0.420  16.819 -0.4156 -0.4685 -0.1642
18106TIP3    H175809   1.784   0.492  16.789 -0.9542 -0.2999 -0.7839
18106TIP3    H275810   1.758   0.401  16.908 -0.7698  1.0217  0.2909
18107TIP3   OH275811   2.792   5.443   2.146 -0.6541  0.7543  0.6370
18107TIP3    H175812   2.790   5.493   2.228 -0.8824  0.5797  0.7410
18107TIP3    H275813   2.865   5.382   2.158 -1.2568  0.1085  1.0888
18108TIP3   OH275814   6.075   4.410  11.640  0.1088  0.8307  0.3070
18108TIP3    H175815   6.113   4.480  11.694  0.3086  0.9042  0.0746
18108TIP3    H275816   6.124   4.415  11.558  1.8669 -1.1446  1.1290
18109TIP3   OH275817   5.387   6.226  15.019  0.5670  0.1226 -0.7737
18109TIP3    H175818   5.400   6.317  15.044  1.7634  0.3099 -1.9787
18109TIP3    H275819   5.296   6.222  14.989 -0.1512  0.4071  1.2492
18110TIP3   OH275820   5.088   0.271  12.725 -0.7639  0.6281 -0.2444
18110TIP3    H175821   5.001   0.234  12.714 -1.4989  1.5290  1.9619
18110TIP3    H275822   5.109   0.255  12.817  1.8285 -0.3957 -0.9191
18111TIP3   OH275823   0.618   0.635  12.321  0.9287 -0.3362  0.1255
18111TIP3    H175824   0.636   0.684  12.401  0.6778  1.1432 -0.6821
18111TIP3    H275825   0.638   0.544  12.343  0.1175 -0.0941  2.1066
18112TIP3   OH275826   5.457   0.653  14.150 -0.6553  0.6334  0.5887
18112TIP3    H175827   5.415   0.591  14.090  0.0759  0.7144 -0.0138
18112TIP3    H275828   5.529   0.690  14.100 -0.7713  1.6035  1.1212
18113TIP3   OH275829   0.415   3.531  14.713 -0.1688 -0.2798 -0.4685
18113TIP3    H175830   0.464   3.467  14.662  1.2805 -1.2048  1.9295
18113TIP3    H275831   0.326   3.527  14.676  0.4140 -2.0131 -1.8636
18114TIP3   OH275832   3.925   6.347  14.823 -0.7526  0.1924  0.0333
18114TIP3    H175833   3.950   6.386  14.907  1.6953 -1.4433  0.1691
18114TIP3    H275834   3.929   6.420  14.761 -1.0368  1.1008  1.0421
18115TIP3   OH275835   4.461   5.808   2.684 -0.3850 -0.0703  0.2170
18115TIP3    H175836   4.367   5.803   2.669 -0.6939  1.1066  1.5168
18115TIP3    H275837   4.499   5.746   2.622 -1.7244  2.1171 -3.1043
18116TIP3   OH275838   4.626   3.663  14.652 -0.6666 -0.4311  0.5971
18116TIP3    H175839   4.596   3.638  14.740 -2.0218 -0.8197  0.0613
18116TIP3    H275840   4.672   3.586  14.619  1.8178  0.4802  1.7709
18117TIP3   OH275841   2.229   1.577   3.916  0.0209 -0.0837 -0.0543
18117TIP3    H175842   2.190   1.504   3.868  1.1489 -1.4006  0.9469
18117TIP3    H275843   2.181   1.654   3.886 -2.7698 -1.4832  0.5016
18118TIP3   OH275844   1.578   5.010   1.805 -0.1927  0.0982 -0.4081
18118TIP3    H175845   1.649   5.070   1.826  0.2711  0.5470 -2.9444
18118TIP3    H275846   1.559   4.965   1.887  1.4208  1.6374  0.8697
18119TIP3   OH275847   4.503   2.673  13.625  0.1593  0.2279 -0.1734
18119TIP3    H175848   4.558   2.601  13.592  2.1600  1.0081  1.3081
18119TIP3    H275849   4.541   2.695  13.710 -1.7814  1.5983  0.3831
18120TIP3   OH275850   2.418   2.982  11.017 -0.6080 -0.0915 -0.5870
18120TIP3    H175851   2.408   2.900  11.066  1.3872  0.4079  0.7734
18120TIP3    H275852   2.331   3.021  11.018 -1.2181 -1.4038  0.2232
18121TIP3   OH275853   2.110   2.206  12.969 -0.2171  0.1072 -0.4562
18121TIP3    H175854   2.163   2.130  12.947 -0.6011 -0.7478  1.3978
18121TIP3    H275855   2.096   2.251  12.885  2.9504  0.0970 -1.1163
18122TIP3   OH275856   2.937   4.599  11.112  0.2448  0.1323 -0.2425
18122TIP3    H175857   2.879   4.675  11.099 -0.2384 -0.1400  0.2935
18122TIP3    H275858   2.907   4.560  11.194  1.2415  0.0308  0.0814
18123TIP3   OH275859   2.946   0.133   0.041 -0.8446  0.1572 -0.0743
18123TIP3    H175860   2.861   0.155   0.003  0.1265  1.9423 -1.3766
18123TIP3    H275861   2.976   0.058  -0.010 -0.3415  1.4311 -1.7433
18124TIP3   OH275862   1.635   6.833  15.189 -0.3478  0.3109  0.4936
18124TIP3    H175863   1.667   6.922  15.172 -0.5873  0.3313  0.1307
18124TIP3    H275864   1.540   6.841  15.181 -0.2734 -0.4753 -2.0350
18125TIP3   OH275865   5.763   1.618  16.632 -0.2298 -0.4171  0.1960
18125TIP3    H175866   5.798   1.697  16.673  1.1795 -1.3133  0.7899
18125TIP3    H275867   5.748   1.558  16.705  1.2006 -1.6168 -0.4507
18126TIP3   OH275868   2.132   5.131   4.058 -0.2373 -0.1660  0.7384
18126TIP3    H175869   2.221   5.111   4.087 -0.1170 -0.0223  0.4755
18126TIP3    H275870   2.107   5.055   4.005 -0.7288 -0.7563  1.8048
18127TIP3   OH275871   1.478   5.851  14.547 -0.5178  0.1699 -0.9750
18127TIP3    H175872   1.536   5.817  14.615 -1.9197 -0.9339 -0.2878
18127TIP3    H275873   1.478   5.946  14.561 -0.5251 -0.0074  0.3610
18128TIP3   OH275874   6.494   5.450  13.091 -0.4398  0.6134 -0.6327
18128TIP3    H175875   6.481   5.545  13.090 -0.1577  0.6705  0.4368
18128TIP3    H275876   6.537   5.431  13.007 -1.3830  1.2865 -1.2895
18129TIP3   OH275877   0.770   5.411  13.153  0.0649 -0.3270 -0.3130
18129TIP3    H175878   0.687   5.375  13.186 -0.7877  0.9899 -0.9402
18129TIP3    H275879   0.744   5.468  13.081  1.4884  0.5697 -0.1506
18130TIP3   OH275880   3.282   4.131  13.642  0.6740  0.1235 -0.3406
18130TIP3    H175881   3.263   4.169  13.727  0.1719 -1.8491  0.5034
18130TIP3    H275882   3.226   4.178  13.581 -0.2228  0.4456  0.7032
18131TIP3   OH275883   3.336   6.645  14.610  0.1289 -0.3254 -0.4338
18131TIP3    H175884   3.330   6.717  14.547 -0.0060 -0.1442 -0.2175
18131TIP3    H275885   3.423   6.608  14.597 -0.1239 -0.6771 -1.1445
18132TIP3   OH275886   6.121   1.851  16.940  0.1197 -0.1236  0.3323
18132TIP3    H175887   6.163   1.811  16.864  0.8886  0.0685  0.6453
18132TIP3    H275888   6.185   1.842  17.010 -0.1613  0.6197  0.6989
18133TIP3   OH275889   0.340   2.754  15.220 -0.8898  0.1680  0.3688
18133TIP3    H175890   0.341   2.769  15.126  0.1317 -0.0751  0.3294
18133TIP3    H275891   0.320   2.661  15.229  1.1731 -0.3335  0.2835
18134TIP3   OH275892   2.541   0.385   1.522 -0.2618 -0.0977 -0.1505
18134TIP3    H175893   2.629   0.418   1.505  0.0416 -0.0342  1.4374
18134TIP3    H275894   2.492   0.461   1.551 -0.3388 -0.4815  0.7473
18135TIP3   OH275895   5.053   3.686  15.326  0.4285 -0.1500 -0.1728
18135TIP3    H175896   5.040   3.739  15.248  0.1370  1.2031  0.7459
18135TIP3    H275897   4.985   3.717  15.387 -0.4205 -2.3145  0.0662
18136TIP3   OH275898   0.932   5.050  14.557  0.0988 -0.5603 -0.4464
18136TIP3    H175899   0.837   5.039  14.555  0.1530 -1.2033  0.2611
18136TIP3    H275900   0.959   5.016  14.642  0.6628  2.0876  0.5338
18137TIP3   OH275901   6.779   3.701   3.425 -0.2069  0.5667 -0.0802
18137TIP3    H175902   6.845   3.717   3.492 -0.3996 -0.6129  0.4112
18137TIP3    H275903   6.809   3.752   3.349 -0.2200  2.2553  1.0004
18138TIP3   OH275904   5.051   1.996   0.736  0.6128  0.3018  0.5034
18138TIP3    H175905   5.060   2.031   0.825 -1.0796  0.6920  0.5512
18138TIP3    H275906   5.099   1.913   0.739  0.7174  0.3790  1.7447
18139TIP3   OH275907   6.147   2.898   0.063  0.1639 -0.5051 -0.4178
18139TIP3    H175908   6.082   2.843   0.019 -0.0272 -0.1237 -0.6103
18139TIP3    H275909   6.108   2.918   0.148 -1.0094  1.6124 -1.3780
18140TIP3   OH275910   5.447   1.605   4.019 -0.2403  0.2879 -0.0374
18140TIP3    H175911   5.366   1.605   3.968  0.4341 -0.6030 -1.1277
18140TIP3    H275912   5.510   1.650   3.964  0.1477  0.5239  0.5945
18141TIP3   OH275913   3.262   4.054   5.330 -0.5588 -0.4756  0.1890
18141TIP3    H175914   3.209   3.978   5.356 -1.5481 -0.0265 -0.4750
18141TIP3    H275915   3.259   4.053   5.234  1.2075 -0.8278  0.1099
18142TIP3   OH275916   3.861   6.020   4.896 -0.2620  0.2582  0.2160
18142TIP3    H175917   3.816   5.947   4.855 -0.2599 -0.4035  1.3439
18142TIP3    H275918   3.954   6.003   4.882 -0.2503 -0.1200  0.7325
18143TIP3   OH275919   0.611   4.460   4.221 -0.2212  0.0288  0.1220
18143TIP3    H175920   0.700   4.439   4.191 -0.2631 -1.0375  0.6934
18143TIP3    H275921   0.557   4.452   4.143  0.3876  2.3593 -0.6310
18144TIP3   OH275922   4.516   2.458   0.154  0.1265  0.5210  0.1881
18144TIP3    H175923   4.429   2.433   0.183  0.5729  0.2016  1.3077
18144TIP3    H275924   4.574   2.428   0.223  1.0920  1.0772 -0.3521
18145TIP3   OH275925   3.439   5.592   3.726 -0.3006  0.4204  0.2143
18145TIP3    H175926   3.442   5.643   3.806  1.8753 -0.7267  0.9494
18145TIP3    H275927   3.408   5.506   3.753  0.3384  0.0591 -0.1618
18146TIP3   OH275928   0.100   1.953   3.073 -0.0940 -0.5563 -0.4844
18146TIP3    H175929   0.084   2.047   3.064 -0.4404 -0.7101 -1.6464
18146TIP3    H275930   0.013   1.913   3.070  0.0045 -0.8850  0.5831
18147TIP3   OH275931   0.757   5.802   1.369  0.4597 -1.3533  0.0533
18147TIP3    H175932   0.793   5.767   1.287 -0.0188 -0.4805 -0.5454
18147TIP3    H275933   0.663   5.800   1.356  0.3183 -2.4818  1.1338
18148TIP3   OH275934   2.030   6.193   0.489 -0.0793  0.2140  0.6613
18148TIP3    H175935   1.992   6.148   0.564  0.3884  1.9883  2.0346
18148TIP3    H275936   2.061   6.277   0.524  0.6777  0.8684 -1.4006
18149TIP3   OH275937   4.604   4.923  14.348 -0.1074  0.4449  0.1996
18149TIP3    H175938   4.515   4.888  14.355  0.4883 -1.7049 -1.7202
18149TIP3    H275939   4.597   4.995  14.286 -0.3783 -0.3788 -0.7499
18150TIP3   OH275940   2.710   5.644  12.052 -0.0331 -0.4233 -0.4165
18150TIP3    H175941   2.708   5.660  11.957  2.1882 -1.3326 -0.6731
18150TIP3    H275942   2.766   5.713  12.087 -2.7976  1.4289  0.6778
18151TIP3   OH275943   1.439   1.141  13.647 -0.1629 -0.5338 -1.3368
18151TIP3    H175944   1.356   1.188  13.639 -0.8110 -1.4069 -0.0146
18151TIP3    H275945   1.451   1.129  13.741  1.3144 -0.6917 -1.5307
18152TIP3   OH275946   5.841   3.979   3.915  0.1477 -0.4686  0.1649
18152TIP3    H175947   5.921   3.943   3.876 -0.4087 -1.7733  0.1651
18152TIP3    H275948   5.785   3.903   3.929 -0.2478  0.1427  2.2088
18153TIP3   OH275949   5.731   3.317  16.948  0.2769 -0.2471  0.2427
18153TIP3    H175950   5.760   3.268  17.025  1.3587 -0.4076 -0.2616
18153TIP3    H275951   5.774   3.402  16.956 -1.6726  0.7138  1.1710
18154TIP3   OH275952   6.246   6.790   2.472 -0.1975 -0.5896  0.6470
18154TIP3    H175953   6.339   6.811   2.474 -0.2390 -0.3648  0.1879
18154TIP3    H275954   6.234   6.739   2.392 -0.5983 -0.0119  0.3369
18155TIP3   OH275955   2.999   5.095  16.247 -0.5045  0.1767 -0.2790
18155TIP3    H175956   3.045   5.150  16.311  0.5010 -1.4771  0.4925
18155TIP3    H275957   3.063   5.083  16.177 -0.8573  0.2887 -0.6212
18156TIP3   OH275958   3.583   3.751  13.562 -0.6227 -0.0247 -0.2594
18156TIP3    H175959   3.656   3.730  13.504 -0.8822  0.8823 -0.9306
18156TIP3    H275960   3.604   3.838  13.597 -1.4008  0.2779 -0.5096
18157TIP3   OH275961   2.449   3.685   6.120  0.2782  0.2102 -0.0863
18157TIP3    H175962   2.435   3.759   6.060  2.9213  0.5626 -0.3764
18157TIP3    H275963   2.453   3.608   6.064 -3.3264 -0.4160  0.2853
18158TIP3   OH275964   5.710   6.668   6.086  0.1205  0.9096 -0.3664
18158TIP3    H175965   5.712   6.629   5.998  0.0641 -1.0912  0.4668
18158TIP3    H275966   5.672   6.601   6.141  2.1896  1.2289  1.6127
18159TIP3   OH275967   0.028   3.873  13.539 -1.0145 -0.3195  0.5876
18159TIP3    H175968   0.001   3.952  13.586  2.1776  0.6389  1.0575
18159TIP3    H275969   0.038   3.807  13.608 -0.9090 -0.2752  0.6166
18160TIP3   OH275970   5.392   0.192  12.808  0.1672 -0.0366  0.7799
18160TIP3    H175971   5.419   0.100  12.809  2.3245  0.5105 -0.5745
18160TIP3    H275972   5.310   0.192  12.758  1.4241 -0.9834 -1.4558
18161TIP3   OH275973   6.713   3.011  14.612  0.8133 -0.0510  0.3021
18161TIP3    H175974   6.807   3.014  14.594  0.9457 -3.2566 -0.0631
18161TIP3    H275975   6.674   3.060  14.540  2.0751 -1.5404 -1.4962
18162TIP3   OH275976   2.085   2.483  14.476  0.2430 -0.0338  0.2880
18162TIP3    H175977   2.124   2.429  14.407  1.0469 -0.1591  0.8262
18162TIP3    H275978   2.085   2.572  14.440  0.4993 -0.1231  0.0624
18163TIP3   OH275979   5.458   0.395  15.049 -0.4370  0.1037 -0.2968
18163TIP3    H175980   5.537   0.341  15.052  0.0835  0.8622  0.1222
18163TIP3    H275981   5.483   0.471  14.996 -1.4380 -0.4694 -1.6615
18164TIP3   OH275982   6.092   5.703   2.200  0.2360  0.0201  0.3164
18164TIP3    H175983   6.138   5.786   2.185  1.1089 -0.3926  0.6231
18164TIP3    H275984   6.161   5.637   2.197 -0.5438 -0.7721 -0.5540
18165TIP3   OH275985   3.498   0.693   6.362  0.4859  1.0023  0.1890
18165TIP3    H175986   3.553   0.757   6.316  2.0398 -0.4044  0.0277
18165TIP3    H275987   3.537   0.608   6.342 -1.7520 -0.0772  0.0883
18166TIP3   OH275988   1.527   1.987  12.051 -0.3302 -0.2100  0.1579
18166TIP3    H175989   1.568   2.015  11.970 -0.8602  0.5882  0.1580
18166TIP3    H275990   1.596   1.941  12.099 -0.3530 -1.9397 -1.3346
18167TIP3   OH275991   6.395   4.910   3.195 -0.4758  0.0521 -0.4905
18167TIP3    H175992   6.467   4.851   3.173 -0.3722  0.8994 -2.6533
18167TIP3    H275993   6.435   4.979   3.247 -0.1408 -0.5447  0.0569
18168TIP3   OH275994   5.812   1.997   2.882  0.0528 -0.0463  0.4176
18168TIP3    H175995   5.878   1.938   2.846 -0.5012 -0.3457 -0.1396
18168TIP3    H275996   5.774   2.040   2.806 -1.1908 -0.7375  0.6286
18169TIP3   OH275997   1.689   5.973   3.165 -0.5539  0.9010  0.0591
18169TIP3    H175998   1.763   5.931   3.209  0.4457  1.9198 -0.5736
18169TIP3    H275999   1.616   5.913   3.178  0.5506 -0.5021  0.1019
18170TIP3   OH276000   0.365   3.631   3.294  0.2535 -0.0329 -0.3076
18170TIP3    H176001   0.337   3.629   3.203  1.5960  1.0460 -0.7826
18170TIP3    H276002   0.309   3.697   3.335  0.7226  0.6643 -0.7657
18171TIP3   OH276003   0.922   1.090  12.412 -0.2714  0.6986  0.1677
18171TIP3    H176004   0.905   1.086  12.506  0.7280 -3.3204  0.3466
18171TIP3    H276005   0.836   1.097  12.372 -1.0126 -0.9964  1.3628
18172TIP3   OH276006   2.936   0.762  16.970 -0.0313 -0.1752  0.2674
18172TIP3    H176007   3.027   0.740  16.948  0.5375  1.4441  0.8870
18172TIP3    H276008   2.937   0.856  16.986 -1.8190 -0.1446  0.3609
18173TIP3   OH276009   2.248   2.308  11.460 -0.0778  0.3391 -0.0662
18173TIP3    H176010   2.232   2.214  11.450  0.2383  0.1916  0.7029
18173TIP3    H276011   2.317   2.328  11.396 -0.5930  0.1836 -0.6737
18174TIP3   OH276012   2.008   3.037   3.455 -0.5456  0.5242 -0.4894
18174TIP3    H176013   2.049   3.106   3.508 -3.0077  2.6161 -1.1143
18174TIP3    H276014   2.080   2.999   3.405  1.2173  1.1826  1.4187
18175TIP3   OH276015   6.363   5.142   0.411 -0.3245  0.1787 -0.1468
18175TIP3    H176016   6.354   5.193   0.491  1.1107 -0.5020  0.4833
18175TIP3    H276017   6.343   5.205   0.341 -4.0534  0.1930  0.7194
18176TIP3   OH276018   4.677   6.270   5.176 -0.3270  0.2766 -0.3221
18176TIP3    H176019   4.651   6.339   5.236  1.0290  1.7592 -1.3595
18176TIP3    H276020   4.689   6.193   5.231  1.3689  1.6950  1.4185
18177TIP3   OH276021   4.393   6.750  14.783 -0.2294 -0.6385 -0.0750
18177TIP3    H176022   4.432   6.829  14.822  1.4037 -1.4540  0.0132
18177TIP3    H276023   4.358   6.779  14.699 -2.2024  0.7620  1.1148
18178TIP3   OH276024   0.789   4.351   2.960 -0.0854  0.4495  0.1473
18178TIP3    H176025   0.822   4.335   3.048 -0.4658 -0.8255  0.0734
18178TIP3    H276026   0.695   4.335   2.966 -0.0890  0.1483 -0.5287
18179TIP3   OH276027   1.236   6.436  14.826  0.0213  0.2994  0.3959
18179TIP3    H176028   1.146   6.468  14.821  0.0554  0.6591  1.7296
18179TIP3    H276029   1.229   6.351  14.871  0.3356  0.2831  0.4168
18180TIP3   OH276030   3.615   6.408   6.082 -0.1745  0.2856 -0.2054
18180TIP3    H176031   3.626   6.313   6.091  2.7073 -0.1581 -4.8880
18180TIP3    H276032   3.523   6.419   6.058  0.0337 -1.8317 -2.4602
18181TIP3   OH276033   0.457   6.584   3.049 -0.1817 -0.2477 -0.0288
18181TIP3    H176034   0.402   6.552   3.121  1.3014  2.1003  2.3157
18181TIP3    H276035   0.513   6.509   3.028 -0.4804 -0.9341  1.4542
18182TIP3   OH276036   3.082   0.369  15.199 -0.3541  0.1330 -0.1676
18182TIP3    H176037   3.096   0.418  15.280 -0.5466  0.1488 -0.1435
18182TIP3    H276038   3.141   0.410  15.135 -1.4932  1.2945 -0.5171
18183TIP3   OH276039   0.731   5.974   1.599 -0.3903  0.4486  0.1955
18183TIP3    H176040   0.790   5.994   1.672 -0.7850 -2.6136  1.4938
18183TIP3    H276041   0.785   5.924   1.537 -1.3563 -1.8731  1.1232
18184TIP3   OH276042   3.105   4.234  12.610 -0.3783  0.1002  0.6003
18184TIP3    H176043   3.054   4.288  12.671 -0.9691 -2.6142  2.7083
18184TIP3    H276044   3.042   4.169  12.578  1.3435 -2.6686  2.4183
18185TIP3   OH276045   3.818   1.369   0.785  0.0054 -0.1863  0.0603
18185TIP3    H176046   3.802   1.392   0.693  0.8950 -0.6200 -0.2145
18185TIP3    H276047   3.887   1.428   0.812  0.5829 -0.8665  0.0875
18186TIP3   OH276048   2.310   4.438   2.913  0.2954  0.3414 -0.5681
18186TIP3    H176049   2.243   4.505   2.904  0.4932  0.6150 -0.0867
18186TIP3    H276050   2.306   4.387   2.832 -0.6499  0.2064 -0.4453
18187TIP3   OH276051   4.796   1.794   2.414 -0.2181  0.2509 -0.0639
18187TIP3    H176052   4.734   1.800   2.487 -0.6584 -0.4754 -0.3660
18187TIP3    H276053   4.744   1.816   2.336 -0.3534 -1.2395 -0.4305
18188TIP3   OH276054   5.132   0.894  14.428  0.0758  0.5532 -0.2480
18188TIP3    H176055   5.091   0.814  14.396  0.1666 -0.0537  1.0702
18188TIP3    H276056   5.076   0.965  14.396 -1.7431 -0.2315  1.0455
18189TIP3   OH276057   1.216   3.948   4.751 -0.3838 -0.3477 -0.7344
18189TIP3    H176058   1.260   3.934   4.667 -0.2067 -1.0081 -0.5399
18189TIP3    H276059   1.286   3.941   4.816 -0.8537 -2.1030 -0.3670
18190TIP3   OH276060   4.802   1.342   4.271 -0.2179  0.3195 -0.6929
18190TIP3    H176061   4.727   1.290   4.243 -0.4419  0.2092  0.0861
18190TIP3    H276062   4.868   1.328   4.203 -0.0502 -1.4572 -0.2123
18191TIP3   OH276063   6.819   0.735   4.823  0.1820  0.2049  0.8949
18191TIP3    H176064   6.814   0.651   4.868 -1.6137 -1.3790 -1.9900
18191TIP3    H276065   6.906   0.736   4.784 -0.4304 -1.2884 -0.6372
18192TIP3   OH276066   4.467   2.825  14.041  0.0127  0.1402  0.4067
18192TIP3    H176067   4.413   2.828  14.120  0.5537 -1.2977  0.8525
18192TIP3    H276068   4.514   2.908  14.042 -2.3531  1.5830 -0.1564
18193TIP3   OH276069   0.773   1.225  16.868  0.3076  0.1655 -0.2960
18193TIP3    H176070   0.679   1.208  16.870  0.0252  0.9379 -2.9057
18193TIP3    H276071   0.808   1.160  16.806  1.2655  0.7733 -0.4163
18194TIP3   OH276072   1.253   6.136   5.037  0.1614  0.3025  0.4416
18194TIP3    H176073   1.255   6.179   4.952  1.5047 -1.6062 -0.5387
18194TIP3    H276074   1.169   6.089   5.038 -0.5984  1.5903  0.8929
18195TIP3   OH276075   1.196   5.154  13.472 -0.3787 -0.2267 -0.1480
18195TIP3    H176076   1.188   5.059  13.482 -1.3872 -0.1168  0.2184
18195TIP3    H276077   1.218   5.185  13.560 -1.3350 -0.0003  0.0128
18196TIP3   OH276078   1.273   5.729   2.108  0.3209  0.8335  0.1350
18196TIP3    H176079   1.274   5.703   2.016  0.1393  0.9763  0.0929
18196TIP3    H276080   1.185   5.762   2.124  0.5038  1.3046  0.2188
18197TIP3   OH276081   4.567   6.345   1.270 -0.2286  0.3103  0.2087
18197TIP3    H176082   4.620   6.424   1.257  0.8766 -0.2167  1.2387
18197TIP3    H276083   4.513   6.365   1.347  1.0557 -0.3821  1.3425
18198TIP3   OH276084   5.966   4.261  12.929 -0.1181 -0.8333  0.1410
18198TIP3    H176085   5.899   4.232  12.868  0.9420 -1.6208 -0.7042
18198TIP3    H276086   6.048   4.225  12.894  0.5987 -0.9016  1.7620
18199TIP3   OH276087   4.518   2.862  13.405  0.2750 -0.4023 -0.6871
18199TIP3    H176088   4.520   2.824  13.493 -0.4449  0.7156 -0.1657
18199TIP3    H276089   4.543   2.953  13.417 -2.8972  0.6463 -1.1085
18200TIP3   OH276090   3.596   5.274   2.693 -0.1578  0.5847  0.1402
18200TIP3    H176091   3.575   5.318   2.776 -1.4037  0.3657 -0.0513
18200TIP3    H276092   3.593   5.181   2.714  0.5921  0.5405  0.0896
18201TIP3   OH276093   5.210   2.851  12.224 -0.1462  0.1446 -0.3627
18201TIP3    H176094   5.146   2.787  12.254  0.0457  0.8774  1.7457
18201TIP3    H276095   5.284   2.798  12.195 -0.7911 -0.6357 -0.6428
18202TIP3   OH276096   6.116   4.843   1.613 -0.0518  0.3936  0.4511
18202TIP3    H176097   6.095   4.779   1.680  1.2434  0.7490  1.2346
18202TIP3    H276098   6.209   4.862   1.626 -0.5678  3.0088  0.7575
18203TIP3   OH276099   0.553   4.993   6.357  0.1961  0.7420  0.1840
18203TIP3    H176100   0.537   4.978   6.450 -1.1563  0.5440 -0.0706
18203TIP3    H276101   0.477   5.042   6.326 -0.5980 -1.2744 -1.3255
18204TIP3   OH276102   2.357   0.382  10.941 -0.2994 -0.1472  0.5247
18204TIP3    H176103   2.429   0.372  10.879 -0.4675  1.2701  0.0654
18204TIP3    H276104   2.310   0.299  10.938  2.1152 -1.7070  1.9048
18205TIP3   OH276105   5.879   2.419   3.084 -0.3312 -0.9229 -0.0381
18205TIP3    H176106   5.832   2.457   3.010 -0.1350  1.2547  0.8638
18205TIP3    H276107   5.845   2.330   3.092 -1.7241 -0.5629 -1.5516
18206TIP3   OH276108   3.181   1.570  14.697 -0.0251  0.4295 -0.9598
18206TIP3    H176109   3.259   1.515  14.696  0.4884  1.0472  0.6656
18206TIP3    H276110   3.206   1.644  14.753 -2.0534  0.2140  0.3175
18207TIP3   OH276111   3.938   4.162   5.028  0.0505  0.7651  0.2900
18207TIP3    H176112   3.979   4.153   5.114  1.9337 -0.2454 -0.6520
18207TIP3    H276113   3.981   4.237   4.988  1.9788 -0.9886 -1.1556
18208TIP3   OH276114   1.232   2.807   0.377 -0.3794 -0.2502 -0.5021
18208TIP3    H176115   1.202   2.722   0.344  0.0330 -1.0675  1.1076
18208TIP3    H276116   1.326   2.796   0.391 -0.4657  0.1900  0.5145
18209TIP3   OH276117   3.922   0.776  11.878  0.4911 -0.1197  0.0835
18209TIP3    H176118   3.991   0.719  11.910  1.7942  0.7073 -1.1599
18209TIP3    H276119   3.871   0.798  11.957  0.4615 -2.2455  0.7178
18210TIP3   OH276120   3.591   3.429  14.199  0.4032  0.4463 -0.0867
18210TIP3    H176121   3.502   3.394  14.206  0.5965  0.1281  1.1802
18210TIP3    H276122   3.627   3.387  14.121 -0.2902 -0.0787 -0.1391
18211TIP3   OH276123   4.125   6.639  13.783 -0.0375  0.2216  0.1595
18211TIP3    H176124   4.121   6.602  13.695  0.0109 -0.0548  0.2714
18211TIP3    H276125   4.182   6.715  13.776  0.7215 -0.3459  0.1444
18212TIP3   OH276126   1.735   3.918  12.146 -0.0163  0.4291  0.4756
18212TIP3    H176127   1.794   3.939  12.074  0.7964  3.3429  1.8447
18212TIP3    H276128   1.782   3.852  12.197  1.4354  1.6026  0.7218
18213TIP3   OH276129   3.130   5.527   2.598  0.2826 -0.0261 -0.6267
18213TIP3    H176130   3.194   5.455   2.599  0.2371 -0.0668 -0.6300
18213TIP3    H276131   3.153   5.580   2.675  1.3506  0.8679 -1.5308
18214TIP3   OH276132   0.703   6.601  12.703 -0.1059 -0.3797 -0.3744
18214TIP3    H176133   0.793   6.627  12.726  0.0828 -1.2111 -0.1385
18214TIP3    H276134   0.713   6.518  12.657 -0.7526 -0.4619 -0.3753
18215TIP3   OH276135   3.990   6.656  14.135  0.2035 -0.1372  0.4221
18215TIP3    H176136   4.081   6.637  14.159  0.2088 -0.8794 -0.1413
18215TIP3    H276137   3.990   6.749  14.113  0.5926  0.1269  1.4581
18216TIP3   OH276138   5.997   5.414   0.500  0.5741  0.0994  0.3039
18216TIP3    H176139   6.091   5.428   0.515  0.5127  2.5430 -1.1075
18216TIP3    H276140   5.989   5.407   0.405 -0.9062  2.5491  0.1636
18217TIP3   OH276141   0.358   0.082  12.641 -0.2707  0.5430 -1.0096
18217TIP3    H176142   0.448   0.050  12.641 -0.5232 -0.2046 -0.9657
18217TIP3    H276143   0.305   0.004  12.659 -0.8630  1.1530  0.0279
18218TIP3   OH276144   2.298   2.008  13.039  0.5148  0.2369  0.0057
18218TIP3    H176145   2.385   2.045  13.054  1.4284 -1.4495 -0.9513
18218TIP3    H276146   2.313   1.928  12.989 -1.8040  1.4840 -2.9950
18219TIP3   OH276147   1.288   3.008  12.735  0.1258  0.0840  0.3441
18219TIP3    H176148   1.367   3.030  12.784 -0.3912 -0.5362  1.4880
18219TIP3    H276149   1.267   3.088  12.686  4.1663 -1.0498 -3.9678
18220TIP3   OH276150   4.834   5.149  10.369  0.0910 -0.2146  0.2434
18220TIP3    H176151   4.877   5.184  10.291 -1.9240  0.5379 -0.5926
18220TIP3    H276152   4.786   5.224  10.406 -0.7581 -1.0781  0.9394
18221TIP3   OH276153   5.818   3.161  12.542 -0.5519  0.0562 -0.1148
18221TIP3    H176154   5.832   3.173  12.636 -0.5764 -0.8369  0.0078
18221TIP3    H276155   5.897   3.198  12.501 -0.1171 -0.3838  0.3087
18222TIP3   OH276156   0.025   3.148  16.514  0.1515  0.0462  0.3229
18222TIP3    H176157  -0.069   3.143  16.530  0.4874  2.0891  4.5657
18222TIP3    H276158   0.064   3.097  16.585  2.1876  1.9400  0.6996
18223TIP3   OH276159   5.977   1.892   3.419  0.2607 -0.1973  0.4061
18223TIP3    H176160   5.946   1.815   3.468  1.3354 -1.2872 -0.5499
18223TIP3    H276161   6.000   1.857   3.333 -2.7316  1.8538 -1.4097
18224TIP3   OH276162   5.063   5.667   4.968  0.3634 -0.2911 -0.0325
18224TIP3    H176163   5.131   5.733   4.983 -0.3727  0.2161  1.3271
18224TIP3    H276164   5.109   5.590   4.936  1.0891  1.3588 -3.4020
18225TIP3   OH276165   6.425   2.821   5.530 -0.6056 -0.0444 -0.0737
18225TIP3    H176166   6.338   2.796   5.500 -0.6331  0.2335 -0.2329
18225TIP3    H276167   6.410   2.894   5.590 -0.5298 -0.4246  0.4202
18226TIP3   OH276168   0.764   6.706  15.449 -0.2179 -0.0605  0.0810
18226TIP3    H176169   0.774   6.797  15.422 -0.4509 -0.0529  0.0134
18226TIP3    H276170   0.787   6.706  15.542  1.7963 -0.3164 -0.3683
18227TIP3   OH276171   2.557   5.113   0.057  0.7470 -0.1701  0.0569
18227TIP3    H176172   2.562   5.207   0.038 -0.1728 -0.4149 -1.6363
18227TIP3    H276173   2.470   5.087   0.025  1.2045 -1.6974 -0.0235
18228TIP3   OH276174   5.919   4.665  12.290 -0.0753  0.1371 -0.3563
18228TIP3    H176175   5.957   4.580  12.269 -1.6395 -0.2645 -1.8066
18228TIP3    H276176   5.944   4.722  12.218  1.1344  1.0184  0.7028
18229TIP3   OH276177   1.500   5.769  14.284 -0.3733  0.0298 -0.2380
18229TIP3    H176178   1.464   5.681  14.296  0.3467 -0.2506 -0.0956
18229TIP3    H276179   1.489   5.811  14.369 -0.0195 -0.1821 -0.0879
18230TIP3   OH276180   1.667   3.425   5.845 -0.0395  0.0899  0.2337
18230TIP3    H176181   1.696   3.457   5.760 -0.8508  0.1685 -0.0255
18230TIP3    H276182   1.653   3.504   5.898 -1.9551  0.2158 -0.3777
18231TIP3   OH276183   4.179   6.245  14.340  0.4885 -0.0059  0.2680
18231TIP3    H176184   4.111   6.178  14.352  1.8850 -1.4774  0.2019
18231TIP3    H276185   4.200   6.242  14.247  1.0630  0.0270  0.3950
18232TIP3   OH276186   4.975   6.015   5.183  0.1874  0.3455  0.5073
18232TIP3    H176187   5.069   6.023   5.167  0.2059  0.2100  0.5470
18232TIP3    H276188   4.961   5.922   5.198 -0.6834 -0.5599 -4.2552
18233TIP3   OH276189   6.759   5.073  13.864  0.0242 -0.0260  0.4659
18233TIP3    H176190   6.694   5.128  13.819 -0.6871 -0.4636  0.9303
18233TIP3    H276191   6.720   4.986  13.866 -0.0964  0.0338  2.1458
18234TIP3   OH276192   3.022   3.288   1.319  0.1633 -0.2952  0.0845
18234TIP3    H176193   3.063   3.373   1.332  0.5674 -0.0862 -2.1701
18234TIP3    H276194   2.932   3.300   1.348  0.5328  0.5277  0.9328
18235TIP3   OH276195   4.339   0.882   0.511 -0.5586 -0.8095  0.0773
18235TIP3    H176196   4.386   0.811   0.469 -0.6694 -0.5046 -0.5823
18235TIP3    H276197   4.265   0.840   0.555  0.7190 -1.3822  1.7649
18236TIP3   OH276198   5.126   4.305  11.948  0.1957  0.2530  0.2293
18236TIP3    H176199   5.035   4.277  11.961  0.1894  1.3763  3.2363
18236TIP3    H276200   5.118   4.387  11.899 -0.2901 -0.2856 -0.6316
18237TIP3   OH276201   3.148   6.407  15.399  0.0901 -0.4158  0.4455
18237TIP3    H176202   3.210   6.364  15.340 -0.3929 -1.7787  0.8840
18237TIP3    H276203   3.070   6.352  15.395 -0.2829 -0.0031  1.6325
18238TIP3   OH276204   5.661   6.096  10.549  0.2325 -0.1296  0.3040
18238TIP3    H176205   5.612   6.172  10.579 -0.2980  0.4517 -1.8839
18238TIP3    H276206   5.594   6.029  10.534  0.2338  0.1505 -1.1439
18239TIP3   OH276207   2.321   4.388  14.344 -0.0072  0.2934 -0.1917
18239TIP3    H176208   2.364   4.462  14.301 -0.8353  0.3081 -1.0373
18239TIP3    H276209   2.290   4.333  14.272  0.5193 -0.8503  0.4242
18240TIP3   OH276210   1.754   3.882  15.048  0.1519 -0.3930  0.3235
18240TIP3    H176211   1.832   3.860  14.997  1.2382  4.2341 -0.4551
18240TIP3    H276212   1.682   3.883  14.985  1.2004  3.6590 -1.1214
18241TIP3   OH276213   6.011   5.226  11.017  0.4076  0.6193  0.1663
18241TIP3    H176214   6.076   5.200  10.952  0.2211  1.3660 -0.3322
18241TIP3    H276215   5.995   5.319  11.000  1.0344  1.0919  1.8632
18242TIP3   OH276216   0.118   0.358  15.381 -0.6373 -0.2142 -0.3524
18242TIP3    H176217   0.109   0.423  15.450 -1.7944 -0.4342 -0.2688
18242TIP3    H276218   0.030   0.351  15.343 -0.3405 -1.1106 -0.9153
18243TIP3   OH276219   5.370   2.632  10.794 -0.5250  0.2701  0.7698
18243TIP3    H176220   5.421   2.646  10.873 -0.8129 -1.1956  1.2513
18243TIP3    H276221   5.435   2.615  10.726 -0.3151  0.0664  1.0214
18244TIP3   OH276222   3.634   2.148  16.072  0.1518 -0.2505  0.1379
18244TIP3    H176223   3.701   2.128  16.137 -1.7038 -1.6315  1.7638
18244TIP3    H276224   3.567   2.197  16.121 -0.7660 -0.2883 -1.0266
18245TIP3   OH276225   3.689   0.851   5.010  0.1849 -0.4525  0.7629
18245TIP3    H176226   3.681   0.852   5.106  0.1181 -0.4539  0.7570
18245TIP3    H276227   3.742   0.928   4.990  0.9060 -0.9114  0.8657
18246TIP3   OH276228   6.393   6.699  13.790  0.5408 -0.2833 -0.2887
18246TIP3    H176229   6.341   6.773  13.822  1.6583  0.6139 -0.4905
18246TIP3    H276230   6.334   6.651  13.732  0.3630  1.5996 -1.7693
18247TIP3   OH276231   5.337   5.554   5.964  0.1875 -0.2215  0.5589
18247TIP3    H176232   5.395   5.605   6.021  0.9382 -2.0362  1.5229
18247TIP3    H276233   5.250   5.566   6.002  0.3929  0.1061  0.9361
18248TIP3   OH276234   5.908   5.262  13.857  0.4108 -0.7574  0.3285
18248TIP3    H176235   5.854   5.301  13.926  1.4987  0.4271  0.5479
18248TIP3    H276236   5.905   5.325  13.785  3.1469  0.4428  1.1247
18249TIP3   OH276237   2.531   6.755   1.950  0.3685 -0.1721 -0.3373
18249TIP3    H176238   2.531   6.722   1.861  0.6515 -1.8857  0.2576
18249TIP3    H276239   2.617   6.796   1.961  0.8379 -1.1091 -0.4595
18250TIP3   OH276240   2.730   1.201  15.190  0.0747 -0.3814  0.1787
18250TIP3    H176241   2.748   1.144  15.115 -0.6360  0.8639 -1.0018
18250TIP3    H276242   2.641   1.177  15.217 -0.4615  0.5213 -0.7037
18251TIP3   OH276243   6.667   5.071  16.515 -0.2399  0.2466  0.1816
18251TIP3    H176244   6.639   5.162  16.512  0.7924  0.5625 -0.6567
18251TIP3    H276245   6.631   5.037  16.597  0.9685  1.9396  1.4696
18252TIP3   OH276246   2.124   1.726  12.971 -0.5375  0.3262  0.1496
18252TIP3    H176247   2.180   1.764  13.038 -0.2460 -0.3885  0.3256
18252TIP3    H276248   2.102   1.799  12.913 -0.0512  0.7649  0.5102
18253TIP3   OH276249   5.951   1.438   4.128  0.2117  0.6556 -0.4026
18253TIP3    H176250   5.963   1.457   4.035  1.7884  0.1147 -0.3447
18253TIP3    H276251   5.926   1.522   4.166  2.4292  1.6158 -0.8906
18254TIP3   OH276252   1.034   6.778   4.462 -0.2209 -0.0690 -0.0582
18254TIP3    H176253   1.034   6.765   4.557  1.5219  0.5501  0.0741
18254TIP3    H276254   0.990   6.862   4.449  0.7837  0.5496  0.3703
18255TIP3   OH276255   5.476   4.148   3.626 -0.3440 -0.0595  0.6422
18255TIP3    H176256   5.419   4.201   3.681  0.5464  0.1888  1.3360
18255TIP3    H276257   5.565   4.176   3.647  0.0757 -0.7899 -0.0579
18256TIP3   OH276258   5.958   3.720   5.193 -0.3801 -0.0565  1.1883
18256TIP3    H176259   5.877   3.770   5.195 -0.4528 -0.1856  1.5269
18256TIP3    H276260   5.930   3.629   5.203 -0.3557 -0.3052 -0.6657
18257TIP3   OH276261   1.053   0.887   0.273 -0.3995  0.7372 -0.3371
18257TIP3    H176262   0.969   0.848   0.251  0.1540  0.0575 -1.3599
18257TIP3    H276263   1.062   0.874   0.367 -0.0119 -2.1990 -0.6693
18258TIP3   OH276264   1.136   6.754   5.083  0.5230 -0.2320  0.0278
18258TIP3    H176265   1.116   6.756   5.177  0.3327 -0.2686 -0.0118
18258TIP3    H276266   1.058   6.791   5.041  0.4747 -0.5162 -0.1367
18259TIP3   OH276267   6.377   2.727   6.177  0.2461  0.8247  0.4205
18259TIP3    H176268   6.381   2.634   6.155  1.5513  1.2302 -1.1860
18259TIP3    H276269   6.377   2.728   6.273  1.2511 -0.8125  0.4871
18260TIP3   OH276270   0.383   1.226   6.648 -0.2174 -0.7048  0.3151
18260TIP3    H176271   0.297   1.267   6.658 -0.1816 -0.9992  2.3622
18260TIP3    H276272   0.435   1.262   6.720  0.8988 -1.6861  0.0330
18261TIP3   OH276273   6.451   0.748  13.195 -0.0605 -0.4580  0.2658
18261TIP3    H176274   6.519   0.680  13.196 -0.5557 -0.9596  0.8567
18261TIP3    H276275   6.439   0.771  13.287 -1.0526 -0.7492  0.2164
18262TIP3   OH276276   5.545   0.653   2.992 -0.0612 -0.3545 -0.1893
18262TIP3    H176277   5.493   0.732   3.004 -1.0605 -1.1254  0.7590
18262TIP3    H276278   5.529   0.626   2.902 -0.8365 -0.2493 -0.0856
18263TIP3   OH276279   5.404   2.445   2.160  0.3478 -0.5862 -0.4975
18263TIP3    H176280   5.342   2.454   2.232  0.7521  2.4963 -0.4319
18263TIP3    H276281   5.350   2.443   2.082  0.0701  2.3009 -0.4564
18264TIP3   OH276282   1.639   0.785   2.027  0.2450  0.1111 -0.3038
18264TIP3    H176283   1.668   0.848   1.961  3.0024  0.1270  0.7920
18264TIP3    H276284   1.585   0.722   1.979  0.2332  1.4257 -2.0775
18265TIP3   OH276285   3.208   4.649  13.361 -0.4333  0.0039 -0.2214
18265TIP3    H176286   3.154   4.608  13.292  1.6554 -0.1426 -1.8596
18265TIP3    H276287   3.237   4.575  13.415 -1.0308 -0.0287  0.0638
18266TIP3   OH276288   2.429   1.591  16.692  0.3240 -0.0573  0.3024
18266TIP3    H176289   2.525   1.588  16.696  0.3296  1.0048  2.1430
18266TIP3    H276290   2.401   1.560  16.778 -1.0108 -0.4069 -0.2336
18267TIP3   OH276291   3.922   2.476  16.984 -0.2563  0.7868 -0.0553
18267TIP3    H176292   3.908   2.407  17.049 -0.7321  0.1557 -0.7978
18267TIP3    H276293   3.978   2.540  17.027  0.9841 -0.5230  0.3490
18268TIP3   OH276294   1.510   5.464   6.488 -0.4740 -0.1181 -0.4403
18268TIP3    H176295   1.432   5.409   6.476 -0.1629 -0.2405 -2.1964
18268TIP3    H276296   1.478   5.554   6.481 -0.5990 -0.1452 -0.2090
18269TIP3   OH276297   6.492   5.826   5.573  0.1790  0.1446 -0.1124
18269TIP3    H176298   6.413   5.873   5.599  1.8310  2.2374  1.4967
18269TIP3    H276299   6.540   5.889   5.518  2.1463  0.1889  1.5324
18270TIP3   OH276300   1.145   3.357  11.997 -0.2630  0.0916  0.1110
18270TIP3    H176301   1.173   3.423  12.061 -0.9760 -0.4745  1.0253
18270TIP3    H276302   1.226   3.329  11.955  0.5953 -1.2015  2.4014
18271TIP3   OH276303   4.796   0.319   6.393  0.0199 -0.4250  0.2097
18271TIP3    H176304   4.728   0.305   6.327  1.8203 -0.6577 -1.7236
18271TIP3    H276305   4.836   0.232   6.405  0.8644 -0.0444  0.2491
18272TIP3   OH276306   2.262   2.636  10.559  0.5151 -0.2474  0.1789
18272TIP3    H176307   2.224   2.551  10.535  0.5318 -1.0807  2.8403
18272TIP3    H276308   2.211   2.700  10.508 -2.5788 -1.5354  1.3960
18273TIP3   OH276309   6.469   4.271  16.339  0.3852  0.9828  0.2923
18273TIP3    H176310   6.484   4.273  16.433  0.2770  1.2257  0.3041
18273TIP3    H276311   6.375   4.287  16.329 -0.7893 -4.0147  0.4491
18274TIP3   OH276312   5.086   4.391  14.293  0.2898 -0.8307  0.5839
18274TIP3    H176313   5.069   4.299  14.308 -1.4094 -0.6964 -0.1867
18274TIP3    H276314   5.033   4.437  14.358 -0.3654 -0.4021 -0.2200
18275TIP3   OH276315   6.352   5.143  11.102  0.3766 -0.2493  0.2888
18275TIP3    H176316   6.376   5.207  11.169  0.0257 -0.5415  0.6947
18275TIP3    H276317   6.395   5.062  11.128  3.1152  0.4399 -1.6772
18276TIP3   OH276318   6.652   5.020  14.193 -0.2323 -0.1156 -0.5432
18276TIP3    H176319   6.654   4.964  14.115  0.9759 -0.0420 -0.5885
18276TIP3    H276320   6.652   4.960  14.267  1.6552 -0.2408 -0.5804
18277TIP3   OH276321   4.221   6.751   5.768 -0.2318  1.3331  0.3606
18277TIP3    H176322   4.193   6.815   5.833 -1.3018 -0.0691  1.3482
18277TIP3    H276323   4.314   6.736   5.788 -0.4759  1.1355  1.3995
18278TIP3   OH276324   1.142   2.866  11.325 -0.2703  0.2977 -0.4385
18278TIP3    H176325   1.107   2.862  11.236 -0.1701  1.8501 -0.5778
18278TIP3    H276326   1.209   2.935  11.322 -0.2038  0.3188  0.8075
18279TIP3   OH276327   1.313   1.802  17.188 -0.5013 -0.4828 -0.4012
18279TIP3    H176328   1.370   1.739  17.143 -0.9670 -1.8477  0.8283
18279TIP3    H276329   1.239   1.749  17.219 -0.1320  0.3248  2.0676
18280TIP3   OH276330   3.868   0.589  12.607 -0.1577 -0.2703  0.0355
18280TIP3    H176331   3.870   0.685  12.609 -2.4285 -0.1666  0.0649
18280TIP3    H276332   3.847   0.563  12.697  0.3271 -0.8032  0.0009
18281TIP3   OH276333   1.279   4.854  14.269 -0.8046 -0.4012  0.5172
18281TIP3    H176334   1.353   4.796  14.249 -0.0201  0.5277  0.6801
18281TIP3    H276335   1.319   4.938  14.292 -1.9446  0.5063 -0.6428
18282TIP3   OH276336   1.487   4.437   1.897  0.5276  0.4122 -0.4226
18282TIP3    H176337   1.490   4.438   1.801 -0.2281 -0.6141 -0.4844
18282TIP3    H276338   1.421   4.503   1.920  0.7371  0.6873 -0.6075
18283TIP3   OH276339   5.361   3.972  12.972 -0.3481 -0.0504 -0.1682
18283TIP3    H176340   5.413   4.011  13.043  1.5829 -1.5176 -0.6868
18283TIP3    H276341   5.404   4.003  12.892 -0.3707 -1.1566 -0.6201
18284TIP3   OH276342   1.438   1.938  11.395  0.5272  0.1092  0.0637
18284TIP3    H176343   1.483   1.857  11.372  0.1077 -0.3048  0.6546
18284TIP3    H276344   1.345   1.915  11.392  0.3369  0.9241 -1.0389
18285TIP3   OH276345   1.923   2.231   5.971 -0.1777 -0.0233  0.1627
18285TIP3    H176346   2.006   2.244   6.016  0.6058 -0.0393 -1.2347
18285TIP3    H276347   1.890   2.148   6.006  0.4952 -0.1212  0.5836
18286TIP3   OH276348   2.617   3.594   0.245 -0.2097 -0.1017  0.2970
18286TIP3    H176349   2.705   3.558   0.248 -0.7555 -1.4293  1.5105
18286TIP3    H276350   2.565   3.526   0.201 -1.0965 -0.4806  1.8747
18287TIP3   OH276351   6.628   4.907   5.728  0.1735 -0.1971 -0.1471
18287TIP3    H176352   6.682   4.981   5.756  0.4055 -0.4394  0.0415
18287TIP3    H276353   6.617   4.854   5.807 -1.1800  0.3679  0.0814
18288TIP3   OH276354   4.046   5.709   1.494  0.1419 -0.3153 -0.0521
18288TIP3    H176355   3.965   5.663   1.517  0.2250 -1.0196 -1.1108
18288TIP3    H276356   4.083   5.658   1.421  0.6098  1.0189 -0.7772
18289TIP3   OH276357   0.329   1.731  12.530 -0.3716 -0.1474  0.0391
18289TIP3    H176358   0.261   1.665  12.543 -1.6062  1.3480  1.6481
18289TIP3    H276359   0.300   1.780  12.452 -0.9198  0.1849  0.4423
18290TIP3   OH276360   1.043   1.267   5.554 -0.0445  0.7179 -0.0734
18290TIP3    H176361   1.121   1.301   5.509 -0.4377  0.5319 -0.9071
18290TIP3    H276362   1.013   1.195   5.499  1.4812 -1.8750  2.2757
18291TIP3   OH276363   4.961   5.418   2.078  0.0028  0.0232 -0.9985
18291TIP3    H176364   4.983   5.456   1.993  0.5039 -1.1379 -1.3974
18291TIP3    H276365   4.886   5.362   2.060  1.5201 -2.0357 -1.1605
18292TIP3   OH276366   4.082   3.517   2.258 -0.0483 -0.0697 -0.2563
18292TIP3    H176367   4.112   3.481   2.174  0.0882 -0.5159 -0.0176
18292TIP3    H276368   4.027   3.591   2.233 -1.7936 -1.4771 -0.8311
18293TIP3   OH276369   1.212   3.786  10.694 -0.1410  0.1706 -0.2756
18293TIP3    H176370   1.265   3.858  10.660 -0.5836  0.9187  0.5727
18293TIP3    H276371   1.221   3.716  10.629  1.6697  0.3568 -0.2681
18294TIP3   OH276372   5.568   6.045   4.926  0.0511 -0.1308 -0.1916
18294TIP3    H176373   5.584   5.951   4.914 -1.0075 -0.0793 -2.2921
18294TIP3    H276374   5.492   6.064   4.871  0.8736  2.1787 -0.6142
18295TIP3   OH276375   5.271   2.644   4.903 -0.2905  0.8557  0.1068
18295TIP3    H176376   5.282   2.705   4.829 -1.9369  0.2327 -0.7084
18295TIP3    H276377   5.360   2.616   4.924  0.2792  1.5123 -1.2656
18296TIP3   OH276378   2.588   1.674  11.238  0.1545 -0.3686 -0.2232
18296TIP3    H176379   2.553   1.686  11.326  2.0143  0.5035  0.4582
18296TIP3    H276380   2.663   1.615  11.250  1.5787  1.2336 -0.8766
18297TIP3   OH276381   5.544   4.217  15.288 -0.2035 -0.1310  0.7510
18297TIP3    H176382   5.591   4.292  15.324  1.7847 -0.5573 -0.7795
18297TIP3    H276383   5.499   4.253  15.211  1.2602 -0.5760 -0.3511
18298TIP3   OH276384   6.329   3.747  10.901  0.0630  0.1448  0.0733
18298TIP3    H176385   6.268   3.720  10.833  0.5364  0.7118 -0.5901
18298TIP3    H276386   6.398   3.794  10.854  1.4002 -1.1218  0.7188
18299TIP3   OH276387   0.977   6.720  15.035  0.1294  0.2321  0.1743
18299TIP3    H176388   0.961   6.813  15.043 -0.0697  0.1074  1.4208
18299TIP3    H276389   0.894   6.683  15.006  0.0007  0.3577  0.3806
18300TIP3   OH276390   2.695   1.965  10.494  0.0521  0.1418 -0.1626
18300TIP3    H176391   2.618   2.001  10.450 -0.1447  0.7758  0.6783
18300TIP3    H276392   2.681   1.870  10.492  0.0555  0.1498 -1.4519
18301TIP3   OH276393   0.007   4.036  11.315 -0.5448 -0.2046 -0.0507
18301TIP3    H176394   0.063   4.080  11.251 -0.4117  0.5673  0.5892
18301TIP3    H276395  -0.075   4.021  11.268 -0.0632 -0.6930 -0.7660
18302TIP3   OH276396   5.766   5.338   0.278 -0.2671  0.9184 -0.6951
18302TIP3    H176397   5.707   5.275   0.236  0.0682 -0.0075  0.1793
18302TIP3    H276398   5.843   5.340   0.221 -1.1241  2.1387 -1.8436
18303TIP3   OH276399   1.910   1.028   3.675 -0.0221  0.8486  0.4277
18303TIP3    H176400   1.841   0.980   3.722 -0.3707  2.8903  2.1245
18303TIP3    H276401   1.909   0.990   3.587 -2.1920 -0.2830  0.8690
18304TIP3   OH276402   1.058   0.190  15.699  0.0832  0.1608 -0.0318
18304TIP3    H176403   1.059   0.139  15.618  0.0957  0.7051 -0.3799
18304TIP3    H276404   1.118   0.263  15.682  1.3022 -0.5503  1.0173
18305TIP3   OH276405   0.211   0.383   2.672 -0.1601 -0.1525  0.0235
18305TIP3    H176406   0.293   0.424   2.697 -0.2520  0.3054 -0.4059
18305TIP3    H276407   0.206   0.303   2.724  0.6288 -0.2599 -0.0658
18306TIP3   OH276408   4.689   1.702  11.749 -0.8725 -0.7547  0.6139
18306TIP3    H176409   4.595   1.686  11.763 -0.8928 -1.5862 -0.3729
18306TIP3    H276410   4.700   1.700  11.654 -0.2752  1.9276  0.5467
18307TIP3   OH276411   5.464   0.422   6.739 -0.2062  0.5460  0.0302
18307TIP3    H176412   5.398   0.488   6.762  0.2834  0.2441  2.6463
18307TIP3    H276413   5.475   0.371   6.819  1.0806 -1.3027 -1.2460
18308TIP3   OH276414   5.629   6.608   0.977 -0.2378 -0.1855 -1.0974
18308TIP3    H176415   5.637   6.513   0.981 -1.7318 -0.3386 -1.0731
18308TIP3    H276416   5.642   6.636   1.068  1.6043 -0.1980 -1.3172
18309TIP3   OH276417   5.102   2.138   1.566  0.0871  0.4462 -0.6439
18309TIP3    H176418   5.193   2.114   1.580  0.1141  0.8775 -0.0344
18309TIP3    H276419   5.060   2.128   1.651 -1.0114 -2.0348 -1.3978
18310TIP3   OH276420   2.494   1.336  11.099  0.1440  0.1805  0.5760
18310TIP3    H176421   2.449   1.381  11.171 -2.0642 -0.7661 -0.1034
18310TIP3    H276422   2.481   1.394  11.024  0.2304 -0.0071  0.4151
18311TIP3   OH276423   0.579   5.241  13.274 -0.3643  0.3120  0.3105
18311TIP3    H176424   0.586   5.296  13.352 -0.0971 -0.9472  1.2226
18311TIP3    H276425   0.573   5.151  13.309 -0.3038 -0.2741 -1.1171
18312TIP3   OH276426   3.048   4.572   0.975  0.1175 -0.4075 -0.0543
18312TIP3    H176427   3.092   4.619   1.046  2.0760 -1.5563 -0.4466
18312TIP3    H276428   3.065   4.480   0.993 -1.5027 -0.8701 -0.6919
18313TIP3   OH276429   5.705   5.151  12.423 -0.2734 -0.1863  0.3617
18313TIP3    H176430   5.790   5.165  12.466 -0.6708 -1.7982  1.8086
18313TIP3    H276431   5.645   5.132  12.495 -1.2346 -1.8869 -0.8043
18314TIP3   OH276432   3.893   5.183  13.477 -0.2277 -0.1261  0.2744
18314TIP3    H176433   3.827   5.219  13.537 -0.4254  1.5786 -0.8828
18314TIP3    H276434   3.842   5.130  13.415 -0.3470  0.0818  0.1914
18315TIP3   OH276435   4.002   6.591   1.474 -0.3083  0.2596  0.0987
18315TIP3    H176436   4.014   6.685   1.458 -1.2692  0.2503 -0.7335
18315TIP3    H276437   4.085   6.552   1.447  0.7724  1.0100  2.0697
18316TIP3   OH276438   0.439   3.753  10.616  0.0218 -0.1836 -0.1549
18316TIP3    H176439   0.389   3.704  10.682  0.8580  1.7877  2.1241
18316TIP3    H276440   0.402   3.841  10.620  1.4950  0.4982 -0.7797
18317TIP3   OH276441   6.207   6.698  12.426  0.3265 -0.1761  0.0668
18317TIP3    H176442   6.214   6.697  12.331  1.0550  1.8595  0.0593
18317TIP3    H276443   6.149   6.625  12.447 -0.0904 -0.4609 -1.9455
18318TIP3   OH276444   3.625   1.276  15.463 -0.1891  0.0669 -0.2462
18318TIP3    H176445   3.600   1.303  15.375  1.7880 -1.2636 -1.3041
18318TIP3    H276446   3.689   1.342  15.491  0.3136 -0.3246 -0.4519
18319TIP3   OH276447   3.818   4.664   0.725 -0.1202 -0.0107 -0.1802
18319TIP3    H176448   3.810   4.571   0.744  0.7899 -0.0988 -0.1460
18319TIP3    H276449   3.739   4.704   0.761 -0.1019 -0.6529  0.5912
18320TIP3   OH276450   6.552   0.083  11.261 -0.1551  0.3753  0.1061
18320TIP3    H176451   6.615   0.155  11.255  1.4102 -0.9495  0.0583
18320TIP3    H276452   6.586   0.017  11.201 -1.8061 -0.2626 -0.1868
18321TIP3   OH276453   0.003   3.728  16.861 -0.2142  0.7779  0.6806
18321TIP3    H176454  -0.015   3.762  16.773  1.4742  1.1092  0.4308
18321TIP3    H276455   0.058   3.795  16.901  1.4508 -0.6963  0.9309
18322TIP3   OH276456   1.383   3.077   2.459 -0.3147  0.1102 -0.3253
18322TIP3    H176457   1.393   3.154   2.515  1.6932 -0.4002  0.1190
18322TIP3    H276458   1.407   3.003   2.515 -1.0385 -0.7250 -1.0814
18323TIP3   OH276459   0.612   2.253   0.881  0.5988  0.4126 -0.0028
18323TIP3    H176460   0.672   2.286   0.814  1.2483 -0.1427  0.2937
18323TIP3    H276461   0.532   2.304   0.869  0.9097  0.7218 -0.8205
18324TIP3   OH276462   4.878   0.017  14.293 -0.2902 -0.0331 -0.0455
18324TIP3    H176463   4.855   0.109  14.286  2.8399  0.8696  0.0275
18324TIP3    H276464   4.961   0.009  14.246 -0.1075 -2.6588  0.5690
18325TIP3   OH276465   2.031   1.419  17.087  0.4909 -0.0207  0.0557
18325TIP3    H176466   2.065   1.452  17.170 -2.3300  1.3197  0.8064
18325TIP3    H276467   1.939   1.398  17.106  0.1592 -1.0427 -2.3761
18326TIP3   OH276468   4.365   0.638  12.286  0.0337  0.3081 -0.5262
18326TIP3    H176469   4.433   0.642  12.219 -0.7011 -1.0261 -1.4093
18326TIP3    H276470   4.404   0.679  12.363  0.8406  2.0738 -1.8015
18327TIP3   OH276471   0.728   3.412  13.986  0.0511  0.0377  0.0329
18327TIP3    H176472   0.779   3.332  13.974  1.2392  0.5575  1.3813
18327TIP3    H276473   0.719   3.421  14.080  0.2616  1.6979 -0.0828
18328TIP3   OH276474   3.690   4.305  14.004  0.2601 -0.0079 -0.1438
18328TIP3    H176475   3.719   4.244  14.073 -0.6437 -1.6806 -1.1821
18328TIP3    H276476   3.611   4.346  14.040  0.2308 -0.2909  0.1216
18329TIP3   OH276477   5.240   1.730   1.219  0.1383 -0.5461 -0.4055
18329TIP3    H176478   5.292   1.656   1.250 -0.8938 -1.1448 -0.0521
18329TIP3    H276479   5.224   1.783   1.297  1.5272  0.5002 -0.7878
18330TIP3   OH276480   0.920   6.656   2.719 -0.2997 -0.2465  0.5265
18330TIP3    H176481   0.835   6.663   2.676 -0.5035 -0.6759  0.8548
18330TIP3    H276482   0.900   6.652   2.812 -0.0359 -1.9757  0.5444
18331TIP3   OH276483   2.099   4.603   3.818 -0.5421  0.7840 -0.0809
18331TIP3    H176484   2.172   4.541   3.817 -1.6458 -0.5800 -0.7725
18331TIP3    H276485   2.093   4.631   3.909  0.9106  1.0423 -0.0380
18332TIP3   OH276486   2.233   3.735  12.429 -0.0033  0.0598 -0.1150
18332TIP3    H176487   2.165   3.668  12.422 -0.9568  0.9473  0.3787
18332TIP3    H276488   2.203   3.806  12.372  2.2295 -0.8755 -2.6504
18333TIP3   OH276489   0.396   5.055  16.618  0.0202  0.7084 -0.0255
18333TIP3    H176490   0.337   5.060  16.693  2.2699 -1.2319  2.0644
18333TIP3    H276491   0.369   4.975  16.573 -0.8028  1.4306 -0.8435
18334TIP3   OH276492   1.569   1.975   4.904  0.4357  0.0707  0.0531
18334TIP3    H176493   1.630   2.029   4.854  1.6488 -1.0243  0.3057
18334TIP3    H276494   1.524   2.038   4.961 -0.6084  1.2639 -1.9724
18335TIP3   OH276495   0.960   5.593  15.473 -0.0105  0.0752 -0.0432
18335TIP3    H176496   0.937   5.521  15.414 -0.6438  0.0514  0.2287
18335TIP3    H276497   0.959   5.671  15.418  0.5421 -0.1051 -0.3101
18336TIP3   OH276498   6.606   0.423  13.388  0.3213 -0.0477 -0.1121
18336TIP3    H176499   6.556   0.452  13.464 -1.5552 -0.9387 -0.9508
18336TIP3    H276500   6.560   0.460  13.312  0.7400 -1.1328 -0.9277
18337TIP3   OH276501   5.509   3.623   0.216  0.3503 -0.2975  0.2449
18337TIP3    H176502   5.558   3.558   0.167  4.0699  1.5700  1.1308
18337TIP3    H276503   5.516   3.703   0.163  1.0668  0.7973  1.9191
18338TIP3   OH276504   0.466   4.469   1.812 -0.4405  0.3563  0.2671
18338TIP3    H176505   0.409   4.445   1.740 -0.9080  0.4868  0.5870
18338TIP3    H276506   0.497   4.557   1.790  0.1558  0.0283 -0.2210
18339TIP3   OH276507   4.433   1.170   2.090  0.4347  0.0796 -0.1220
18339TIP3    H176508   4.447   1.207   2.177 -1.4110  0.8755 -0.1042
18339TIP3    H276509   4.451   1.077   2.100  0.7560  0.2493  0.9844
18340TIP3   OH276510   1.673   6.035   2.884  0.3171  0.1293  0.2996
18340TIP3    H176511   1.682   6.020   2.978  1.0818  0.3442  0.2602
18340TIP3    H276512   1.600   6.097   2.876 -0.7869 -1.0670  0.6480
18341TIP3   OH276513   2.617   5.524  10.982  0.0014  0.8991 -0.1793
18341TIP3    H176514   2.666   5.539  10.901  1.1728  0.1717  0.3609
18341TIP3    H276515   2.681   5.542  11.052  0.3134 -2.4150  0.5454
18342TIP3   OH276516   3.535   2.255   4.136 -0.4648  0.2841 -0.7795
18342TIP3    H176517   3.528   2.350   4.145 -0.9505  0.1913 -0.0001
18342TIP3    H276518   3.583   2.228   4.215 -1.6889 -0.2568 -0.2010
18343TIP3   OH276519   3.124   0.315  14.662 -0.2002 -0.2683 -0.1412
18343TIP3    H176520   3.198   0.373  14.646  1.0379 -1.3733  1.2679
18343TIP3    H276521   3.048   0.364  14.630  1.1087  0.9242 -1.5749
18344TIP3   OH276522   1.754   1.419  12.398  0.2436 -0.1877 -0.2976
18344TIP3    H176523   1.707   1.470  12.333  0.6777 -2.0213 -2.1701
18344TIP3    H276524   1.846   1.421  12.369  0.6497 -0.0895  0.9215
18345TIP3   OH276525   2.833   1.358   2.834 -0.8364  0.6066 -0.0857
18345TIP3    H176526   2.763   1.367   2.898 -0.4399  0.0968  0.4246
18345TIP3    H276527   2.876   1.444   2.833  0.3107  0.0892  1.6969
18346TIP3   OH276528   4.100   6.643  11.365 -0.0600  0.1984  0.0175
18346TIP3    H176529   4.065   6.711  11.421 -0.6918  0.2890 -0.4810
18346TIP3    H276530   4.054   6.563  11.393 -0.5387  0.2841 -0.5125
18347TIP3   OH276531   0.074   1.993   4.028  0.3590 -0.2369  0.7515
18347TIP3    H176532   0.154   2.023   3.984 -0.6066 -0.2197 -1.1063
18347TIP3    H276533   0.006   2.054   3.999 -0.8182 -1.7108  0.2453
18348TIP3   OH276534   2.330   1.125   2.983  0.2658  0.2537 -0.1389
18348TIP3    H176535   2.252   1.071   2.980 -0.3823  1.2032 -0.8058
18348TIP3    H276536   2.392   1.083   2.923 -0.1107  0.0686 -0.3968
18349TIP3   OH276537   1.637   0.462   3.696  0.4426  0.6348 -0.6295
18349TIP3    H176538   1.710   0.511   3.734 -1.1753  1.2915  1.9236
18349TIP3    H276539   1.618   0.394   3.761  0.0322 -0.7799 -2.1815
18350TIP3   OH276540   1.818   1.264   5.160  0.1813 -0.1404 -0.2710
18350TIP3    H176541   1.868   1.191   5.126  1.1491  0.4822 -0.2068
18350TIP3    H276542   1.743   1.271   5.101 -0.0996 -1.3704 -0.0896
18351TIP3   OH276543   0.942   2.752  14.151 -0.1330  0.0707  0.3890
18351TIP3    H176544   0.997   2.741  14.074 -0.1972  2.9904 -0.2132
18351TIP3    H276545   0.854   2.728  14.121 -0.3899  2.3608 -0.9484
18352TIP3   OH276546   0.063   3.041   6.614 -0.7256 -0.3430  0.4731
18352TIP3    H176547   0.130   3.108   6.627 -0.4322 -0.1029 -1.8413
18352TIP3    H276548  -0.009   3.086   6.572 -1.9035 -0.8580  1.8518
18353TIP3   OH276549   1.788   1.668  13.063  0.1409 -0.0800  0.8628
18353TIP3    H176550   1.824   1.581  13.047  0.9052 -0.0162  2.0880
18353TIP3    H276551   1.864   1.726  13.065 -0.2502  0.4316  1.1353
18354TIP3   OH276552   0.015   4.287  12.149 -0.2181  0.1933  0.1938
18354TIP3    H176553  -0.020   4.238  12.224 -0.3527 -0.7063 -0.4509
18354TIP3    H276554   0.065   4.358  12.189 -2.7679  1.5685  1.1651
18355TIP3   OH276555   0.794   1.319  15.609 -0.5230 -0.0832  0.4013
18355TIP3    H176556   0.810   1.279  15.694  1.3969 -1.8264 -0.6674
18355TIP3    H276557   0.823   1.409  15.618  0.2806 -0.4274  1.4325
18356TIP3   OH276558   6.653   1.225  11.986 -0.1243  0.3683  0.4698
18356TIP3    H176559   6.632   1.267  12.070 -0.4932  0.4025  0.3607
18356TIP3    H276560   6.571   1.228  11.936  0.2341  0.8499 -0.1065
18357TIP3   OH276561   3.405   5.887   0.898 -0.1568 -0.3860  0.4018
18357TIP3    H176562   3.484   5.850   0.939  0.6494 -0.4761 -1.1519
18357TIP3    H276563   3.392   5.971   0.943  2.3915  0.8882 -0.9949
18358TIP3   OH276564   6.166   5.979   3.389  0.7873  0.1346 -0.0074
18358TIP3    H176565   6.245   5.989   3.336 -0.9110 -0.3417 -2.7976
18358TIP3    H276566   6.103   6.040   3.351 -1.4765 -2.3879 -0.6206
18359TIP3   OH276567   0.098   0.360  11.284 -0.0825 -0.5197  0.4113
18359TIP3    H176568   0.059   0.338  11.199  0.0166 -1.2418  0.5484
18359TIP3    H276569   0.094   0.278  11.334  0.3866 -0.2484  0.8990
18360TIP3   OH276570   3.071   3.570   0.532 -0.0286 -0.1878 -0.5358
18360TIP3    H176571   3.002   3.606   0.477 -1.4053  0.3592  1.4621
18360TIP3    H276572   3.050   3.477   0.541 -0.8780  0.0967  0.5561
18361TIP3   OH276573   0.745   3.908   2.720 -0.6709 -0.3931 -0.1223
18361TIP3    H176574   0.805   3.855   2.667 -1.2791 -1.0993 -0.1240
18361TIP3    H276575   0.801   3.975   2.760 -0.0691 -0.3809 -0.9700
18362TIP3   OH276576   0.699   3.540   4.842 -0.4907 -0.4136 -0.3101
18362TIP3    H176577   0.673   3.528   4.933  1.1349  0.0777  0.2366
18362TIP3    H276578   0.654   3.619   4.814  1.0524  0.9712  0.9169
18363TIP3   OH276579   3.927   5.215   3.173 -0.0589  0.5844  0.0105
18363TIP3    H176580   3.998   5.232   3.112  1.0267 -1.0792  0.7083
18363TIP3    H276581   3.904   5.123   3.158 -1.1944  0.7446  0.6559
18364TIP3   OH276582   1.320   1.817  14.176 -0.1191  0.2758  0.1918
18364TIP3    H176583   1.364   1.785  14.097 -0.6441 -1.5135  0.5704
18364TIP3    H276584   1.388   1.817  14.243  0.2737  1.5785 -0.1913
18365TIP3   OH276585   6.660   1.756  12.486  0.2362 -0.7545 -0.1826
18365TIP3    H176586   6.711   1.787  12.412  0.4874 -0.8023 -0.0333
18365TIP3    H276587   6.569   1.755  12.455  0.2715 -0.2306 -0.3022
18366TIP3   OH276588   0.824   5.223  15.321  0.5167 -0.3189  0.0985
18366TIP3    H176589   0.794   5.143  15.365  0.4225 -1.8480 -2.5308
18366TIP3    H276590   0.879   5.192  15.249  1.7562  2.0923 -0.1078
18367TIP3   OH276591   6.331   0.724  12.617  0.6282 -0.1193  0.1414
18367TIP3    H176592   6.261   0.737  12.682  0.7033  0.0847  0.1824
18367TIP3    H276593   6.331   0.629  12.601 -0.1045 -0.0376 -0.3648
18368TIP3   OH276594   4.613   6.534  13.928 -0.0332 -1.1002  0.2561
18368TIP3    H176595   4.566   6.542  13.844 -1.1134  1.6605  0.9967
18368TIP3    H276596   4.696   6.579  13.913 -0.7884  0.6293  0.9578
18369TIP3   OH276597   6.040   6.118   0.948  0.2891 -0.0357  0.3946
18369TIP3    H176598   6.122   6.120   0.897 -0.5889  1.8177 -1.0535
18369TIP3    H276599   5.977   6.077   0.889 -0.9117  2.7482 -0.4234
18370TIP3   OH276600   5.601   3.788   3.714 -0.4947 -0.0459  0.5301
18370TIP3    H176601   5.666   3.851   3.683 -0.8905 -0.1954 -0.6754
18370TIP3    H276602   5.554   3.833   3.784  0.1434  0.4782  0.6268
18371TIP3   OH276603   5.413   1.726   4.272  0.1286  0.6041 -0.4715
18371TIP3    H176604   5.428   1.666   4.199  0.2264  1.0162 -0.7938
18371TIP3    H276605   5.476   1.699   4.339 -2.5334 -2.3173  1.0794
18372TIP3   OH276606   4.567   3.726   6.378 -0.8461  0.2301 -0.1705
18372TIP3    H176607   4.624   3.764   6.445  1.7976 -1.4043 -1.3656
18372TIP3    H276608   4.561   3.794   6.311  2.6741 -0.6792 -1.6282
18373TIP3   OH276609   2.366   2.672  12.249 -0.5799  0.3231  0.8458
18373TIP3    H176610   2.323   2.646  12.330 -2.0856 -1.0294 -0.3390
18373TIP3    H276611   2.439   2.611  12.240  0.2477  1.1493  1.6761
18374TIP3   OH276612   3.409   1.381   0.222 -0.2305  0.3756 -0.2432
18374TIP3    H176613   3.473   1.356   0.290 -1.1530 -1.3601  0.0388
18374TIP3    H276614   3.330   1.333   0.246 -1.5544  2.2101 -0.7922
18375TIP3   OH276615   3.318   3.321   3.578  0.0569 -0.2724  0.5770
18375TIP3    H176616   3.383   3.256   3.606 -0.0795 -0.2169  1.0454
18375TIP3    H276617   3.251   3.269   3.533 -0.2890 -0.5391  1.3649
18376TIP3   OH276618   1.341   5.120   4.657 -0.3533 -0.0906  0.8954
18376TIP3    H176619   1.327   5.106   4.563 -1.5377  1.5878  0.7585
18376TIP3    H276620   1.424   5.167   4.662 -0.8709  0.9087  0.5338
18377TIP3   OH276621   6.262   1.154  13.046  0.3012 -0.2387 -0.1632
18377TIP3    H176622   6.174   1.185  13.064  0.5102 -0.9003  2.5696
18377TIP3    H276623   6.259   1.120  12.957 -1.8481  0.8674 -0.5601
18378TIP3   OH276624   0.253   3.010   2.923  0.2758 -0.0044 -0.4749
18378TIP3    H176625   0.325   2.956   2.889 -0.6127 -0.0896 -2.3515
18378TIP3    H276626   0.215   2.957   2.993 -1.2108 -2.4758 -2.8871
18379TIP3   OH276627   6.527   4.568  15.519  0.0272 -0.4107  0.2320
18379TIP3    H176628   6.534   4.497  15.582 -0.3020 -0.4154  0.2608
18379TIP3    H276629   6.596   4.630  15.545  0.0781 -0.5463  0.4212
18380TIP3   OH276630   2.019   5.367  15.684 -0.2683  0.6095  0.5446
18380TIP3    H176631   2.004   5.274  15.700  0.1523 -0.0595 -2.3824
18380TIP3    H276632   1.957   5.389  15.614  0.4574  2.2295  0.3757
18381TIP3   OH276633   3.403   0.903   0.955 -0.1925 -0.5025 -0.1263
18381TIP3    H176634   3.450   0.956   0.891 -2.3158 -0.4538 -1.7447
18381TIP3    H276635   3.456   0.824   0.964  0.5560 -0.1735 -1.3678
18382TIP3   OH276636   0.125   3.821   0.823  0.3675  0.1678  0.4751
18382TIP3    H176637   0.209   3.799   0.864  1.3176 -0.9469 -1.8501
18382TIP3    H276638   0.147   3.883   0.754 -0.8699  0.5357  0.3801
18383TIP3   OH276639   6.162   4.033  14.928  0.2206  0.3705 -0.1901
18383TIP3    H176640   6.243   4.084  14.916  1.9016 -2.0174  0.2368
18383TIP3    H276641   6.101   4.094  14.969  0.6678  3.2062 -3.3386
18384TIP3   OH276642   3.382   4.302  14.659  0.2575 -0.1476  0.4459
18384TIP3    H176643   3.374   4.358  14.736 -1.1406 -0.2448  0.3906
18384TIP3    H276644   3.295   4.266  14.646  0.8458 -1.3671 -0.2680
18385TIP3   OH276645   3.925   0.259   6.080  0.0350  0.2166 -0.1397
18385TIP3    H176646   3.833   0.237   6.070  0.3134 -0.7355 -0.7349
18385TIP3    H276647   3.929   0.354   6.068 -0.5977  0.0262 -2.2866
18386TIP3   OH276648   0.502   4.679  12.691 -0.2479  0.7294 -0.0262
18386TIP3    H176649   0.503   4.619  12.766 -1.7081  1.1978  0.3982
18386TIP3    H276650   0.410   4.690  12.671  0.1352 -0.5189 -2.8361
18387TIP3   OH276651   6.544   6.606   3.569 -0.4811 -0.0854 -0.5973
18387TIP3    H176652   6.468   6.608   3.628  0.2597 -0.7182  0.4344
18387TIP3    H276653   6.568   6.513   3.566 -0.0542  0.0451 -1.3134
18388TIP3   OH276654   4.254   2.455   4.294 -0.0724  1.0575 -0.2414
18388TIP3    H176655   4.168   2.416   4.276 -0.0611  1.0460 -0.2696
18388TIP3    H276656   4.313   2.380   4.305 -0.4651  1.0007  1.8196
18389TIP3   OH276657   6.500   6.765   1.682  0.5689 -0.4400 -0.4263
18389TIP3    H176658   6.563   6.787   1.614 -0.1515  0.8178 -0.7160
18389TIP3    H276659   6.415   6.787   1.645 -0.1389 -2.5460 -0.2143
18390TIP3   OH276660   0.936   5.996   2.729  0.5786  0.3782 -0.5265
18390TIP3    H176661   0.854   6.041   2.752  1.4114  1.4626  0.4311
18390TIP3    H276662   0.969   6.044   2.654  0.2430 -0.1871 -1.0396
18391TIP3   OH276663   3.696   1.851   0.902  0.2800  1.0355 -0.2037
18391TIP3    H176664   3.710   1.849   0.996 -0.8891 -1.1515 -0.0103
18391TIP3    H276665   3.780   1.879   0.866  1.6325 -0.7000  1.4000
18392TIP3   OH276666   3.667   1.024   5.733  0.2748 -0.0408 -0.0905
18392TIP3    H176667   3.732   1.080   5.690  0.1967 -0.0371 -0.2047
18392TIP3    H276668   3.624   0.978   5.661  0.7162 -0.6647  0.0323
18393TIP3   OH276669   2.648   4.283  15.815 -0.0895  0.2098 -0.0311
18393TIP3    H176670   2.718   4.243  15.763  0.2872  1.2104 -0.3217
18393TIP3    H276671   2.646   4.374  15.786 -1.0682  0.3550  0.4584
18394TIP3   OH276672   4.201   2.730   3.486  0.1124 -0.1432  1.2623
18394TIP3    H176673   4.170   2.640   3.475  0.2594 -0.4577  3.0520
18394TIP3    H276674   4.274   2.738   3.424 -1.3784 -0.4478 -0.6216
18395TIP3   OH276675   5.359   0.062   4.346 -0.4532 -0.3274 -0.8518
18395TIP3    H176676   5.318   0.058   4.432  0.6271  2.7257 -0.0693
18395TIP3    H276677   5.302   0.121   4.296 -0.1514 -0.7404 -1.7043
18396TIP3   OH276678   2.410   2.303   1.791  0.1596  0.2167  0.0692
18396TIP3    H176679   2.367   2.288   1.706 -1.1583  2.1279  0.3196
18396TIP3    H276680   2.385   2.392   1.814  2.6175  0.6707  1.2795
18397TIP3   OH276681   0.892   6.377   1.028  0.0298 -0.4646 -0.5158
18397TIP3    H176682   0.849   6.377   0.942  0.2573 -2.2330 -0.6625
18397TIP3    H276683   0.973   6.329   1.015  1.3723  1.4732  0.1349
18398TIP3   OH276684   3.556   1.351  14.137  0.6059  0.0345  0.1588
18398TIP3    H176685   3.574   1.364  14.230  1.4012 -2.1657  0.3909
18398TIP3    H276686   3.461   1.356  14.130  0.6296  1.7934  0.7823
18399TIP3   OH276687   5.387   5.008  13.545 -0.5135 -0.1994 -0.3324
18399TIP3    H176688   5.372   4.917  13.521 -2.1882  0.2373 -1.0489
18399TIP3    H276689   5.327   5.058  13.490  0.8861  1.4157 -0.5032
18400TIP3   OH276690   3.775   4.594  16.289  0.1948 -0.3685 -0.2149
18400TIP3    H176691   3.814   4.633  16.367  0.7347 -0.5439 -0.3916
18400TIP3    H276692   3.695   4.645  16.274  0.0183 -0.4120  0.5190
18401TIP3   OH276693   0.702   0.975  11.428 -0.3275 -0.5327  0.3907
18401TIP3    H176694   0.714   1.047  11.491  2.0099 -1.3032  0.9063
18401TIP3    H276695   0.725   1.014  11.344 -3.2662  0.4437 -0.0855
18402TIP3   OH276696   5.713   5.008  13.213 -0.2594 -0.4264 -0.1711
18402TIP3    H176697   5.692   4.932  13.267  0.3998 -0.4570  0.0490
18402TIP3    H276698   5.661   5.079  13.251 -2.0943 -1.0761 -1.3423
18403TIP3   OH276699   1.849   5.886   2.617 -0.4231 -0.7157  0.2830
18403TIP3    H176700   1.881   5.877   2.527  0.1400 -2.4206  0.6171
18403TIP3    H276701   1.761   5.922   2.607 -0.2881 -0.6735 -0.9417
18404TIP3   OH276702   4.976   4.036   1.748  0.3096 -0.5847 -0.0601
18404TIP3    H176703   4.925   4.106   1.707 -1.0027 -1.0877  0.6564
18404TIP3    H276704   4.964   3.961   1.690  0.1469 -0.7322  0.1635
18405TIP3   OH276705   5.566   3.550   5.448  0.1064 -0.0660 -0.2430
18405TIP3    H176706   5.541   3.637   5.417 -0.4551 -0.3871 -0.7268
18405TIP3    H276707   5.530   3.490   5.382 -1.6790 -0.8241  1.3376
18406TIP3   OH276708   0.131   0.378  12.939 -0.5477  0.4899 -0.9480
18406TIP3    H176709   0.057   0.321  12.919  0.4360 -1.1033 -0.2204
18406TIP3    H276710   0.206   0.337  12.896  0.4612  0.3807  0.8110
18407TIP3   OH276711   0.979   2.741   6.369  0.0423  0.2108  0.4134
18407TIP3    H176712   0.894   2.715   6.404  0.2729  0.5023  1.2139
18407TIP3    H276713   0.998   2.825   6.410 -0.7385  1.7852 -2.1728
18408TIP3   OH276714   2.237   1.895   2.540  0.1248  0.1420 -0.2537
18408TIP3    H176715   2.291   1.875   2.463  0.4854  1.4030 -0.3440
18408TIP3    H276716   2.165   1.948   2.505 -0.0602  0.1811  0.1850
18409TIP3   OH276717   1.757   4.082   5.619 -0.0193 -0.2544 -0.1627
18409TIP3    H176718   1.829   4.020   5.610  0.1077 -0.4884  1.9483
18409TIP3    H276719   1.693   4.036   5.674  0.0908  1.4219  1.4752
18410TIP3   OH276720   2.244   5.463  12.325  0.3647  0.3870 -0.5654
18410TIP3    H176721   2.246   5.444  12.231  0.4097 -0.5044 -0.3923
18410TIP3    H276722   2.330   5.500  12.344 -0.1065  1.8371 -1.1182
18411TIP3   OH276723   0.685   3.043   3.165  0.1400 -0.3528  0.2578
18411TIP3    H176724   0.606   3.000   3.198  0.3098 -1.1168 -0.2967
18411TIP3    H276725   0.727   2.977   3.111  1.3943 -0.1181  0.8931
18412TIP3   OH276726   0.368   6.573  12.073 -0.3984  0.2442  0.2052
18412TIP3    H176727   0.379   6.518  11.995 -0.2995  0.1068  0.3163
18412TIP3    H276728   0.293   6.629  12.052  0.8315  1.6007 -0.8064
18413TIP3   OH276729   2.492   5.067   6.253  0.0786  0.4602  0.6845
18413TIP3    H176730   2.519   4.993   6.308  0.1347 -0.3831 -0.4306
18413TIP3    H276731   2.574   5.103   6.220 -0.0121 -0.5109 -0.6808
18414TIP3   OH276732   5.497   4.958   0.770  0.0533  0.5901  0.2137
18414TIP3    H176733   5.512   5.052   0.773  1.3915  0.4281 -0.9098
18414TIP3    H276734   5.576   4.921   0.732  0.0005 -1.1136  1.6081
18415TIP3   OH276735   5.771   2.720  17.188 -0.1870  0.2427  0.9667
18415TIP3    H176736   5.714   2.646  17.170  1.6981 -1.4550  1.5707
18415TIP3    H276737   5.752   2.783  17.118 -1.9997 -0.6997  0.5752
18416TIP3   OH276738   1.246   0.641   2.392 -0.3781 -0.3893 -0.0757
18416TIP3    H176739   1.310   0.573   2.412  0.8377  1.2205  1.9249
18416TIP3    H276740   1.163   0.607   2.425  0.2816 -0.7830  1.2257
18417TIP3   OH276741   2.945   2.637   0.115 -0.3987  0.2494 -0.1230
18417TIP3    H176742   2.999   2.592   0.180  0.6867 -1.5072 -2.1079
18417TIP3    H276743   2.937   2.574   0.043 -1.8395  1.9608 -1.5614
18418TIP3   OH276744   3.996   1.969   5.737 -0.3282 -0.4804 -0.2514
18418TIP3    H176745   3.925   2.030   5.717 -2.4893 -1.9680  2.2523
18418TIP3    H276746   3.969   1.887   5.695 -0.9381 -1.4738  1.9670
18419TIP3   OH276747   2.842   5.078  14.828  0.6855  0.0725 -0.5814
18419TIP3    H176748   2.895   5.157  14.821  2.0431 -0.7322  0.3093
18419TIP3    H276749   2.857   5.031  14.746  1.4705 -0.2142 -0.2803
18420TIP3   OH276750   6.626   5.914   3.983 -0.3406  0.3226  0.0255
18420TIP3    H176751   6.627   6.008   3.996 -0.7423  0.2566  0.5752
18420TIP3    H276752   6.717   5.887   3.992  0.0197  0.8438 -1.6816
18421TIP3   OH276753   2.022   2.170  12.450 -0.3846  0.0748 -0.4740
18421TIP3    H176754   2.061   2.149  12.365 -0.5233  2.0322 -1.0599
18421TIP3    H276755   1.929   2.181  12.432 -1.0553 -2.8805  0.6123
18422TIP3   OH276756   1.782   6.320  12.458  0.3807 -0.0069  0.2517
18422TIP3    H176757   1.711   6.384  12.454  1.2896  0.9877 -0.4031
18422TIP3    H276758   1.745   6.247  12.509 -1.6370 -0.1889 -1.3111
18423TIP3   OH276759   3.088   5.292   0.632  0.1471  0.4695  0.2248
18423TIP3    H176760   3.066   5.206   0.596 -0.3093  1.7152 -2.8143
18423TIP3    H276761   3.157   5.275   0.696  0.6134 -2.0822 -0.8423
18424TIP3   OH276762   1.504   3.367  14.866  0.3375  0.2270 -0.1364
18424TIP3    H176763   1.450   3.429  14.817 -0.0824  1.7730  2.1200
18424TIP3    H276764   1.472   3.281  14.840 -1.3518  1.0366 -0.9118
18425TIP3   OH276765   3.407   3.674  15.486  0.3861 -0.2628  0.6607
18425TIP3    H176766   3.333   3.665  15.546 -2.7264  0.6242 -2.6492
18425TIP3    H276767   3.403   3.595  15.431  1.0678  0.3878 -0.3696
18426TIP3   OH276768   5.292   1.141   2.920 -0.4731 -0.0304  0.5352
18426TIP3    H176769   5.253   1.169   2.837  2.6585 -0.1273 -1.1241
18426TIP3    H276770   5.300   1.222   2.971 -2.5315  0.0128  0.8999
18427TIP3   OH276771   6.823   4.321  13.536  0.3761  0.1250  0.5792
18427TIP3    H176772   6.759   4.293  13.470 -0.3495 -2.1275  2.1277
18427TIP3    H276773   6.819   4.417  13.533 -1.2893  0.0747 -1.0537
18428TIP3   OH276774   2.099   1.512  13.981  0.1506 -0.0181 -0.0790
18428TIP3    H176775   2.085   1.507  14.075  0.1854 -0.0593 -0.0759
18428TIP3    H276776   2.069   1.427  13.948  1.1955 -0.4464  0.0257
18429TIP3   OH276777   1.859   1.293  15.622  0.2506 -0.0674 -0.0882
18429TIP3    H176778   1.870   1.285  15.717  0.2845 -0.5240 -0.1308
18429TIP3    H276779   1.819   1.210  15.595  1.4184 -0.4634 -0.6601
18430TIP3   OH276780   3.407   1.554  14.439 -0.1854 -0.4355  0.4550
18430TIP3    H176781   3.469   1.598  14.380  0.8260 -1.3754  0.7787
18430TIP3    H276782   3.351   1.624  14.471  2.2411  0.9092  2.0343
18431TIP3   OH276783   5.277   3.455   0.222 -0.3711  0.0144 -0.1903
18431TIP3    H176784   5.359   3.503   0.211 -0.4202 -0.1533 -1.4217
18431TIP3    H276785   5.279   3.425   0.313  0.6968  0.4401 -0.0566
18432TIP3   OH276786   3.580   0.893   3.567 -0.3484  0.0078 -0.4991
18432TIP3    H176787   3.501   0.843   3.590 -0.5245  1.0235  1.2851
18432TIP3    H276788   3.570   0.911   3.474 -1.0545 -1.8928 -0.8368
18433TIP3   OH276789   5.624   5.215  13.373  0.3186  0.0061 -0.3434
18433TIP3    H176790   5.687   5.287  13.373  0.7181 -0.3226  0.8056
18433TIP3    H276791   5.606   5.199  13.466 -0.7812 -0.4956 -0.6280
18434TIP3   OH276792   1.289   5.482   3.090 -0.2529 -0.0723 -0.4669
18434TIP3    H176793   1.317   5.413   3.150  1.3923 -0.1168 -1.2325
18434TIP3    H276794   1.366   5.498   3.034 -0.9450  1.6412 -0.9886
18435TIP3   OH276795   3.708   5.385  16.901  0.1664 -0.2168 -0.2342
18435TIP3    H176796   3.718   5.447  16.973  0.9650 -1.0177  0.3627
18435TIP3    H276797   3.629   5.336  16.921 -1.2394  1.4519 -1.3858
18436TIP3   OH276798   3.573   4.992  13.052  0.2764 -0.7582  0.7908
18436TIP3    H176799   3.508   5.063  13.051  0.0167 -0.9498 -1.1526
18436TIP3    H276800   3.524   4.914  13.077  0.2554 -0.4996  1.5578
18437TIP3   OH276801   6.415   5.788   0.596  0.1223  0.4413 -0.1811
18437TIP3    H176802   6.417   5.765   0.503  1.4321  1.3836 -0.4135
18437TIP3    H276803   6.507   5.800   0.619 -0.2450  1.0907  1.0058
18438TIP3   OH276804   0.268   2.505  12.911  0.2838 -0.1156 -0.6068
18438TIP3    H176805   0.209   2.481  12.840  0.0126 -0.1547 -0.3713
18438TIP3    H276806   0.234   2.458  12.987 -1.0658  1.9916  0.1835
18439TIP3   OH276807   3.236   1.748  14.893 -0.5188  0.3271 -0.0049
18439TIP3    H176808   3.193   1.826  14.858 -0.7894 -0.0336 -0.4993
18439TIP3    H276809   3.183   1.724  14.968  0.3459  1.3885  0.9775
18440TIP3   OH276810   5.408   0.636   0.380 -0.8480 -0.4626 -0.5976
18440TIP3    H176811   5.502   0.647   0.367 -0.5778 -0.7997  0.8521
18440TIP3    H276812   5.387   0.555   0.333 -0.6423  0.1679 -1.8151
18441TIP3   OH276813   5.636   2.141  16.806 -0.0857 -0.0469  0.4416
18441TIP3    H176814   5.685   2.084  16.865  1.5832 -0.2770 -1.0720
18441TIP3    H276815   5.645   2.229  16.843  2.0587  0.0107 -0.1203
18442TIP3   OH276816   5.825   6.756  13.971 -0.3862  0.1893 -0.2659
18442TIP3    H176817   5.791   6.844  13.951 -1.1253 -0.1945 -0.7605
18442TIP3    H276818   5.790   6.701  13.900  0.2100 -0.4716 -0.0529
18443TIP3   OH276819   3.138   3.699  11.558  0.2022  0.1650 -0.3948
18443TIP3    H176820   3.044   3.709  11.568 -0.1479 -2.3000 -0.5274
18443TIP3    H276821   3.170   3.677  11.646  0.7421  1.3188 -0.2782
18444TIP3   OH276822   3.028   4.840   1.397  0.4516 -0.2088 -1.0077
18444TIP3    H176823   2.935   4.834   1.421  0.5541 -0.7388 -0.7261
18444TIP3    H276824   3.069   4.885   1.471  0.1754  1.4408 -1.8124
18445TIP3   OH276825   2.945   5.752   2.267 -0.3441 -0.0379  0.4902
18445TIP3    H176826   2.975   5.743   2.177 -0.3382 -0.1118  0.4997
18445TIP3    H276827   2.978   5.838   2.295  0.0899 -0.2344  0.5921
18446TIP3   OH276828   5.707   5.503  15.306 -0.4579  0.1725 -0.2516
18446TIP3    H176829   5.721   5.409  15.318 -0.2764  0.2171 -0.1147
18446TIP3    H276830   5.613   5.511  15.287 -0.2882 -0.1398 -1.3234
18447TIP3   OH276831   2.783   3.073   5.843 -0.8728  0.0553 -0.1707
18447TIP3    H176832   2.763   2.980   5.857 -3.0710  0.6310  0.9919
18447TIP3    H276833   2.842   3.096   5.914 -0.3167 -0.4496 -0.4634
18448TIP3   OH276834   0.394   3.394   4.140 -0.1833 -0.0949 -0.3004
18448TIP3    H176835   0.333   3.414   4.211 -0.8408  0.0560 -0.9016
18448TIP3    H276836   0.477   3.375   4.184 -0.1425  1.6171  0.4436
18449TIP3   OH276837   2.982   1.210  11.496  0.5492 -0.6929 -0.1144
18449TIP3    H176838   2.914   1.196  11.429  0.9453 -2.6256 -0.1625
18449TIP3    H276839   2.939   1.188  11.579  1.1470 -2.1177 -0.1655
18450TIP3   OH276840   5.635   5.912  12.018  0.5993  0.6084  0.2114
18450TIP3    H176841   5.587   5.919  12.101  0.0319  2.1164 -0.2136
18450TIP3    H276842   5.580   5.857  11.963  1.8133 -1.9197  1.3551
18451TIP3   OH276843   3.357   0.281   0.207  0.5675  0.3887 -0.5691
18451TIP3    H176844   3.442   0.306   0.172 -0.0712  1.8889 -1.1354
18451TIP3    H276845   3.294   0.313   0.142 -0.4296 -1.0479 -0.3664
18452TIP3   OH276846   0.810   2.019  16.319 -0.5929 -0.0188  0.0738
18452TIP3    H176847   0.780   2.103  16.284 -0.3160  0.5097  1.0459
18452TIP3    H276848   0.777   1.954  16.258  1.3359  0.9314 -2.1700
18453TIP3   OH276849   4.064   3.552  14.823  0.5368 -0.0442 -0.2292
18453TIP3    H176850   4.120   3.624  14.794 -0.1288  1.6463  2.3651
18453TIP3    H276851   3.975   3.581  14.804  0.3468 -1.1459 -1.0820
18454TIP3   OH276852   5.264   4.514   4.783  0.7571 -0.2065  0.0257
18454TIP3    H176853   5.263   4.603   4.817  0.4944 -0.5788  1.0560
18454TIP3    H276854   5.339   4.511   4.724  2.0932  0.1286  1.6157
18455TIP3   OH276855   1.236   2.368   4.271 -0.6164 -0.1703  0.7921
18455TIP3    H176856   1.248   2.458   4.240 -1.8341 -0.1920  0.1936
18455TIP3    H276857   1.315   2.322   4.241  0.7022  0.9726  2.3216
18456TIP3   OH276858   5.007   5.483  11.077 -0.1962  0.7366  0.6570
18456TIP3    H176859   4.966   5.567  11.057 -0.5021  0.7770  1.4317
18456TIP3    H276860   4.938   5.418  11.066  0.3609  0.4150 -1.2097
18457TIP3   OH276861   6.342   4.759   2.878  0.3356  0.2814  0.0728
18457TIP3    H176862   6.296   4.698   2.820  1.2500 -0.3625  0.0191
18457TIP3    H276863   6.411   4.707   2.919  1.6972  1.4537 -0.6358
18458TIP3   OH276864   5.940   5.878   0.096  0.0391  0.2282  0.3573
18458TIP3    H176865   5.864   5.871   0.154  0.1212  0.8615  0.5594
18458TIP3    H276866   5.908   5.852   0.010 -0.8096  1.8884  0.1247
18459TIP3   OH276867   4.736   3.432  13.911  0.2106  0.0770 -0.1077
18459TIP3    H176868   4.818   3.421  13.959 -0.1628  0.6372  0.6754
18459TIP3    H276869   4.670   3.444  13.979 -0.3666  0.6359 -0.7569
18460TIP3   OH276870   0.865   6.278  12.874 -0.2090  0.2410  0.2411
18460TIP3    H176871   0.917   6.197  12.871  1.2028  0.9800  2.3984
18460TIP3    H276872   0.815   6.277  12.793 -0.6240 -3.0377  0.3984
18461TIP3   OH276873   3.431   0.066  13.248 -0.4735  0.1668 -0.4197
18461TIP3    H176874   3.389   0.115  13.319 -2.3172 -0.3104 -1.1182
18461TIP3    H276875   3.511   0.116  13.229 -1.1879  1.6892  0.3261
18462TIP3   OH276876   1.899   0.777  15.683  0.1781  0.0567 -0.0213
18462TIP3    H176877   1.962   0.714  15.648  0.2086 -0.2166  0.5104
18462TIP3    H276878   1.817   0.729  15.689  0.1837  0.0870  0.3212
18463TIP3   OH276879   5.355   6.387  10.862  0.4671  0.4821  0.7571
18463TIP3    H176880   5.306   6.462  10.895 -0.5942  0.1381  0.0120
18463TIP3    H276881   5.331   6.315  10.920 -0.6108  0.1155 -0.1016
18464TIP3   OH276882   3.353   2.861  12.971 -0.5960 -0.0459  0.1358
18464TIP3    H176883   3.323   2.784  12.922 -2.2312  0.6781 -0.0935
18464TIP3    H276884   3.347   2.933  12.908 -0.3141  0.4796  0.6991
18465TIP3   OH276885   3.972   5.050  15.741 -0.0354 -0.0665  0.4979
18465TIP3    H176886   3.925   5.020  15.818  1.3704  0.6245  1.6793
18465TIP3    H276887   4.017   5.129  15.770  1.6612 -0.5690 -0.6193
18466TIP3   OH276888   4.152   1.673  12.702 -0.1602  0.1139  0.0934
18466TIP3    H176889   4.113   1.734  12.764  0.4493 -0.3371  0.9435
18466TIP3    H276890   4.135   1.587  12.739  0.5437 -0.1432 -0.1678
18467TIP3   OH276891   2.942   3.360   2.609 -0.0820 -0.3360 -0.1564
18467TIP3    H176892   2.959   3.279   2.657 -0.4082  0.2062  0.9094
18467TIP3    H276893   3.013   3.365   2.544 -0.0681 -1.4693 -0.2343
18468TIP3   OH276894   3.275   3.933  16.498  0.4677  0.2789 -0.6521
18468TIP3    H176895   3.242   4.002  16.555 -0.6410 -0.8129  0.0641
18468TIP3    H276896   3.331   3.880  16.553 -1.0507 -1.1086 -0.3661
18469TIP3   OH276897   4.561   0.413  14.472  0.6427 -0.0639  0.5363
18469TIP3    H176898   4.647   0.450  14.492  0.2259  1.1097  0.2562
18469TIP3    H276899   4.516   0.483  14.423 -0.1416 -0.9956 -0.1066
18470TIP3   OH276900   4.736   4.758  14.693  0.0207 -0.1446 -0.3426
18470TIP3    H176901   4.683   4.732  14.618  1.4080 -1.3212 -0.9605
18470TIP3    H276902   4.821   4.782  14.656 -0.1328  2.0567  0.5868
18471TIP3   OH276903   1.459   2.693   1.178  0.0934  0.7678  0.4605
18471TIP3    H176904   1.385   2.640   1.208  1.8185 -0.5630  2.7082
18471TIP3    H276905   1.446   2.778   1.221 -0.5809  0.8384  0.1269
18472TIP3   OH276906   0.267   1.468  12.641 -0.2426  0.4427  0.4306
18472TIP3    H176907   0.296   1.407  12.709 -1.9871 -0.1139  0.7355
18472TIP3    H276908   0.299   1.430  12.559 -0.4227 -0.3449  0.7180
18473TIP3   OH276909   6.337   6.189  16.739 -0.5752  0.3292 -0.0954
18473TIP3    H176910   6.381   6.151  16.816 -0.4384  2.3300  0.8856
18473TIP3    H276911   6.374   6.277  16.732 -0.2187  0.0363 -2.8048
18474TIP3   OH276912   4.187   3.107  11.257 -0.1123 -0.0727  0.0122
18474TIP3    H176913   4.160   3.143  11.172 -2.1115 -0.3370  0.4706
18474TIP3    H276914   4.141   3.162  11.321  0.2501 -0.7530  0.8730
18475TIP3   OH276915   6.401   3.278  15.244  0.1537 -0.1564 -0.1344
18475TIP3    H176916   6.487   3.273  15.287  1.2095  1.7243 -1.8747
18475TIP3    H276917   6.358   3.353  15.285  0.5812  0.7420 -1.2738
18476TIP3   OH276918   5.617   1.657  16.961 -0.3471  0.5438 -0.0672
18476TIP3    H176919   5.653   1.574  16.931  0.6043  1.0706 -0.4153
18476TIP3    H276920   5.556   1.683  16.893 -0.8169  0.0276  0.1496
18477TIP3   OH276921   0.128   0.362  16.334  0.4122  0.6194 -0.3031
18477TIP3    H176922   0.173   0.278  16.330  2.0013  1.4587 -0.6370
18477TIP3    H276923   0.047   0.343  16.381  0.6430 -1.1299 -0.5450
18478TIP3   OH276924   5.216   5.675  15.865 -0.0108 -0.4394 -0.1687
18478TIP3    H176925   5.186   5.669  15.955 -0.0911  1.1458 -0.0479
18478TIP3    H276926   5.309   5.695  15.871  0.0433 -0.6050 -0.4357
18479TIP3   OH276927   2.193   4.109   4.152 -0.4173  0.5739  0.2495
18479TIP3    H176928   2.104   4.080   4.132 -0.2353  0.6277 -0.6458
18479TIP3    H276929   2.243   4.093   4.072  0.1464  1.5222  0.3966
18480TIP3   OH276930   0.248   2.414   6.184 -0.1329 -0.1857  0.0527
18480TIP3    H176931   0.237   2.490   6.126 -3.0877 -0.2216  0.3862
18480TIP3    H276932   0.251   2.339   6.125 -0.0235 -0.0090 -0.1694
18481TIP3   OH276933   4.034   2.667   5.065 -0.0204  0.2200 -0.2458
18481TIP3    H176934   3.987   2.678   5.147 -0.2897  2.0464 -0.5934
18481TIP3    H276935   4.110   2.614   5.087  0.7783  1.9911  1.5437
18482TIP3   OH276936   0.134   5.540  13.050  0.1964 -0.3201  0.0779
18482TIP3    H176937   0.081   5.619  13.036 -0.2864 -0.7522 -0.5876
18482TIP3    H276938   0.085   5.490  13.115  0.0491 -0.4731 -0.1476
18483TIP3   OH276939   4.289   5.609   2.560 -0.4313  0.2883 -0.1289
18483TIP3    H176940   4.326   5.532   2.604  0.4968  0.3954 -0.6963
18483TIP3    H276941   4.335   5.613   2.476 -1.4574  0.6689 -0.6883
18484TIP3   OH276942   2.623   3.156  16.900  0.0960 -0.1327  0.2866
18484TIP3    H176943   2.625   3.075  16.951  1.3127  0.9359  2.0127
18484TIP3    H276944   2.531   3.183  16.902  0.2060  0.2739  2.6258
18485TIP3   OH276945   6.311   1.322   0.133 -0.5012 -0.2646  0.0423
18485TIP3    H176946   6.396   1.299   0.097 -1.4540 -0.9727 -1.9364
18485TIP3    H276947   6.326   1.401   0.183  1.1194  0.3201 -1.2893
18486TIP3   OH276948   0.698   3.347  16.692 -0.6240 -0.2103 -0.6089
18486TIP3    H176949   0.761   3.312  16.756 -1.2259 -0.2024  0.0061
18486TIP3    H276950   0.750   3.401  16.633  0.2826 -1.8173 -1.3486
18487TIP3   OH276951   6.114   6.568   5.264  0.0761 -0.6246 -0.4024
18487TIP3    H176952   6.142   6.658   5.280 -0.1968 -0.6889  0.5549
18487TIP3    H276953   6.020   6.575   5.247  0.3129 -0.5919 -1.7756
18488TIP3   OH276954   3.306   5.218  12.612 -0.2064 -0.2125  0.1894
18488TIP3    H176955   3.328   5.227  12.704  0.2137 -0.1721  0.0864
18488TIP3    H276956   3.241   5.147  12.609 -0.3680 -0.0782  0.5336
18489TIP3   OH276957   2.671   6.281   4.647 -0.3172 -0.1562  0.3937
18489TIP3    H176958   2.758   6.245   4.662 -0.5258 -1.2118 -0.7598
18489TIP3    H276959   2.682   6.376   4.654  1.4857 -0.0845 -2.2212
18490TIP3   OH276960   0.147   5.019  10.237  0.4738  0.5975 -0.2903
18490TIP3    H176961   0.238   5.046  10.250  0.0738  1.4810  0.9425
18490TIP3    H276962   0.095   5.088  10.279 -0.7252 -0.4038 -0.0415
18491TIP3   OH276963   2.361   6.377  14.420 -0.2263  0.1722 -0.0239
18491TIP3    H176964   2.314   6.329  14.488 -1.0871 -0.2899 -0.9122
18491TIP3    H276965   2.405   6.448  14.466 -0.9321 -0.0330  0.9888
18492TIP3   OH276966   2.490   0.176   5.764  0.0999 -0.1049 -0.4222
18492TIP3    H176967   2.407   0.220   5.783  0.3595 -0.7349  2.6724
18492TIP3    H276968   2.482   0.090   5.806  1.1243 -1.5199 -2.9123
18493TIP3   OH276969   5.418   0.811   0.892  0.8207  0.1385  0.0285
18493TIP3    H176970   5.340   0.761   0.872  1.5985 -1.1711  0.1634
18493TIP3    H276971   5.467   0.814   0.809  2.2981 -2.1470  0.7312
18494TIP3   OH276972   5.456   1.639  12.376 -0.0721  0.3420  0.5216
18494TIP3    H176973   5.498   1.554  12.388  0.2783  0.4559  0.1360
18494TIP3    H276974   5.523   1.692  12.333 -0.2390  0.8531  0.8809
18495TIP3   OH276975   5.270   4.734  12.596  0.1878 -0.6121 -0.3571
18495TIP3    H176976   5.233   4.699  12.515 -0.8960 -0.8224  0.2009
18495TIP3    H276977   5.343   4.789  12.568 -1.2055  0.7056 -1.6209
18496TIP3   OH276978   1.980   4.970  14.558  0.1349 -0.4959  0.4301
18496TIP3    H176979   2.018   4.885  14.579 -0.9207 -0.7052  1.5915
18496TIP3    H276980   1.888   4.951  14.539  0.6807 -0.1662 -3.3726
18497TIP3   OH276981   0.865   4.250   2.424  0.2374 -0.2730 -0.2908
18497TIP3    H176982   0.954   4.287   2.422 -0.5333  1.7355 -0.1726
18497TIP3    H276983   0.822   4.289   2.348 -0.5699 -1.2166 -0.3343
18498TIP3   OH276984   6.335   2.972   0.416  0.5888  0.3726 -0.7573
18498TIP3    H176985   6.368   3.013   0.336 -0.2034  1.6852 -0.4371
18498TIP3    H276986   6.376   2.886   0.417 -1.6987 -1.0292 -4.2574
18499TIP3   OH276987   0.158   1.112   4.404  0.1909  0.1881 -0.1448
18499TIP3    H176988   0.150   1.207   4.395 -0.1771  0.1296 -0.4419
18499TIP3    H276989   0.069   1.079   4.391  0.6867 -0.3847 -2.3205
18500TIP3   OH276990   4.273   3.717   4.211  0.5539 -0.1671 -0.0761
18500TIP3    H176991   4.199   3.676   4.257 -1.6114 -0.6832 -3.6090
18500TIP3    H276992   4.333   3.644   4.194 -0.1571 -0.6322 -0.6939
18501TIP3   OH276993   4.323   0.931   2.388  0.0640 -0.3935 -0.2922
18501TIP3    H176994   4.255   0.995   2.406 -0.0068 -1.0662  2.1189
18501TIP3    H276995   4.388   0.979   2.336 -1.5055  0.6562 -1.3927
18502TIP3   OH276996   0.645   0.165  15.594  0.3479 -0.4773 -0.4238
18502TIP3    H176997   0.692   0.169  15.510 -1.2977  0.8427 -1.3426
18502TIP3    H276998   0.591   0.244  15.595  1.0213  0.0582  2.3485
18503TIP3   OH276999   6.149   3.265   0.180  0.1551 -0.3897  0.2901
18503TIP3    H177000   6.122   3.174   0.190 -0.7566 -0.0943  0.6431
18503TIP3    H277001   6.211   3.280   0.252  1.7320 -1.2316 -0.8532
18504TIP3   OH277002   0.288   3.895  16.401  0.7551  0.3826 -0.0777
18504TIP3    H177003   0.306   3.801  16.403  0.1676  0.2703  0.0897
18504TIP3    H277004   0.229   3.907  16.326 -0.7418  0.3155  1.0366
18505TIP3   OH277005   3.415   5.022   3.557 -0.4408  0.1387 -0.4607
18505TIP3    H177006   3.423   4.945   3.501  0.0991  0.8938 -1.4287
18505TIP3    H277007   3.335   5.005   3.608 -0.9356 -0.5713 -1.4308
18506TIP3   OH277008   5.316   3.664  16.821  0.7488  0.4527  0.0802
18506TIP3    H177009   5.335   3.595  16.757 -2.3369  2.7217 -3.7059
18506TIP3    H277010   5.228   3.643  16.853 -0.4361  2.7135 -1.4926
18507TIP3   OH277011   2.523   2.094   4.316  0.2726 -0.4175 -0.8047
18507TIP3    H177012   2.489   2.165   4.261  0.0010 -0.1077 -0.2601
18507TIP3    H277013   2.581   2.044   4.259  2.4866  1.7176 -0.5668
18508TIP3   OH277014   2.309   2.767   3.257 -0.4920  0.1467 -0.1022
18508TIP3    H177015   2.309   2.844   3.314 -1.7242 -0.3445  0.6074
18508TIP3    H277016   2.321   2.693   3.316 -1.2476 -0.3355 -0.5288
18509TIP3   OH277017   1.426   3.751  12.488 -0.0940 -0.3918  0.0771
18509TIP3    H177018   1.444   3.686  12.555 -0.0436  1.3201  1.8092
18509TIP3    H277019   1.478   3.724  12.413  0.1609 -2.1413  0.8496
18510TIP3   OH277020   1.487   0.260   0.454  0.5339  0.5410  0.3531
18510TIP3    H177021   1.491   0.237   0.547  1.9027 -1.7379 -0.1839
18510TIP3    H277022   1.395   0.278   0.438 -0.2824 -2.0531  1.5570
18511TIP3   OH277023   6.072   3.289   2.030 -0.4960  0.1556 -0.0879
18511TIP3    H177024   6.133   3.359   2.051 -0.5875  0.6163 -1.3369
18511TIP3    H277025   6.121   3.208   2.047 -0.1460  0.5084  0.6227
18512TIP3   OH277026   1.446   0.219   0.758 -0.0241  0.4108  0.5754
18512TIP3    H177027   1.428   0.222   0.852 -0.1855  0.5265  0.5415
18512TIP3    H277028   1.388   0.285   0.720 -0.2105  0.1221  0.3555
18513TIP3   OH277029   5.690   3.017  15.211 -0.0011  0.2038  0.1938
18513TIP3    H177030   5.691   2.980  15.123  0.8967 -1.6644  0.9520
18513TIP3    H277031   5.623   2.967  15.257  1.2630 -0.5764  1.2515
18514TIP3   OH277032   2.996   4.049  10.433  0.3888 -0.1766 -0.1759
18514TIP3    H177033   3.052   4.060  10.510  0.5445 -1.5689 -0.0565
18514TIP3    H277034   2.964   4.137  10.414  1.6505  0.4653  0.4892
18515TIP3   OH277035   6.524   4.747  16.050  0.1785  0.5055 -0.1325
18515TIP3    H177036   6.504   4.826  16.099  0.7658 -0.3919  1.6653
18515TIP3    H277037   6.605   4.714  16.090  0.2597 -0.7062 -1.2124
18516TIP3   OH277038   1.495   5.221  12.367 -0.3438  0.5456 -0.6067
18516TIP3    H177039   1.453   5.307  12.367  0.0025  0.7364  0.3555
18516TIP3    H277040   1.425   5.160  12.341 -0.7076  1.0716 -0.8744
18517TIP3   OH277041   2.260   5.217   3.077 -0.1375 -0.3021  0.3981
18517TIP3    H177042   2.302   5.250   3.157 -1.6862 -1.8320  1.9585
18517TIP3    H277043   2.320   5.149   3.045 -0.9641 -2.0302  2.2437
18518TIP3   OH277044   3.345   3.282   0.678 -0.1407  0.2268 -0.6743
18518TIP3    H177045   3.366   3.346   0.611 -0.8213  0.5266 -0.6026
18518TIP3    H277046   3.252   3.294   0.696  0.0737  0.3375  0.5039
18519TIP3   OH277047   3.723   4.307   0.460 -0.0904  0.0242 -0.4261
18519TIP3    H177048   3.700   4.222   0.499  0.3521 -0.6124 -1.5043
18519TIP3    H277049   3.694   4.300   0.369  0.3420  0.8798 -0.6393
18520TIP3   OH277050   4.355   6.153  12.229  0.3778 -0.1948 -0.6104
18520TIP3    H177051   4.406   6.076  12.207 -1.4045 -2.1954  1.7119
18520TIP3    H277052   4.414   6.208  12.281  0.8375 -1.3447  0.0969
18521TIP3   OH277053   2.941   4.388  14.349  0.5257  0.1864 -0.4302
18521TIP3    H177054   2.898   4.371  14.433  2.6218  0.7112  0.8035
18521TIP3    H277055   2.984   4.306  14.328  3.6571  1.2033  1.3213
18522TIP3   OH277056   4.682   3.999   5.486 -0.6980  0.0189  0.0672
18522TIP3    H177057   4.603   3.962   5.526  0.2087 -2.2341 -0.0687
18522TIP3    H277058   4.706   3.937   5.417 -0.7766  2.4902 -2.3649
18523TIP3   OH277059   5.950   2.101   1.651  0.1230  1.0856 -0.2984
18523TIP3    H177060   5.975   2.191   1.630 -0.4450  0.9631 -1.5738
18523TIP3    H277061   6.033   2.056   1.668  0.3688  2.0383  1.2814
18524TIP3   OH277062   4.901   4.808   1.705 -0.5909 -0.0876  0.1754
18524TIP3    H177063   4.891   4.832   1.612  0.6617  1.1561  0.3209
18524TIP3    H277064   4.993   4.784   1.713 -0.4658  0.6846  1.2743
18525TIP3   OH277065   4.484   3.273   1.361  0.0010  0.1067 -0.2871
18525TIP3    H177066   4.449   3.185   1.373 -2.2948  1.0716  0.7511
18525TIP3    H277067   4.409   3.325   1.333  0.8288  2.1333  1.0407
18526TIP3   OH277068   5.013   2.323  12.848  0.2390 -0.2736  0.4070
18526TIP3    H177069   4.927   2.315  12.889 -1.0037  3.4073 -1.1277
18526TIP3    H277070   5.071   2.350  12.919 -0.7810  1.1053  0.7433
18527TIP3   OH277071   2.173   3.490   4.320 -0.1592  0.0992 -0.0028
18527TIP3    H177072   2.229   3.559   4.353  1.5455 -0.8364 -0.7814
18527TIP3    H277073   2.085   3.528   4.320  0.5866  1.9344  0.4152
18528TIP3   OH277074   1.839   2.349  13.315 -0.0224  0.1960 -0.3570
18528TIP3    H177075   1.746   2.369  13.308 -0.2630 -0.7124  0.0264
18528TIP3    H277076   1.842   2.256  13.337  1.0039 -0.0027 -1.2234
18529TIP3   OH277077   3.281   2.166  11.551 -0.4084 -0.0727  0.0831
18529TIP3    H177078   3.339   2.223  11.601 -0.5644  0.9710 -0.8805
18529TIP3    H277079   3.275   2.207  11.465 -1.1760 -1.1181 -0.3929
18530TIP3   OH277080   6.201   4.510   0.802  0.4774  0.5652  0.0766
18530TIP3    H177081   6.279   4.456   0.818  0.8866  1.0018 -0.4074
18530TIP3    H277082   6.235   4.591   0.763  0.0211  1.7878  2.0878
18531TIP3   OH277083   4.092   2.287   1.466  0.0991 -0.0643 -0.1330
18531TIP3    H177084   4.096   2.231   1.543  1.5171  0.6324  0.3377
18531TIP3    H277085   4.070   2.228   1.394  1.6092 -1.2423  0.3351
18532TIP3   OH277086   3.571   5.379  15.040 -0.2879  0.2564 -0.3337
18532TIP3    H177087   3.509   5.405  15.108 -1.7891  0.4234 -1.6804
18532TIP3    H277088   3.528   5.305  14.997  1.4141 -0.9397 -0.0399
18533TIP3   OH277089   3.079   3.054  15.043 -0.4321  0.5718  0.0777
18533TIP3    H177090   3.058   3.002  15.121  0.4378  1.6940  1.0969
18533TIP3    H277091   3.065   2.994  14.970  0.4139 -1.0795  1.1951
18534TIP3   OH277092   5.910   5.093   3.961  0.0278  0.1968  0.3654
18534TIP3    H177093   5.993   5.099   3.913  0.5203  3.3162  1.3332
18534TIP3    H277094   5.866   5.176   3.942 -0.4137  0.9554  3.9796
18535TIP3   OH277095   2.648   1.612   2.545 -0.7275 -0.1051 -0.0278
18535TIP3    H177096   2.685   1.653   2.624  0.4833  1.5172 -1.3477
18535TIP3    H277097   2.710   1.542   2.523 -0.3091  0.3377 -0.2849
18536TIP3   OH277098   1.376   2.122  16.542  0.8665  0.2620 -0.3757
18536TIP3    H177099   1.372   2.036  16.584  1.7799 -0.9198 -2.5738
18536TIP3    H277100   1.297   2.126  16.489  1.3369  0.3021 -1.0893
18537TIP3   OH277101   4.341   0.167   5.416  0.4004  0.1462 -0.1596
18537TIP3    H177102   4.392   0.198   5.491 -0.4713  0.1346  0.4475
18537TIP3    H277103   4.308   0.246   5.373  0.3368  0.1335 -0.1345
18538TIP3   OH277104   5.025   6.544   4.279 -0.1897  0.4839  0.2811
18538TIP3    H177105   5.106   6.563   4.232  0.2021  0.3972  0.9148
18538TIP3    H277106   5.001   6.627   4.320 -0.8907  0.7301 -0.6014
18539TIP3   OH277107   1.479   3.472   3.450  0.6358 -0.3057  0.0340
18539TIP3    H177108   1.400   3.523   3.434 -0.4897 -1.2188  2.2661
18539TIP3    H277109   1.489   3.418   3.372 -1.4211 -0.7357  0.0253
18540TIP3   OH277110   6.095   1.086  16.136 -0.3341  0.6561 -0.7948
18540TIP3    H177111   6.078   1.069  16.229 -0.9506 -1.8813 -1.3036
18540TIP3    H277112   6.182   1.127  16.136  0.4977 -0.9161  0.8404
18541TIP3   OH277113   2.187   0.790   1.617  0.6884 -0.8980  0.3086
18541TIP3    H177114   2.202   0.878   1.650  3.5450 -1.3024  0.2976
18541TIP3    H277115   2.106   0.762   1.660  0.4081  1.2166  1.3095
18542TIP3   OH277116   6.288   1.856   5.135  0.6017  0.0919  0.2210
18542TIP3    H177117   6.312   1.860   5.042 -1.4555  0.0467 -0.3661
18542TIP3    H277118   6.262   1.946   5.156 -0.4876 -0.2071  0.2571
18543TIP3   OH277119   5.012   0.253  16.573  0.1284  0.3244  0.1384
18543TIP3    H177120   4.944   0.309  16.537  0.0992  0.5286  0.5060
18543TIP3    H277121   5.082   0.255  16.507  1.2838  2.9697  1.2726
18544TIP3   OH277122   4.005   6.777  16.362 -1.0190  0.0355 -0.3105
18544TIP3    H177123   3.999   6.856  16.309 -3.6247  0.2126  0.1165
18544TIP3    H277124   4.019   6.707  16.299 -2.4129  0.4285 -1.0965
18545TIP3   OH277125   4.530   4.257  13.635  0.5377 -0.6139  0.5106
18545TIP3    H177126   4.519   4.304  13.553 -1.8475 -1.8723 -0.0041
18545TIP3    H277127   4.501   4.168  13.615  0.3664 -1.0815  2.5958
18546TIP3   OH277128   5.799   5.528   4.233  0.2760  0.1301  0.1871
18546TIP3    H177129   5.767   5.456   4.288  0.9044 -1.4623 -1.4400
18546TIP3    H277130   5.721   5.579   4.213 -0.2791 -0.3898  0.9355
18547TIP3   OH277131   5.875   6.617   4.553  0.0493  0.0405  0.2935
18547TIP3    H177132   5.964   6.595   4.526 -0.4245 -0.9927 -0.4934
18547TIP3    H277133   5.827   6.632   4.471 -0.2110  1.9375  0.7230
18548TIP3   OH277134   3.330   4.284   2.814  0.2693 -0.1531 -0.0197
18548TIP3    H177135   3.392   4.329   2.871 -0.0495  1.0247 -0.5750
18548TIP3    H277136   3.245   4.292   2.858 -0.3097  2.2625 -1.3747
18549TIP3   OH277137   2.285   4.537  13.668  0.1731  0.4207  0.4350
18549TIP3    H177138   2.300   4.449  13.702  1.6650  0.2993 -0.4169
18549TIP3    H277139   2.360   4.588  13.700 -0.8017  1.4511  1.1235
18550TIP3   OH277140   4.437   1.694  13.242 -0.5029 -0.3910 -0.5709
18550TIP3    H177141   4.440   1.727  13.152  0.4844  1.6446  0.1355
18550TIP3    H277142   4.346   1.669  13.255 -0.9418  0.4806 -1.7503
18551TIP3   OH277143   2.246   2.947   4.146 -0.2808  0.3261 -0.8675
18551TIP3    H177144   2.152   2.931   4.153 -0.2773  0.9676  1.1221
18551TIP3    H277145   2.266   3.006   4.218  1.9514 -1.2141 -0.1228
18552TIP3   OH277146   5.583   1.690  13.299  0.4825  0.0944 -0.2134
18552TIP3    H177147   5.557   1.782  13.302  2.0132  0.7116 -3.0424
18552TIP3    H277148   5.616   1.677  13.211  1.3542 -2.9183  0.4526
18553TIP3   OH277149   0.818   3.824   2.191 -0.2987  0.1330  0.1796
18553TIP3    H177150   0.875   3.750   2.211 -1.3352 -0.2006  2.2503
18553TIP3    H277151   0.834   3.886   2.261 -0.5742  1.1942 -0.6785
18554TIP3   OH277152   3.233   0.978  13.248  0.3323  0.3226  0.5279
18554TIP3    H177153   3.165   0.926  13.291 -0.0541  1.6556  1.6137
18554TIP3    H277154   3.310   0.922  13.248 -1.0349 -1.7578 -1.9276
18555TIP3   OH277155   3.252   1.569   6.204 -0.4974 -0.3065  0.4211
18555TIP3    H177156   3.259   1.664   6.209  1.5470 -0.4032  0.1771
18555TIP3    H277157   3.190   1.546   6.274  0.5970  1.0496  1.9100
18556TIP3   OH277158   3.324   3.251  10.657 -0.2789 -0.4136  0.1350
18556TIP3    H177159   3.265   3.320  10.685  0.6401 -0.1334  1.4552
18556TIP3    H277160   3.388   3.296  10.601  0.8573  0.0337  1.7229
18557TIP3   OH277161   1.368   5.660   0.738 -0.5280  0.3658  0.1126
18557TIP3    H177162   1.356   5.754   0.750  0.5555  0.7885 -1.6529
18557TIP3    H277163   1.311   5.637   0.664 -0.2878 -0.2149  0.1001
18558TIP3   OH277164   0.986   3.963   3.304 -0.2815  0.3877 -0.3855
18558TIP3    H177165   0.967   3.893   3.366  2.3275 -1.8335 -1.9292
18558TIP3    H277166   0.953   3.931   3.221 -0.3848  1.6907 -0.8722
18559TIP3   OH277167   4.546   2.577  13.951 -0.1601  0.1820 -0.0088
18559TIP3    H177168   4.512   2.666  13.951 -0.2298  0.1627  0.7139
18559TIP3    H277169   4.607   2.574  14.025 -1.3566 -0.7833  1.0106
18560TIP3   OH277170   2.826   3.763   5.965 -0.0244 -0.1032  0.4974
18560TIP3    H177171   2.879   3.703   5.913 -0.1868  0.4055 -0.2903
18560TIP3    H277172   2.882   3.839   5.980 -0.3916  0.2978 -0.0607
18561TIP3   OH277173   0.289   5.918   1.589  0.0728 -0.0917 -0.1301
18561TIP3    H177174   0.367   5.965   1.559 -0.3156  0.5091 -0.2249
18561TIP3    H277175   0.216   5.976   1.566 -0.2952  0.0401  1.3038
18562TIP3   OH277176   6.477   2.537   4.074 -0.0749 -1.0312 -0.0839
18562TIP3    H177177   6.573   2.542   4.074 -0.0535 -1.2264 -0.9712
18562TIP3    H277178   6.457   2.477   4.145  0.4269 -0.4844  0.5296
18563TIP3   OH277179   1.487   6.210  15.302  0.2643 -0.4603  0.2776
18563TIP3    H177180   1.544   6.258  15.242 -1.4858  0.3259 -0.8418
18563TIP3    H277181   1.493   6.119  15.273 -0.4973 -0.1045 -1.1008
18564TIP3   OH277182   2.049   5.550  15.090 -0.4127  0.2173  0.0033
18564TIP3    H177183   2.023   5.503  15.169 -1.1986 -0.1308 -0.4560
18564TIP3    H277184   2.081   5.481  15.031 -1.4668  0.2585 -0.6307
18565TIP3   OH277185   5.424   3.611  15.654  0.8204 -0.0757  0.2950
18565TIP3    H177186   5.447   3.590  15.564 -0.1511 -0.3168  0.0940
18565TIP3    H277187   5.421   3.527  15.699 -0.3039 -0.1235  0.1565
18566TIP3   OH277188   1.451   3.761  16.283  0.0770 -0.0043 -0.0233
18566TIP3    H177189   1.457   3.856  16.288  0.3791 -0.0316  0.1514
18566TIP3    H277190   1.533   3.734  16.242  0.2671 -0.2325  0.4964
18567TIP3   OH277191   2.760   5.417  12.527 -0.4565  0.4202  0.1488
18567TIP3    H177192   2.845   5.439  12.487 -0.0177 -1.7245 -0.2361
18567TIP3    H277193   2.781   5.347  12.589 -1.7370  0.9957  1.2652
18568TIP3   OH277194   0.225   2.419   4.909 -0.1611  0.0614 -0.2813
18568TIP3    H177195   0.235   2.457   4.822 -3.2058  0.6470 -0.5046
18568TIP3    H277196   0.164   2.345   4.896 -0.8430  0.2906  1.3361
18569TIP3   OH277197   5.291   0.796   4.722 -0.0352 -0.2600  0.2022
18569TIP3    H177198   5.308   0.883   4.688 -1.4389  0.0483  0.2313
18569TIP3    H277199   5.349   0.739   4.672 -0.3432  0.4820 -1.0371
18570TIP3   OH277200   3.593   1.395  17.024  0.5648 -0.4733  0.1830
18570TIP3    H177201   3.657   1.323  17.024  0.7199 -0.3635  1.4834
18570TIP3    H277202   3.626   1.456  16.959  1.5182 -0.6743  0.4529
18571TIP3   OH277203   3.549   4.928   4.984 -0.2943  0.0556  0.6980
18571TIP3    H177204   3.495   4.854   4.956 -1.0053  0.1181  1.8291
18571TIP3    H277205   3.574   4.972   4.903  0.3719 -1.5630 -0.0401
18572TIP3   OH277206   4.931   4.817  12.599  0.0127  0.3128  0.0594
18572TIP3    H177207   5.019   4.817  12.562 -0.6713  1.7695 -1.7091
18572TIP3    H277208   4.873   4.824  12.523 -1.7039 -1.5169  1.1089
18573TIP3   OH277209   3.700   1.482   3.964 -0.1255 -0.3212  0.1541
18573TIP3    H177210   3.766   1.545   3.936  0.3879 -0.2837  1.3957
18573TIP3    H277211   3.617   1.520   3.935  0.3049  0.1531 -0.4867
18574TIP3   OH277212   5.904   1.622  15.647  0.3444  0.0771  0.0286
18574TIP3    H177213   5.998   1.629  15.629  0.3633 -0.6805 -0.1871
18574TIP3    H277214   5.880   1.708  15.682  1.0211  0.4310 -0.3536
18575TIP3   OH277215   5.826   6.097   3.742 -0.0023  0.6725 -0.1180
18575TIP3    H177216   5.850   6.034   3.809  2.1581  1.8781  0.3471
18575TIP3    H277217   5.907   6.111   3.692 -0.8971  1.7074 -1.3346
18576TIP3   OH277218   4.992   5.559   3.921  0.1602  0.4449 -0.7181
18576TIP3    H177219   5.005   5.542   3.828 -1.2189  0.0117 -0.8609
18576TIP3    H277220   4.906   5.520   3.941  0.0005  1.3509  0.5195
18577TIP3   OH277221   6.207   5.092   4.315 -0.1429 -0.2853 -0.6665
18577TIP3    H177222   6.259   5.053   4.245 -0.4224 -2.1892  0.1450
18577TIP3    H277223   6.125   5.117   4.273 -0.4466 -1.7393 -0.9780
18578TIP3   OH277224   4.280   5.776  13.572  0.1520 -0.2060 -0.3158
18578TIP3    H177225   4.270   5.831  13.495 -1.4310  2.4508  1.5818
18578TIP3    H277226   4.210   5.710  13.564  0.3374 -0.2901 -1.3579
18579TIP3   OH277227   2.377   6.062  15.302 -0.0632 -0.1109 -0.2262
18579TIP3    H177228   2.312   6.087  15.368  2.0631 -1.1802  2.5184
18579TIP3    H277229   2.359   5.970  15.283 -0.4499  0.0975 -0.9021
18580TIP3   OH277230   0.068   4.207  11.842 -0.1599  0.1175 -0.4515
18580TIP3    H177231   0.059   4.240  11.931 -0.3535 -1.2580  0.0658
18580TIP3    H277232   0.008   4.262  11.790  3.0337  3.8387 -0.6562
18581TIP3   OH277233   1.305   3.266  12.920  0.7092  0.1312  0.5271
18581TIP3    H177234   1.258   3.271  13.003  0.1436 -1.3080  0.3201
18581TIP3    H277235   1.370   3.198  12.933  0.8818  0.1691 -0.0911
18582TIP3   OH277236   4.430   1.686  17.135 -0.4488 -0.7324 -0.4257
18582TIP3    H177237   4.400   1.697  17.226  1.5538 -0.7912  0.2818
18582TIP3    H277238   4.363   1.631  17.094 -0.8940 -1.5396  1.2971
18583TIP3   OH277239   2.455   0.332   5.348  0.2407 -1.0200  0.4976
18583TIP3    H177240   2.504   0.305   5.426  1.9549  0.2342 -0.0821
18583TIP3    H277241   2.516   0.318   5.275 -1.3355 -2.2008 -0.6731
18584TIP3   OH277242   4.784   2.444   6.049  0.4407  0.0388 -0.1683
18584TIP3    H177243   4.697   2.441   6.089 -0.9607  0.6365 -2.8955
18584TIP3    H277244   4.822   2.527   6.079  0.0284 -0.1607  0.9299
18585TIP3   OH277245   5.802   2.058   2.194  0.3474 -0.1283 -0.4214
18585TIP3    H177246   5.826   2.073   2.102 -0.3500  0.7947 -0.4695
18585TIP3    H277247   5.757   2.139   2.220  0.7177 -0.2986  0.7972
18586TIP3   OH277248   4.870   3.138  14.209 -0.0942  0.2924 -0.2169
18586TIP3    H177249   4.919   3.210  14.170 -0.1545  0.2350 -0.4017
18586TIP3    H277250   4.892   3.141  14.302 -0.1343  0.5801 -0.2144
18587TIP3   OH277251   6.593   2.658  14.024  0.5170 -0.0137  0.4765
18587TIP3    H177252   6.651   2.727  14.057  0.7829  0.1135 -0.2487
18587TIP3    H277253   6.512   2.670  14.074  0.5216  0.8951  0.2848
18588TIP3   OH277254   2.260   6.288   2.795  0.1002  0.2671  0.4479
18588TIP3    H177255   2.297   6.235   2.724  0.5473  0.4586  0.5331
18588TIP3    H277256   2.331   6.347   2.820 -1.3227  3.1455 -1.7535
18589TIP3   OH277257   0.055   6.204   0.174 -0.0821  0.0549  0.1082
18589TIP3    H177258   0.003   6.263   0.229 -2.9846 -0.1585 -2.1639
18589TIP3    H277259   0.033   6.230   0.084 -0.9724 -3.9654 -1.0274
18590TIP3   OH277260   3.603   4.066   2.187  0.3082  0.3631  0.1420
18590TIP3    H177261   3.644   4.056   2.273  0.3554  0.6493  0.1544
18590TIP3    H277262   3.521   4.111   2.204  1.4429  2.7346 -0.2050
18591TIP3   OH277263   0.101   5.358   3.631 -0.4121 -0.4225  0.6402
18591TIP3    H177264   0.141   5.365   3.544 -1.8878 -1.2560 -0.1580
18591TIP3    H277265   0.105   5.446   3.667  1.3342 -0.3138  0.2565
18592TIP3   OH277266   3.080   5.062   4.325  0.1786 -0.1917  0.2528
18592TIP3    H177267   3.018   5.131   4.303 -0.9792 -1.0414  0.7000
18592TIP3    H277268   3.068   5.049   4.419  0.0838 -1.2539  0.1049
18593TIP3   OH277269   4.438   1.774  15.205 -0.0618  0.0647 -0.3779
18593TIP3    H177270   4.499   1.815  15.143 -0.3733  1.3263  0.1219
18593TIP3    H277271   4.400   1.847  15.253 -0.9585 -0.7990  0.2659
18594TIP3   OH277272   2.538   0.750   2.127 -0.3852  0.0047 -0.4829
18594TIP3    H177273   2.550   0.661   2.093 -0.3516  0.3166 -1.3100
18594TIP3    H277274   2.614   0.764   2.184 -0.8938 -0.8457  0.4500
18595TIP3   OH277275   1.865   0.959   2.085 -0.4553  0.6277  0.4473
18595TIP3    H177276   1.865   0.880   2.030 -1.9587  1.2412 -0.4901
18595TIP3    H277277   1.919   0.935   2.161  1.7915 -0.2275 -1.2838
18596TIP3   OH277278   4.721   6.648  11.789 -0.1770 -0.1150 -0.1036
18596TIP3    H177279   4.679   6.576  11.836 -0.8819  0.5224  0.2568
18596TIP3    H277280   4.809   6.616  11.770 -0.1862 -0.7279  0.8464
18597TIP3   OH277281   5.348   0.777  13.888 -0.5111  0.2041  0.0138
18597TIP3    H177282   5.320   0.856  13.842  0.0260  0.6419  0.4289
18597TIP3    H277283   5.266   0.730  13.906 -0.8699  0.8412  0.0741
18598TIP3   OH277284   0.455   1.106  15.731  0.5104  0.5669 -1.0120
18598TIP3    H177285   0.423   1.193  15.755  1.7479  0.3905  1.6217
18598TIP3    H277286   0.424   1.048  15.800  0.5633 -0.9362 -2.1742
18599TIP3   OH277287   5.325   0.625   4.346 -0.4305  0.1804  0.4233
18599TIP3    H177288   5.377   0.611   4.425 -0.3230  0.8131  0.4718
18599TIP3    H277289   5.388   0.617   4.274 -0.3534  0.4911  0.4551
18600TIP3   OH277290   0.649   1.440  15.368  0.9057  0.0511 -0.0896
18600TIP3    H177291   0.686   1.498  15.434  0.0219 -0.0507  0.5084
18600TIP3    H277292   0.590   1.383  15.417 -0.2183  0.3676 -1.0568
18601TIP3   OH277293   2.688   4.891  17.169  0.1064  0.1368  0.0543
18601TIP3    H177294   2.643   4.929  17.094  0.1063  0.1472  0.0590
18601TIP3    H277295   2.696   4.963  17.231 -0.7427 -0.1070  0.4589
18602TIP3   OH277296   2.112   4.463  16.135 -0.2364 -0.3304 -0.5894
18602TIP3    H177297   2.054   4.525  16.092  2.0756  1.9956 -0.5585
18602TIP3    H277298   2.100   4.479  16.229  1.2459  1.0408 -0.5929
18603TIP3   OH277299   3.938   5.681  12.611 -0.0774  0.4616 -0.5012
18603TIP3    H177300   3.864   5.672  12.550 -1.1099 -0.0330  0.7772
18603TIP3    H277301   3.943   5.775  12.628  1.2258  0.8106 -2.5009
18604TIP3   OH277302   3.204   1.167  14.281  0.3035  0.1433  0.0533
18604TIP3    H177303   3.262   1.143  14.353  1.1179  2.2986  0.1690
18604TIP3    H277304   3.180   1.258  14.298  1.3022  1.0812 -2.8417
18605TIP3   OH277305   2.236   4.776   5.604  0.0515 -0.0403  0.2168
18605TIP3    H177306   2.159   4.768   5.661  0.7038  0.2263  1.1605
18605TIP3    H277307   2.200   4.791   5.517 -1.0085 -1.6310  0.3339
18606TIP3   OH277308   0.209   4.064   2.269  0.1209  0.1048  0.0176
18606TIP3    H177309   0.178   4.155   2.261 -0.7389 -0.2180 -0.4831
18606TIP3    H277310   0.280   4.069   2.333  0.0851  1.1315  0.0051
18607TIP3   OH277311   4.898   2.297   5.743 -0.1726  0.3358 -0.0701
18607TIP3    H177312   4.842   2.300   5.820  0.7103 -0.2119  0.6209
18607TIP3    H277313   4.878   2.212   5.702 -1.0333  0.8564 -0.7742
18608TIP3   OH277314   6.830   4.888   2.519 -0.3634 -0.2422  0.2428
18608TIP3    H177315   6.888   4.864   2.446  0.2675  0.2622  0.5670
18608TIP3    H277316   6.884   4.944   2.575 -0.7659 -0.8115  1.2294
18609TIP3   OH277317   2.055   1.422   3.362  0.4305 -0.2079  0.3008
18609TIP3    H177318   2.016   1.500   3.401 -0.8420 -0.2257 -0.8510
18609TIP3    H277319   2.131   1.403   3.416  1.3454  2.3983  0.0526
18610TIP3   OH277320   5.848   2.157  16.257 -0.1686 -0.6312  0.0494
18610TIP3    H177321   5.793   2.136  16.333 -1.5994  1.2555 -0.3818
18610TIP3    H277322   5.790   2.207  16.199  1.4987 -0.1883 -1.3171
18611TIP3   OH277323   6.649   5.155  13.065 -0.2382  0.1385  0.1143
18611TIP3    H177324   6.614   5.075  13.104 -0.5521  0.1426 -0.1513
18611TIP3    H277325   6.713   5.125  13.001 -0.3668  0.0993  0.0044
18612TIP3   OH277326   6.827   6.269  16.965 -0.5788  0.5342  0.0091
18612TIP3    H177327   6.741   6.310  16.969 -0.9960 -0.2717 -0.5053
18612TIP3    H277328   6.822   6.209  16.890  0.1702 -0.0957  0.4464
18613TIP3   OH277329   6.784   1.977  16.263 -0.3328  0.1941 -0.0359
18613TIP3    H177330   6.866   1.957  16.309 -0.4811 -0.6001 -0.1042
18613TIP3    H277331   6.753   2.058  16.303 -0.4542 -0.4715  1.2559
18614TIP3   OH277332   6.299   0.085  12.104 -0.1673  0.2168  0.0374
18614TIP3    H177333   6.236   0.017  12.127 -2.2601  1.3151 -1.9668
18614TIP3    H277334   6.370   0.039  12.059 -1.0973 -0.7449 -0.4807
18615TIP3   OH277335   2.154   5.896   0.104  0.3595  0.0528 -0.0787
18615TIP3    H177336   2.187   5.821   0.154  1.5958  0.1889 -0.6763
18615TIP3    H277337   2.067   5.868   0.074  0.7550 -1.0892 -0.1873
18616TIP3   OH277338   3.393   3.016  12.779  0.3047 -0.4670 -0.3657
18616TIP3    H177339   3.328   3.082  12.806  0.4405 -0.9202  1.1526
18616TIP3    H277340   3.411   3.037  12.687 -2.6386 -0.8399 -1.1609
18617TIP3   OH277341   5.544   1.711  11.444  0.0134  0.3116 -0.4177
18617TIP3    H177342   5.616   1.711  11.507 -0.1533 -2.8983 -0.0676
18617TIP3    H277343   5.489   1.637  11.469 -3.4153  2.5179 -0.7751
18618TIP3   OH277344   3.344   6.300  12.023  0.2388  0.3282  0.0767
18618TIP3    H177345   3.271   6.355  12.052 -0.2140  0.3247 -1.0291
18618TIP3    H277346   3.312   6.257  11.944  0.9431 -0.7687  0.3684
18619TIP3   OH277347   4.389   0.042  14.554  1.1038  0.5673  0.1463
18619TIP3    H177348   4.468   0.039  14.500  0.5680  2.2374 -0.7998
18619TIP3    H277349   4.403   0.117  14.612  0.7310  0.1144  0.8309
18620TIP3   OH277350   3.649   2.665   2.006 -0.0365  0.2945  0.6838
18620TIP3    H177351   3.688   2.630   1.926  0.7209  1.6885  0.4046
18620TIP3    H277352   3.624   2.755   1.982  0.5407  0.8634  2.1053
18621TIP3   OH277353   4.634   3.552  13.280 -0.4714  0.0283  0.1551
18621TIP3    H177354   4.556   3.496  13.279  0.1161 -0.9191  1.9098
18621TIP3    H277355   4.620   3.611  13.354 -0.1097  0.7356 -0.3393
18622TIP3   OH277356   3.009   6.324   3.758 -0.3784 -0.7520  0.3309
18622TIP3    H177357   3.058   6.406   3.757  1.2648 -1.7114 -0.5790
18622TIP3    H277358   2.934   6.341   3.699  1.1374 -0.5654 -1.6520
18623TIP3   OH277359   2.225   3.442   0.305 -0.6058  0.3055  0.3851
18623TIP3    H177360   2.206   3.517   0.248  0.0090 -1.9614 -3.1483
18623TIP3    H277361   2.320   3.432   0.299 -0.8043 -1.4701 -0.3405
18624TIP3   OH277362   3.484   0.772  14.823 -0.1927 -0.0042 -0.0024
18624TIP3    H177363   3.523   0.859  14.826  0.7032 -0.3066 -1.6798
18624TIP3    H277364   3.480   0.744  14.915  1.4606  0.9594  0.4062
18625TIP3   OH277365   0.073   6.375   5.905 -0.1201 -0.1473  0.5913
18625TIP3    H177366   0.124   6.420   5.838 -1.0061 -0.0103 -0.0046
18625TIP3    H277367   0.135   6.313   5.945  0.3207 -0.4999 -0.6077
18626TIP3   OH277368   5.180   0.435   0.595 -0.0085 -0.4355  0.5884
18626TIP3    H177369   5.160   0.345   0.621  0.1985 -0.5056  0.5033
18626TIP3    H277370   5.184   0.432   0.499 -0.2121 -0.2917  0.5729
18627TIP3   OH277371   5.297   4.943   0.523 -0.4287  0.0064 -0.9635
18627TIP3    H177372   5.328   4.918   0.610 -1.0189 -1.8200 -1.2415
18627TIP3    H277373   5.325   5.034   0.513  2.5587 -0.7143 -0.1624
18628TIP3   OH277374   4.788   4.250   2.994 -0.5433 -0.4411 -0.2433
18628TIP3    H177375   4.779   4.167   3.041 -1.8361 -0.8896 -1.1897
18628TIP3    H277376   4.872   4.285   3.021  1.6549 -3.6545 -2.1984
18629TIP3   OH277377   3.466   5.209  17.057 -0.8206  0.4711 -0.5748
18629TIP3    H177378   3.389   5.153  17.043  0.4965 -1.4663 -0.5416
18629TIP3    H277379   3.467   5.224  17.152 -1.3185  0.7621 -0.6137
18630TIP3   OH277380   6.223   5.061   1.789  0.0480  0.2044  0.0388
18630TIP3    H177381   6.274   4.983   1.810  1.1110  0.5345 -1.2419
18630TIP3    H277382   6.136   5.027   1.766  0.0987 -0.4771  0.7900
18631TIP3   OH277383   0.645   6.021   5.651 -0.3064 -0.5680  0.3088
18631TIP3    H177384   0.559   6.019   5.609  0.0680 -1.8705 -0.4671
18631TIP3    H277385   0.643   6.098   5.707 -2.1766 -0.8700  0.7196
18632TIP3   OH277386   3.260   4.692  12.434 -0.2045 -0.1141  0.5707
18632TIP3    H177387   3.279   4.604  12.465 -2.5074 -0.4934  1.0943
18632TIP3    H277388   3.282   4.691  12.341 -1.2402 -1.6064  0.3145
18633TIP3   OH277389   5.934   4.891  16.559  0.6143  0.0469 -0.0721
18633TIP3    H177390   5.882   4.966  16.585  0.4151 -0.2957  0.5351
18633TIP3    H277391   5.919   4.882  16.465  0.3852  0.5651 -0.0842
18634TIP3   OH277392   3.857   1.171   5.580  0.7544  0.4295  0.0582
18634TIP3    H177393   3.828   1.261   5.566 -2.9358 -0.8036 -1.2976
18634TIP3    H277394   3.866   1.135   5.493 -0.0270 -1.0856  0.5721
18635TIP3   OH277395   4.516   0.899   4.175 -0.7368 -0.3957  0.1248
18635TIP3    H177396   4.577   0.970   4.192 -0.4045 -0.4484 -0.8407
18635TIP3    H277397   4.429   0.939   4.179 -0.7895 -0.5818  2.9781
18636TIP3   OH277398   2.823   6.716   1.611  0.2484 -0.1684  0.8965
18636TIP3    H177399   2.793   6.783   1.549  0.7334  0.1554  1.0074
18636TIP3    H277400   2.750   6.707   1.673 -0.2830 -0.5770  0.2223
18637TIP3   OH277401   2.965   3.813   4.625  0.4122 -0.0701  0.3272
18637TIP3    H177402   3.013   3.768   4.556  0.3179  1.9333 -1.1052
18637TIP3    H277403   3.029   3.872   4.665  0.1537 -0.3522  1.2010
18638TIP3   OH277404   0.257   2.793   1.994  0.0788  0.6910 -0.0354
18638TIP3    H177405   0.340   2.750   2.014  0.7126  1.2092 -1.4280
18638TIP3    H277406   0.255   2.869   2.053  1.2966  1.4796 -0.9542
18639TIP3   OH277407   2.881   0.373  15.908 -0.0618 -0.5213 -0.0908
18639TIP3    H177408   2.805   0.315  15.900 -0.0950 -0.4620 -0.2115
18639TIP3    H277409   2.857   0.451  15.858 -0.5868  0.1919  1.2114
18640TIP3   OH277410   5.568   2.410   0.327 -0.9006 -0.5509  0.5635
18640TIP3    H177411   5.514   2.465   0.384 -0.6962  1.0476 -0.7241
18640TIP3    H277412   5.597   2.338   0.384 -2.0246  0.0955  2.0211
18641TIP3   OH277413   1.287   3.734   1.591 -0.0995  0.0357 -0.3204
18641TIP3    H177414   1.337   3.676   1.648  3.0387  0.1856 -2.6758
18641TIP3    H277415   1.209   3.682   1.567 -0.0288 -1.1021  1.7106
18642TIP3   OH277416   6.836   4.506  15.773  0.2379 -0.0123  0.2020
18642TIP3    H177417   6.892   4.569  15.726  0.5627 -1.0576 -0.8724
18642TIP3    H277418   6.780   4.469  15.705  2.4455 -3.4394  0.0326
18643TIP3   OH277419   4.795   1.351   1.143 -0.2407 -0.3365 -0.4745
18643TIP3    H177420   4.750   1.408   1.081 -2.0479  2.0688  2.7416
18643TIP3    H277421   4.732   1.280   1.160 -1.4408  1.0649  1.2973
18644TIP3   OH277422   2.157   4.516  14.046  0.1596  0.1512  0.2218
18644TIP3    H177423   2.123   4.551  14.129 -0.4842 -1.0982  0.5063
18644TIP3    H277424   2.129   4.580  13.980 -3.1144 -0.9474  0.3858
18645TIP3   OH277425   3.552   4.563  11.646  0.0418  0.1292 -0.2561
18645TIP3    H177426   3.578   4.488  11.592 -0.7356 -0.3621  0.0421
18645TIP3    H277427   3.477   4.532  11.696  0.0200  0.9549  0.2434
18646TIP3   OH277428   5.578   3.447  11.919  0.7099 -0.2778 -0.2624
18646TIP3    H177429   5.607   3.365  11.879  2.8436  0.4020 -0.2892
18646TIP3    H277430   5.572   3.427  12.012  0.4685 -0.6591 -0.3573
18647TIP3   OH277431   3.596   4.119  13.284 -0.4550  0.2267 -0.1525
18647TIP3    H177432   3.640   4.202  13.303 -0.9088  1.1565 -2.7597
18647TIP3    H277433   3.550   4.097  13.365  2.3075  0.7362  1.7109
18648TIP3   OH277434   0.139   4.311   2.326 -0.4928 -0.5137  0.3307
18648TIP3    H177435   0.141   4.395   2.280 -3.3901 -0.6655 -0.2751
18648TIP3    H277436   0.141   4.335   2.419  1.4091  0.0090  0.1990
18649TIP3   OH277437   5.510   3.851  16.223  0.0754 -0.0788  0.1127
18649TIP3    H177438   5.603   3.857  16.203  0.3714 -2.3307  0.4703
18649TIP3    H277439   5.470   3.924  16.176  1.7066 -0.5744 -2.2439
18650TIP3   OH277440   4.598   3.842  11.720  0.1303 -0.0469 -0.1900
18650TIP3    H177441   4.513   3.806  11.695  0.1532  0.5523 -1.1745
18650TIP3    H277442   4.662   3.791  11.669  0.4236 -0.8701  0.9571
18651TIP3   OH277443   2.708   2.628   1.580 -0.1952  0.4430  0.1441
18651TIP3    H177444   2.753   2.710   1.562  1.0751 -0.4059 -0.7445
18651TIP3    H277445   2.774   2.560   1.565 -1.5358 -0.8108 -0.3767
18652TIP3   OH277446   3.974   0.129   1.078  0.2508 -0.6635 -0.1375
18652TIP3    H177447   3.995   0.207   1.131 -0.9004  0.6503 -1.5084
18652TIP3    H277448   3.895   0.094   1.119 -0.5448  0.2585 -0.8067
18653TIP3   OH277449   2.633   5.529   3.031 -0.2725 -0.0852  0.0497
18653TIP3    H177450   2.538   5.520   3.035 -0.2136 -0.3285  1.3810
18653TIP3    H277451   2.666   5.458   3.086  0.7238 -0.5677 -1.1237
18654TIP3   OH277452   3.532   6.734  13.646  0.4828 -0.2192  0.7100
18654TIP3    H177453   3.571   6.654  13.612  0.7112  0.3665 -0.4861
18654TIP3    H277454   3.602   6.777  13.694  0.2097 -0.9740  1.8133
18655TIP3   OH277455   5.700   3.495   3.796 -0.2720  0.1575  0.5664
18655TIP3    H177456   5.666   3.566   3.743  0.1698 -0.1774 -0.1844
18655TIP3    H277457   5.622   3.453   3.833 -0.7504 -0.8191 -1.4001
18656TIP3   OH277458   6.600   2.976  13.462  0.3970  0.2325 -0.6098
18656TIP3    H177459   6.622   2.969  13.369 -2.7045 -0.3270 -1.4067
18656TIP3    H277460   6.554   3.060  13.469  1.1632  0.5654  0.5677
18657TIP3   OH277461   6.263   4.444  11.400  0.5135 -0.0776  0.1511
18657TIP3    H177462   6.290   4.460  11.491  0.7310  0.4745 -0.0101
18657TIP3    H277463   6.322   4.498  11.347 -0.9556  1.2469 -0.2074
18658TIP3   OH277464   4.842   0.172  13.074 -0.8393  0.8689 -0.1498
18658TIP3    H177465   4.880   0.238  13.132 -0.6559  0.0894  0.6309
18658TIP3    H277466   4.916   0.140  13.022 -0.9441  1.3322 -0.5908
18659TIP3   OH277467   0.171   2.282  12.045  0.7147 -0.0738  0.0730
18659TIP3    H177468   0.266   2.291  12.031  0.6480  0.4782 -0.0276
18659TIP3    H277469   0.158   2.308  12.136  0.7485 -0.8219  0.2985
18660TIP3   OH277470   1.802   4.060  11.471 -0.1544  0.2348 -0.3268
18660TIP3    H177471   1.751   4.131  11.432  1.1378  0.9322 -0.8188
18660TIP3    H277472   1.825   4.003  11.397  0.0445  0.0971 -0.1610
18661TIP3   OH277473   5.414   2.267  16.321  0.1686  0.0747 -0.7903
18661TIP3    H177474   5.411   2.358  16.352  0.3151 -0.3980  0.7063
18661TIP3    H277475   5.333   2.228  16.353  1.5788 -1.1688  1.5268
18662TIP3   OH277476   1.242   2.612   5.162  0.1048 -0.6819 -0.2627
18662TIP3    H177477   1.214   2.590   5.250 -1.4930 -0.9861 -0.8164
18662TIP3    H277478   1.163   2.605   5.109  0.5378  1.6647 -1.3505
18663TIP3   OH277479   1.529   6.830   3.129  0.2591  0.3215 -0.2471
18663TIP3    H177480   1.624   6.825   3.113  0.2450  1.9224 -0.9920
18663TIP3    H277481   1.491   6.850   3.044 -0.6728  0.5994  0.2197
18664TIP3   OH277482   0.679   2.284   2.038 -0.4939  0.0768 -0.4467
18664TIP3    H177483   0.696   2.248   1.952 -2.2784  0.0481 -0.8294
18664TIP3    H277484   0.644   2.210   2.089 -1.2778  0.5294 -0.3070
18665TIP3   OH277485   1.047   2.877   1.187  0.0318 -0.2858  0.3504
18665TIP3    H177486   0.975   2.939   1.176 -0.1200 -0.4023  0.6896
18665TIP3    H277487   1.124   2.932   1.197  0.0983 -0.1635 -0.7253
18666TIP3   OH277488   5.567   6.678  15.389  0.0128  0.7586  0.2423
18666TIP3    H177489   5.653   6.709  15.417  0.2038 -0.3679  0.9582
18666TIP3    H277490   5.580   6.587  15.364 -0.9239  0.6390  0.1374
18667TIP3   OH277491   3.212   1.603  13.708 -0.0885 -0.9181 -0.3967
18667TIP3    H177492   3.297   1.561  13.693  0.9756  1.0266 -0.2362
18667TIP3    H277493   3.205   1.608  13.803 -0.2963 -0.9202 -0.4133
18668TIP3   OH277494   5.081   6.826  11.762 -0.1860 -0.0241  0.5904
18668TIP3    H177495   5.116   6.742  11.792  2.1419  0.6677 -0.0021
18668TIP3    H277496   5.156   6.870  11.722 -1.9882  1.2230 -1.5923
18669TIP3   OH277497   3.051   0.654   5.330 -0.1942  0.1409  0.1954
18669TIP3    H177498   3.072   0.708   5.406  0.9831  0.3150 -0.2188
18669TIP3    H277499   3.070   0.564   5.357 -0.1162  0.1654  0.2213
18670TIP3   OH277500   5.928   3.831   2.643  0.2464 -0.1281  0.4515
18670TIP3    H177501   5.903   3.740   2.660  0.2705 -0.2287 -0.0387
18670TIP3    H277502   5.962   3.830   2.553 -0.1980  0.4544  0.2758
18671TIP3   OH277503   2.390   3.208   1.932  0.1613 -0.2636 -0.2368
18671TIP3    H177504   2.423   3.275   1.872  0.1534 -0.1333 -0.0944
18671TIP3    H277505   2.301   3.236   1.952  0.9413  1.0296  1.7624
18672TIP3   OH277506   1.248   3.752  12.088 -0.2628  0.5251 -0.7605
18672TIP3    H177507   1.219   3.841  12.068 -0.9825  0.5813  0.4069
18672TIP3    H277508   1.241   3.745  12.184  0.3889 -0.5815 -0.7674
18673TIP3   OH277509   5.658   1.906   3.086 -0.1432  0.1361 -0.8339
18673TIP3    H177510   5.565   1.900   3.065  0.2716 -0.7415 -2.5278
18673TIP3    H277511   5.698   1.947   3.009  0.6951  1.9049  0.4662
18674TIP3   OH277512   1.046   5.018   5.714  0.8829  0.5618 -0.5567
18674TIP3    H177513   1.142   5.024   5.718  0.8247  0.9867  0.8768
18674TIP3    H277514   1.016   5.102   5.750 -0.0442  0.7592 -1.7446
18675TIP3   OH277515   0.471   3.075   0.975 -0.5558 -0.6324 -0.6615
18675TIP3    H177516   0.552   3.124   0.960  0.3179 -2.1461 -1.1922
18675TIP3    H277517   0.485   3.030   1.058 -1.4884  0.2757  0.0009
18676TIP3   OH277518   2.067   4.688  12.871  0.8875  0.3711 -0.2737
18676TIP3    H177519   2.142   4.736  12.907  0.5787  3.0624 -2.7919
18676TIP3    H277520   2.076   4.699  12.776 -1.7993 -0.6622 -0.7146
18677TIP3   OH277521   4.731   5.262   2.827 -0.6517  0.4480  0.0547
18677TIP3    H177522   4.674   5.325   2.872 -2.4288 -0.2384 -1.1322
18677TIP3    H277523   4.673   5.215   2.768  1.3433  0.3062 -1.9114
18678TIP3   OH277524   3.889   5.966   0.783  0.0880  0.6082  0.0644
18678TIP3    H177525   3.858   6.012   0.861  2.2319 -0.5394  1.7054
18678TIP3    H277526   3.958   5.908   0.815 -0.0030 -1.0620 -2.4758
18679TIP3   OH277527   3.463   2.123   3.102 -0.1196  0.4541  0.5324
18679TIP3    H177528   3.426   2.100   3.017  0.7407 -1.6862  0.6703
18679TIP3    H277529   3.429   2.056   3.162  0.6428  0.9139  1.5117
18680TIP3   OH277530   1.163   0.519   1.947 -0.2084  0.7178  0.2994
18680TIP3    H177531   1.128   0.434   1.921  1.0300 -0.2975  1.7507
18680TIP3    H277532   1.116   0.582   1.893  0.6527 -1.0460 -2.7098
18681TIP3   OH277533   5.247   5.011   0.948  0.1161  0.3740 -0.6977
18681TIP3    H177534   5.334   4.992   0.913  0.7680  0.9005  0.5766
18681TIP3    H277535   5.222   5.094   0.906  0.8963  1.0062  0.0510
18682TIP3   OH277536   0.096   2.287   0.303 -0.1343  0.0232  0.0119
18682TIP3    H177537   0.189   2.265   0.293  0.0226  0.9916 -0.8924
18682TIP3    H277538   0.093   2.382   0.297 -1.3920 -0.0795 -2.1308
18683TIP3   OH277539   4.232   3.858  12.355 -0.1962 -0.6034 -0.0006
18683TIP3    H177540   4.141   3.878  12.380 -0.1869 -1.5149  0.8171
18683TIP3    H277541   4.274   3.833  12.437  1.0081  0.5193 -0.2390
18684TIP3   OH277542   4.220   2.804  14.908 -0.1129  0.5996  0.5396
18684TIP3    H177543   4.275   2.750  14.851 -1.0405 -1.0233  1.1259
18684TIP3    H277544   4.201   2.882  14.856  1.0150  0.2435 -0.4508
18685TIP3   OH277545   6.605   6.605   1.872  0.5289  0.1928 -0.4398
18685TIP3    H177546   6.536   6.641   1.817  0.2502 -0.4046 -0.4936
18685TIP3    H277547   6.591   6.645   1.958  0.7835  0.8954 -0.7209
18686TIP3   OH277548   1.603   4.730   0.862 -0.0844  0.3966 -0.5033
18686TIP3    H177549   1.635   4.648   0.825  1.1619  0.5867  0.0912
18686TIP3    H277550   1.679   4.766   0.910 -1.6443 -0.0186  2.5395
18687TIP3   OH277551   4.751   1.151   2.326  0.4168  0.9888  0.2997
18687TIP3    H177552   4.781   1.216   2.390 -1.0300 -0.9295  3.1511
18687TIP3    H277553   4.706   1.085   2.379  0.0900 -1.3416 -2.6480
18688TIP3   OH277554   5.146   3.714  10.510  0.6065  0.3669  0.0044
18688TIP3    H177555   5.217   3.663  10.471  0.5224 -0.6390  1.1140
18688TIP3    H277556   5.075   3.708  10.446  1.2901  0.8460 -0.8195
18689TIP3   OH277557   5.545   4.600   3.691 -0.5719 -0.1262  0.2978
18689TIP3    H177558   5.545   4.589   3.786  1.5522  1.3220  0.5477
18689TIP3    H277559   5.590   4.683   3.677 -0.9059 -0.2790 -1.9830
18690TIP3   OH277560   6.341   3.927   2.662 -0.4300  0.2125  0.3035
18690TIP3    H177561   6.402   3.908   2.733  1.6625  2.1421 -0.7868
18690TIP3    H277562   6.366   4.015   2.633 -0.8984 -0.5955 -3.0165
18691TIP3   OH277563   1.338   1.690  12.176 -0.1794 -0.4046  0.2148
18691TIP3    H177564   1.402   1.695  12.105 -0.3612 -2.4221 -0.1673
18691TIP3    H277565   1.316   1.597  12.181 -0.6656 -0.2227  2.4961
18692TIP3   OH277566   2.436   4.082   3.956 -0.0879 -0.0792  0.1761
18692TIP3    H177567   2.484   4.147   4.007  1.3393  1.4532 -2.8607
18692TIP3    H277568   2.459   3.998   3.995  1.6022  0.9281  1.4717
18693TIP3   OH277569   5.016   1.774   5.408 -0.7142  0.2223  0.3065
18693TIP3    H177570   4.962   1.848   5.380 -0.8852 -0.3799 -0.9881
18693TIP3    H277571   5.106   1.807   5.405 -0.4005 -0.5500 -3.7212
18694TIP3   OH277572   4.101   3.821  11.409  0.3466  0.3240  0.1912
18694TIP3    H177573   4.177   3.776  11.446  0.0420 -0.3260  0.0560
18694TIP3    H277574   4.026   3.770  11.439 -0.0249  0.8535  0.1752
18695TIP3   OH277575   0.491   1.214  12.014  0.0457  0.2280 -0.5791
18695TIP3    H177576   0.428   1.152  11.977  0.5369  1.1638 -3.1980
18695TIP3    H277577   0.543   1.162  12.075 -2.1344 -0.9513  0.3920
18696TIP3   OH277578   4.537   1.190  13.673 -0.4985 -0.0227 -0.8431
18696TIP3    H177579   4.450   1.155  13.695 -0.7781  1.4550  0.6035
18696TIP3    H277580   4.598   1.136  13.722 -0.6711 -0.3954 -1.0307
18697TIP3   OH277581   3.560   5.856  16.067  0.0339  0.3534 -0.3845
18697TIP3    H177582   3.483   5.808  16.099  0.0304  0.6627  0.0934
18697TIP3    H277583   3.527   5.909  15.994 -0.4759  1.3328  0.5231
18698TIP3   OH277584   0.756   0.554   1.963 -0.0090 -0.1843  0.3154
18698TIP3    H177585   0.818   0.497   2.007 -0.8176 -0.0433  1.7286
18698TIP3    H277586   0.712   0.600   2.035 -0.8224  0.6677 -0.6990
18699TIP3   OH277587   2.805   5.267  16.071 -0.0447 -0.0070 -0.3683
18699TIP3    H177588   2.813   5.181  16.112 -2.3888 -0.0585  0.1040
18699TIP3    H277589   2.749   5.253  15.994 -1.0257  1.1691  0.0888
18700TIP3   OH277590   3.697   0.231   1.355 -0.5016 -0.4170 -0.1747
18700TIP3    H177591   3.785   0.264   1.369 -0.7147  0.0596  0.0673
18700TIP3    H277592   3.688   0.223   1.260 -0.7000  0.9420 -0.2907
18701TIP3   OH277593   0.697   4.724  11.428  0.3537  0.2760  0.1254
18701TIP3    H177594   0.654   4.809  11.416 -1.0160 -0.4977 -0.8050
18701TIP3    H277595   0.635   4.674  11.482 -0.1565 -0.9995 -1.5551
18702TIP3   OH277596   0.661   2.440  15.233 -0.1953  0.1735  0.0369
18702TIP3    H177597   0.693   2.355  15.204 -0.0445 -0.0361  0.7859
18702TIP3    H277598   0.628   2.482  15.154 -1.0136 -0.8986 -0.2075
18703TIP3   OH277599   4.885   1.726   5.006 -0.1716  0.5193 -0.0603
18703TIP3    H177600   4.841   1.796   4.957  0.7719 -0.9389 -3.2301
18703TIP3    H277601   4.970   1.762   5.030 -0.4175  1.0553  0.0163
18704TIP3   OH277602   2.189   1.105  13.578  0.9899  0.4521  0.3994
18704TIP3    H177603   2.246   1.158  13.522  2.0571 -0.7243  0.3217
18704TIP3    H277604   2.249   1.062  13.639  0.1264 -0.4040  0.6723
18705TIP3   OH277605   0.885   0.680  11.269  0.4006  0.1411 -0.7086
18705TIP3    H177606   0.852   0.751  11.215 -0.0749  0.4086 -0.0767
18705TIP3    H277607   0.810   0.654  11.323  1.4281  1.4743  1.5311
18706TIP3   OH277608   3.778   0.833  10.020  0.2838 -0.5951 -0.1135
18706TIP3    H177609   3.694   0.840  10.066  0.2850  2.6127 -0.3809
18706TIP3    H277610   3.837   0.797  10.085 -0.9713 -1.5918  0.5255
18707TIP3   OH277611   1.497   4.424  16.182  0.1501 -0.3304  0.0579
18707TIP3    H177612   1.438   4.494  16.209  2.1554  1.7542 -0.7013
18707TIP3    H277613   1.561   4.417  16.253  1.6111  0.6443 -1.1009
18708TIP3   OH277614   0.967   4.156  15.474  0.3312  0.4579  0.3300
18708TIP3    H177615   1.054   4.121  15.456  0.0471 -0.5981  0.8769
18708TIP3    H277616   0.966   4.173  15.568  0.7314  2.8179 -0.0377
18709TIP3   OH277617   5.737   2.295  14.717  0.2590  0.4067  0.6449
18709TIP3    H177618   5.676   2.238  14.765  1.0436 -1.7733 -0.7830
18709TIP3    H277619   5.681   2.364  14.681 -2.1596 -3.0097 -3.0636
18710TIP3   OH277620   6.045   0.460  12.498 -0.3780 -0.4588  0.4910
18710TIP3    H177621   6.009   0.373  12.482 -1.9176  0.0513  0.9486
18710TIP3    H277622   6.069   0.493  12.411  0.3744 -1.3902  0.3371
18711TIP3   OH277623   5.913   6.392   2.696  0.8471  0.5267 -0.1704
18711TIP3    H177624   5.943   6.462   2.753 -0.0716  0.3807  0.5237
18711TIP3    H277625   5.970   6.396   2.620  1.3294  1.4943  0.2306
18712TIP3   OH277626   3.404   0.769   4.741  0.2224 -0.4601  0.9384
18712TIP3    H177627   3.481   0.823   4.753  0.7730 -0.6550 -1.2039
18712TIP3    H277628   3.437   0.689   4.699 -1.0562 -0.8213  0.5634
18713TIP3   OH277629   0.967   4.501  15.586  0.2477  0.0129  0.1972
18713TIP3    H177630   0.940   4.568  15.650 -1.0076  0.7788 -1.0649
18713TIP3    H277631   1.053   4.472  15.616  0.3871  1.4910  1.3437
18714TIP3   OH277632   2.379   0.440   2.479  0.2486 -0.1037  0.0219
18714TIP3    H177633   2.390   0.439   2.574  0.5808 -0.3441 -0.0159
18714TIP3    H277634   2.301   0.388   2.463  0.3002 -0.2208  0.1485
18715TIP3   OH277635   0.969   3.311   2.855 -0.1701  0.3754  0.6631
18715TIP3    H177636   1.039   3.298   2.791 -0.4243  0.5454  0.3493
18715TIP3    H277637   0.909   3.238   2.839  0.4716 -0.4054  1.6612
18716TIP3   OH277638   6.812   5.306   1.358  0.1232 -0.2153 -0.1658
18716TIP3    H177639   6.744   5.240   1.344  0.6635 -0.9442  0.5507
18716TIP3    H277640   6.820   5.312   1.453  1.7072 -0.8430 -0.2279
18717TIP3   OH277641   3.950   4.278   1.447  0.8571 -0.8343  0.1755
18717TIP3    H177642   3.864   4.313   1.472  0.5162 -1.0829 -0.6183
18717TIP3    H277643   4.006   4.296   1.523  0.0731 -0.7968  0.7576
18718TIP3   OH277644   0.231   6.342   1.556  0.2892 -0.5963  0.0392
18718TIP3    H177645   0.170   6.415   1.542  1.0259  0.1407  0.6027
18718TIP3    H277646   0.249   6.308   1.468 -0.1381 -0.1740 -0.2168
18719TIP3   OH277647   6.011   1.151   0.042  0.1694 -0.4953 -0.0641
18719TIP3    H177648   6.028   1.200  -0.039 -0.8662 -0.0828 -0.0516
18719TIP3    H277649   5.916   1.155   0.052  0.2376 -1.0461  0.8690
18720TIP3   OH277650   1.641   0.757  15.078  0.0647 -0.1262  0.4731
18720TIP3    H177651   1.566   0.724  15.128 -1.1309 -0.2631 -1.3312
18720TIP3    H277652   1.659   0.843  15.117 -3.2729  1.5076 -1.1291
18721TIP3   OH277653   0.006   3.555  11.548  0.0390  0.3368 -0.1694
18721TIP3    H177654   0.047   3.590  11.627 -0.6963  2.0187 -0.4846
18721TIP3    H277655   0.012   3.627  11.484 -0.8511 -0.4016 -1.1161
18722TIP3   OH277656   2.080   0.555   0.239 -0.1498 -0.1051  0.3548
18722TIP3    H177657   2.148   0.565   0.173  0.1270  0.0564  0.6604
18722TIP3    H277658   1.999   0.580   0.194 -0.2844 -1.9496 -0.5156
18723TIP3   OH277659   5.228   5.266  14.110 -0.3751  0.3534 -0.2914
18723TIP3    H177660   5.254   5.356  14.093  1.7217 -0.1635 -0.1427
18723TIP3    H277661   5.222   5.226  14.023 -5.6112  1.5331 -0.8250
18724TIP3   OH277662   2.791   4.930   4.665 -0.3101 -0.6647  0.2595
18724TIP3    H177663   2.700   4.901   4.654 -0.5366 -0.0780  0.5441
18724TIP3    H277664   2.795   4.964   4.754 -0.2812  0.9301 -0.3149
18725TIP3   OH277665   6.810   5.861   4.233 -0.5441 -0.0208 -0.3630
18725TIP3    H177666   6.877   5.854   4.166 -0.5568  0.0297 -0.3815
18725TIP3    H277667   6.762   5.941   4.211 -0.8921 -0.2935 -0.6092
18726TIP3   OH277668   0.234   2.830   4.894  0.2808  0.2186  0.2365
18726TIP3    H177669   0.246   2.795   4.983 -0.1729 -1.0524 -0.1854
18726TIP3    H277670   0.180   2.765   4.850  1.5959  0.1578 -1.3951
18727TIP3   OH277671   6.136   2.947  16.109  0.3702  0.1954 -0.1485
18727TIP3    H177672   6.061   2.938  16.051 -0.8471  0.0478  1.3729
18727TIP3    H277673   6.117   2.887  16.182 -0.5109  3.5844  2.6995
18728TIP3   OH277674   0.876   4.289   4.911  0.1997  0.1345 -0.1650
18728TIP3    H177675   0.960   4.248   4.893  0.9518  1.6492 -0.2886
18728TIP3    H277676   0.870   4.361   4.847 -1.3693 -0.1846 -0.4161
18729TIP3   OH277677   1.369   0.549  14.795 -0.0989 -0.6278  0.1931
18729TIP3    H177678   1.388   0.642  14.809  0.0027 -0.5887 -0.1745
18729TIP3    H277679   1.357   0.513  14.882 -1.2456 -0.0350  0.3065
18730TIP3   OH277680   4.639   3.611  12.508  0.1935 -0.2034  0.3829
18730TIP3    H177681   4.702   3.677  12.536 -1.6135  1.7273  0.0690
18730TIP3    H277682   4.691   3.550  12.456  2.0415  0.5705  1.2276
18731TIP3   OH277683   2.494   5.822  14.086 -0.1424  0.0940 -0.4336
18731TIP3    H177684   2.531   5.895  14.135  0.1805  0.2567 -0.9175
18731TIP3    H277685   2.462   5.861  14.005  1.4496 -0.5147 -1.4084
18732TIP3   OH277686   4.804   6.254   5.984 -0.6684  0.8467 -0.1745
18732TIP3    H177687   4.896   6.233   5.998 -0.9177  0.6816  1.3072
18732TIP3    H277688   4.756   6.179   6.018 -1.3508  0.3773 -2.0446
18733TIP3   OH277689   6.509   0.699  11.700 -0.3574  0.1778 -0.2003
18733TIP3    H177690   6.531   0.704  11.607 -1.1445 -0.1481 -0.4165
18733TIP3    H277691   6.552   0.619  11.731  0.5700  0.7074 -0.0822
18734TIP3   OH277692   4.178   5.181   0.235  0.2510 -0.3715  0.0224
18734TIP3    H177693   4.108   5.117   0.244  0.7149 -1.1767 -1.6631
18734TIP3    H277694   4.247   5.135   0.186  1.4790  0.7527  0.6211
18735TIP3   OH277695   2.055   4.127  13.341 -0.2723  0.4508  0.5785
18735TIP3    H177696   1.995   4.190  13.302  0.9420  1.4448  0.2569
18735TIP3    H277697   2.141   4.170  13.337  0.7314 -1.5216 -0.3477
18736TIP3   OH277698   0.339   2.552  16.345 -0.1290 -0.0173  0.3790
18736TIP3    H177699   0.396   2.605  16.401 -1.3099  1.3854  0.3191
18736TIP3    H277700   0.254   2.596  16.349 -1.1997 -1.9618  0.3644
18737TIP3   OH277701   0.297   4.640   2.515  0.0204 -0.0090  0.5676
18737TIP3    H177702   0.242   4.649   2.437  1.1738 -0.0921 -0.2797
18737TIP3    H277703   0.274   4.555   2.551  0.4344 -0.5677 -0.4578
18738TIP3   OH277704   3.466   2.764   2.506 -0.2460  0.0610 -0.1590
18738TIP3    H177705   3.499   2.846   2.469  0.1655 -0.5753 -1.2540
18738TIP3    H277706   3.402   2.791   2.572  0.5292  1.2715  0.1258
18739TIP3   OH277707   3.899   2.048  11.203 -0.1248 -0.0072  0.2591
18739TIP3    H177708   3.923   1.977  11.263 -0.5610  0.2035  0.6881
18739TIP3    H277709   3.900   2.127  11.258 -4.1505 -0.2405  0.9534
18740TIP3   OH277710   5.794   0.116   5.243  0.2095 -0.0855 -0.2350
18740TIP3    H177711   5.850   0.136   5.168  1.0121 -0.3847  0.2702
18740TIP3    H277712   5.793   0.197   5.295 -1.0068  0.3881 -0.9647
18741TIP3   OH277713   3.196   0.972  13.897 -0.1833 -0.4428  0.0389
18741TIP3    H177714   3.158   1.058  13.913 -0.1205 -0.3691 -0.1985
18741TIP3    H277715   3.270   0.966  13.958  0.0296 -0.1842 -0.1899
18742TIP3   OH277716   5.923   1.340   3.555 -0.5528  0.6597 -0.1489
18742TIP3    H177717   6.007   1.384   3.542 -0.0710 -0.7131 -2.2211
18742TIP3    H277718   5.944   1.261   3.604 -0.2536 -0.6482 -2.2752
18743TIP3   OH277719   4.829   2.213  13.475 -0.3010 -0.0410  0.0299
18743TIP3    H177720   4.902   2.221  13.537  1.1552  0.7114 -1.6941
18743TIP3    H277721   4.793   2.301  13.468  0.2135  0.1176 -0.9039
18744TIP3   OH277722   3.515   2.192  14.225 -0.1230  0.4632 -0.1240
18744TIP3    H177723   3.441   2.252  14.215 -1.2376 -1.0646 -1.7741
18744TIP3    H277724   3.522   2.148  14.140 -0.4335 -2.8759  1.3916
18745TIP3   OH277725   2.554   5.393   2.003  0.6303 -0.3847  0.0624
18745TIP3    H177726   2.523   5.481   1.981 -1.0237 -1.2798 -1.4898
18745TIP3    H277727   2.625   5.408   2.065 -0.8108  1.9502  1.3117
18746TIP3   OH277728   5.115   0.296  11.637  0.1207  0.3839 -0.3425
18746TIP3    H177729   5.206   0.272  11.657  0.0238  0.2035 -0.1123
18746TIP3    H277730   5.114   0.391  11.638  0.1017  0.3811  0.5878
18747TIP3   OH277731   0.916   2.728   2.768 -0.1490  0.1012 -0.4016
18747TIP3    H177732   0.907   2.633   2.776 -1.2527  0.2476  0.3331
18747TIP3    H277733   0.892   2.762   2.854 -0.2642  1.0806 -0.8070
18748TIP3   OH277734   4.320   5.814   1.521  0.1272 -0.1952 -0.1496
18748TIP3    H177735   4.370   5.733   1.529  0.8242  0.2752  0.3678
18748TIP3    H277736   4.230   5.789   1.539  0.5075 -0.6465  1.2253
18749TIP3   OH277737   2.284   0.004   2.198  0.5432 -0.0160 -0.1909
18749TIP3    H177738   2.315   0.080   2.150 -1.3998  0.0674 -1.4304
18749TIP3    H277739   2.359  -0.056   2.200  2.2575  2.0287  1.2041
18750TIP3   OH277740   4.556   5.909   4.285 -0.3933  0.5970 -0.0755
18750TIP3    H177741   4.537   5.995   4.247 -2.1524 -0.5052 -1.8623
18750TIP3    H277742   4.548   5.923   4.380 -0.4446  2.4364 -0.3243
18751TIP3   OH277743   5.166   0.678   1.574 -0.9102 -0.5461  0.3496
18751TIP3    H177744   5.211   0.656   1.656  1.7372  3.0710  0.0944
18751TIP3    H277745   5.104   0.747   1.599  0.6425  1.3306 -0.7153
18752TIP3   OH277746   1.003   3.131  14.862 -0.1498  0.2907  0.3540
18752TIP3    H177747   0.933   3.143  14.927 -1.1532 -0.8469 -0.4742
18752TIP3    H277748   0.966   3.070  14.798  1.2974  0.3568 -0.5860
18753TIP3   OH277749   6.494   5.930  10.715 -0.5151 -0.1357 -0.0906
18753TIP3    H177750   6.413   5.880  10.721 -1.1256  0.6198 -1.6230
18753TIP3    H277751   6.468   6.021  10.727  0.2363  0.0437  0.2803
18754TIP3   OH277752   3.851   4.290  17.142  0.3220 -0.3303 -0.4974
18754TIP3    H177753   3.790   4.251  17.079  0.0814  1.0086 -1.1195
18754TIP3    H277754   3.935   4.250  17.122  0.1450 -0.3046 -1.3324
18755TIP3   OH277755   4.069   5.129  14.137 -0.8181 -0.5163 -0.3204
18755TIP3    H177756   4.063   5.184  14.059 -0.3239 -1.1942 -0.8574
18755TIP3    H277757   4.160   5.100  14.138 -1.0332 -1.1977  0.0298
18756TIP3   OH277758   1.707   6.642   2.027  0.3041 -0.4446  0.2663
18756TIP3    H177759   1.642   6.572   2.029 -0.9788  0.6251 -1.3718
18756TIP3    H277760   1.656   6.722   2.038  0.7061  0.7308 -4.3229
18757TIP3   OH277761   5.137   2.817  13.618 -0.7161 -0.2326 -0.3420
18757TIP3    H177762   5.045   2.842  13.631 -0.3187  0.2085  2.0912
18757TIP3    H277763   5.177   2.827  13.704  1.6165 -0.5275 -1.3195
18758TIP3   OH277764   0.480   3.100   4.459  0.3726  0.1187 -0.5210
18758TIP3    H177765   0.393   3.120   4.424  0.5461 -0.2189 -1.1667
18758TIP3    H277766   0.470   3.013   4.498 -0.1653  1.0336  1.5255
18759TIP3   OH277767   2.417   3.438   4.647  0.5554 -0.2648  0.2070
18759TIP3    H177768   2.383   3.518   4.607  0.5357 -0.0175  0.7081
18759TIP3    H277769   2.371   3.368   4.602  0.0207  0.0348  0.2807
18760TIP3   OH277770   6.083   0.762  15.061 -0.1992  0.1540  0.4277
18760TIP3    H177771   6.168   0.748  15.103 -0.3393  2.7218  1.7671
18760TIP3    H277772   6.020   0.731  15.125 -0.3286 -0.4919 -0.0019
18761TIP3   OH277773   5.545   3.831  13.412  0.8386  0.3129 -0.4807
18761TIP3    H177774   5.628   3.857  13.451 -0.1735  3.1135  0.0669
18761TIP3    H277775   5.509   3.912  13.376 -1.4373 -0.8913 -1.1181
18762TIP3   OH277776   0.565   2.277   0.049  0.0694 -0.2174 -0.1317
18762TIP3    H177777   0.609   2.192   0.060  1.8141  0.3338 -2.0891
18762TIP3    H277778   0.633   2.342   0.066 -0.9260  0.7744  0.1668
18763TIP3   OH277779   3.040   1.019   5.922  0.2881  0.3976 -0.4728
18763TIP3    H177780   3.085   1.027   6.006  2.6178  0.9418 -1.6895
18763TIP3    H277781   3.016   1.109   5.899  0.5601  0.3779 -0.8409
18764TIP3   OH277782   4.503   1.152   3.970  0.4482  0.3297 -0.7130
18764TIP3    H177783   4.511   1.157   4.066  0.1699  0.0870 -0.6743
18764TIP3    H277784   4.431   1.091   3.956  0.2270  0.6754 -1.0760
18765TIP3   OH277785   6.697   5.165   1.052 -0.4777  0.5383 -0.3313
18765TIP3    H177786   6.744   5.108   1.114 -0.6730 -1.1053 -1.6162
18765TIP3    H277787   6.605   5.140   1.063 -0.4741 -0.0985 -1.5518
18766TIP3   OH277788   5.088   2.414  11.926  0.4516 -0.6160 -0.4286
18766TIP3    H177789   5.017   2.410  11.990  0.0320  1.1770 -0.7234
18766TIP3    H277790   5.105   2.322  11.903 -1.7715 -1.1231 -0.3515
18767TIP3   OH277791   0.887   2.868   3.987  0.5101 -0.0993 -0.6495
18767TIP3    H177792   0.977   2.898   3.981  0.0490  1.1404 -2.1593
18767TIP3    H277793   0.874   2.817   3.906 -0.0699 -0.4824 -0.3205
18768TIP3   OH277794   3.228   6.426   2.758 -0.0519 -0.3773 -0.1168
18768TIP3    H177795   3.134   6.420   2.740 -0.4659  2.2895  0.6166
18768TIP3    H277796   3.258   6.501   2.706  1.2084  0.0715  1.1818
18769TIP3   OH277797   5.228   2.917   2.378  0.5344 -0.0543 -0.0851
18769TIP3    H177798   5.316   2.906   2.341  0.3483  0.1650 -0.6038
18769TIP3    H277799   5.242   2.919   2.473  1.3098  1.7047 -0.1942
18770TIP3   OH277800   3.394   6.319   2.126  0.2499  0.1169  0.7415
18770TIP3    H177801   3.351   6.405   2.129  0.5087  0.4219 -1.9294
18770TIP3    H277802   3.487   6.339   2.123  0.3443 -0.3092  0.8105
18771TIP3   OH277803   6.495   1.346   1.390  0.6116  0.4422 -0.0104
18771TIP3    H177804   6.559   1.284   1.425  0.2121  0.7047  1.2266
18771TIP3    H277805   6.449   1.297   1.322  1.7765  0.0995 -0.5931
18772TIP3   OH277806   5.895   5.045   3.285 -0.0161  0.2987  0.5816
18772TIP3    H177807   5.887   5.129   3.331  0.6578 -0.4123  2.0905
18772TIP3    H277808   5.984   5.015   3.306  1.5254  1.2366 -3.6310
18773TIP3   OH277809   0.323   4.312  11.753 -0.5124 -0.6016  0.3382
18773TIP3    H177810   0.265   4.382  11.723  0.9653  1.2405  1.5432
18773TIP3    H277811   0.267   4.234  11.754 -2.3976  0.6425 -0.4777
18774TIP3   OH277812   2.798   6.165   0.748  0.1834  0.0475 -0.4298
18774TIP3    H177813   2.743   6.215   0.809 -0.8264  0.5826 -1.7377
18774TIP3    H277814   2.840   6.232   0.694 -0.0114 -0.4525 -1.2110
18775TIP3   OH277815   5.968   4.273   2.989  1.1383 -0.1622 -0.2953
18775TIP3    H177816   6.003   4.356   3.023  0.9923 -0.6021  0.9430
18775TIP3    H277817   5.893   4.254   3.045  1.7676 -1.6461  0.0702
18776TIP3   OH277818   2.755   5.514   2.801  0.4158 -0.2161  0.1970
18776TIP3    H177819   2.848   5.534   2.807  0.2592  0.8482 -0.5486
18776TIP3    H277820   2.724   5.519   2.891  0.3712  3.3521  0.1316
18777TIP3   OH277821   4.496   2.934  12.421 -0.0586 -0.5383  0.2435
18777TIP3    H177822   4.551   2.900  12.492 -0.7901 -1.8388  0.2318
18777TIP3    H277823   4.424   2.978  12.466 -0.3952 -1.1533  0.3181
18778TIP3   OH277824   1.272   5.507   5.540 -0.7414 -0.0106 -0.2711
18778TIP3    H177825   1.356   5.464   5.524 -0.3375  0.7215 -0.1733
18778TIP3    H277826   1.281   5.593   5.498 -1.2963  0.2232  0.0791
18779TIP3   OH277827   6.656   5.500  14.335 -0.5363 -0.4131 -0.4944
18779TIP3    H177828   6.576   5.463  14.373  0.5116 -0.8945  1.3891
18779TIP3    H277829   6.631   5.524  14.246 -3.1959  0.8563  0.4789
18780TIP3   OH277830   3.532   6.072   1.524 -0.7375 -0.2683 -0.5078
18780TIP3    H177831   3.519   6.161   1.491 -0.5050  0.4562  1.2724
18780TIP3    H277832   3.496   6.016   1.455 -1.6096  1.2199 -1.3183
18781TIP3   OH277833   4.114   5.584  16.068 -0.0703 -0.0982  0.1223
18781TIP3    H177834   4.163   5.619  15.994  1.7405 -0.3956  1.1106
18781TIP3    H277835   4.067   5.509  16.033 -0.7639  0.8842 -1.1197
18782TIP3   OH277836   6.330   4.785  14.295 -0.2819  0.8719  0.1138
18782TIP3    H177837   6.354   4.700  14.257 -1.0963  1.2160 -1.2158
18782TIP3    H277838   6.322   4.767  14.388  1.5975 -0.0492  0.1535
18783TIP3   OH277839   6.801   1.364   3.630 -0.1088 -0.0153  0.0417
18783TIP3    H177840   6.889   1.369   3.667 -0.6713  0.1251  1.4245
18783TIP3    H277841   6.815   1.363   3.535  1.3708  0.0361  0.2318
18784TIP3   OH277842   4.878   5.917  13.408 -0.0501  0.1095  0.1998
18784TIP3    H177843   4.961   5.935  13.452 -0.0876 -0.5912  0.5842
18784TIP3    H277844   4.824   5.876  13.476  0.1172 -1.6018 -0.6463
18785TIP3   OH277845   4.574   4.588   4.247  0.0045  0.0843 -0.2213
18785TIP3    H177846   4.528   4.614   4.327  2.0410 -1.3112  1.4858
18785TIP3    H277847   4.582   4.493   4.253  2.6284  0.1945 -0.6288
18786TIP3   OH277848   3.893   2.992   0.874 -0.0796  0.0281  0.7745
18786TIP3    H177849   3.910   2.909   0.920  0.2281  0.5626  1.6396
18786TIP3    H277850   3.949   3.056   0.918  0.5148  0.4957 -0.5920
18787TIP3   OH277851   6.101   6.460  12.495 -0.0051 -0.3505 -0.0115
18787TIP3    H177852   6.078   6.379  12.542 -3.5191  1.8658  2.5739
18787TIP3    H277853   6.042   6.461  12.420 -0.2186 -0.0728  0.1569
18788TIP3   OH277854   0.802   1.020   1.393  0.4993  0.1754 -0.2378
18788TIP3    H177855   0.815   1.113   1.375 -1.6616  0.5078 -0.2467
18788TIP3    H277856   0.767   0.984   1.312  0.9783 -0.6066 -0.1194
18789TIP3   OH277857   5.475   3.846  12.419  0.3677 -0.3696  0.1147
18789TIP3    H177858   5.489   3.765  12.370  1.0891 -0.6973  0.8278
18789TIP3    H277859   5.560   3.864  12.460 -0.1083  0.0834  0.9298
18790TIP3   OH277860   2.384   5.113  12.900  0.2052  0.5046 -0.0203
18790TIP3    H177861   2.360   5.185  12.841 -0.7506 -1.6781 -2.5123
18790TIP3    H277862   2.476   5.130  12.923  0.4828  1.6883 -1.8161
18791TIP3   OH277863   2.421   0.490   1.281  0.3028  0.1657 -0.0650
18791TIP3    H177864   2.484   0.456   1.217 -1.7453 -2.4355 -0.8532
18791TIP3    H277865   2.452   0.456   1.365  1.8846  1.9545  0.1618
18792TIP3   OH277866   3.516   4.382  15.912  0.0498  0.1952 -0.3418
18792TIP3    H177867   3.461   4.307  15.936 -1.3653  1.8002  1.8297
18792TIP3    H277868   3.597   4.369  15.962 -0.5766  0.5566  0.8051
18793TIP3   OH277869   3.501   1.461   5.382  0.1092 -0.2283 -0.6098
18793TIP3    H177870   3.484   1.368   5.363 -1.0289 -0.2368  0.3264
18793TIP3    H277871   3.450   1.508   5.317 -1.0114 -0.2644  0.2285
18794TIP3   OH277872   6.073   0.361  16.164  0.1240  0.4828  0.1817
18794TIP3    H177873   6.020   0.353  16.084  0.5682  0.3262 -0.0996
18794TIP3    H277874   6.009   0.381  16.233 -0.6103 -1.7204  0.2255
18795TIP3   OH277875   5.806   0.975   4.915 -0.1300  0.0806 -0.2325
18795TIP3    H177876   5.861   0.967   4.993 -0.8037  0.2239  0.2671
18795TIP3    H277877   5.861   0.943   4.844  0.3349 -0.4818  0.3685
18796TIP3   OH277878   5.289   4.346  14.817 -0.6732  0.8948  0.5067
18796TIP3    H177879   5.256   4.423  14.863 -2.6454  0.3710  0.0315
18796TIP3    H277880   5.234   4.274  14.847 -1.1836  0.3044 -1.6749
18797TIP3   OH277881   4.438   3.282   1.068 -0.1726 -0.3661  0.1991
18797TIP3    H177882   4.457   3.341   0.995  1.9506  1.5857  2.1860
18797TIP3    H277883   4.358   3.317   1.107 -0.8679 -0.9358 -0.7010
18798TIP3   OH277884   4.218   0.409   2.836 -0.5131  0.1879 -0.2924
18798TIP3    H177885   4.298   0.429   2.885 -0.7905  0.8478 -0.0861
18798TIP3    H277886   4.153   0.472   2.869 -0.6751  0.7406 -1.5848
18799TIP3   OH277887   4.273   4.237   5.740  0.4445  0.1637  0.4425
18799TIP3    H177888   4.203   4.298   5.766  0.7287  0.1262  1.3327
18799TIP3    H277889   4.320   4.220   5.821  0.4338 -1.1645  0.1877
18800TIP3   OH277890   1.201   2.499   1.066 -0.1220 -0.0558  0.1179
18800TIP3    H177891   1.284   2.524   1.026  0.0312  1.1495  1.1248
18800TIP3    H277892   1.222   2.482   1.158 -1.4821  4.0318  1.4162
18801TIP3   OH277893   5.327   0.581   1.785 -0.0287  0.2934 -0.6023
18801TIP3    H177894   5.401   0.621   1.831 -1.0296  2.6640 -0.9081
18801TIP3    H277895   5.362   0.500   1.750  1.5697 -0.1875  1.8532
18802TIP3   OH277896   3.257   0.241  15.794  0.4353  0.4260 -0.4683
18802TIP3    H177897   3.326   0.244  15.728  0.7666 -0.1430 -0.1503
18802TIP3    H277898   3.248   0.148  15.816  0.5532  0.6350  0.5172
18803TIP3   OH277899   5.105   0.988  12.852  0.5311  0.6565  0.1153
18803TIP3    H177900   5.107   0.970  12.758 -0.8392  0.3193  0.1299
18803TIP3    H277901   5.031   1.048  12.864  1.1761  1.3301  0.8903
18804TIP3   OH277902   0.905   0.289  12.542 -0.4175 -0.6581  0.1508
18804TIP3    H177903   0.977   0.347  12.518  0.2236 -1.8559 -0.9390
18804TIP3    H277904   0.854   0.339  12.606  1.6764  0.0197  1.3772
18805TIP3   OH277905   4.338   1.867   2.178  0.4157 -0.2620 -0.3629
18805TIP3    H177906   4.306   1.953   2.205 -0.2418 -0.0792 -1.6206
18805TIP3    H277907   4.350   1.819   2.260 -3.7175 -0.5734  0.2863
18806TIP3   OH277908   2.069   4.764  15.805 -0.0656  0.4271  0.3535
18806TIP3    H177909   2.134   4.756  15.875 -0.0743 -1.8444  0.1809
18806TIP3    H277910   2.094   4.697  15.741 -2.7462 -0.8142  0.4586
18807TIP3   OH277911   2.576   1.672  15.871  0.2177 -0.4718 -0.5122
18807TIP3    H177912   2.639   1.736  15.904  0.2312 -0.5591 -0.3671
18807TIP3    H277913   2.558   1.699  15.782  1.6848 -1.3647 -1.1170
18808TIP3   OH277914   3.177   3.430   3.272  0.4817 -0.4547  0.6015
18808TIP3    H177915   3.180   3.525   3.261 -0.2049 -0.5053 -0.1380
18808TIP3    H277916   3.083   3.409   3.274  0.4583 -1.4936 -3.2040
18809TIP3   OH277917   0.596   6.511  15.741 -0.1188 -0.7700  0.0854
18809TIP3    H177918   0.618   6.485  15.652 -1.3119  1.6740 -1.0131
18809TIP3    H277919   0.500   6.513  15.743 -0.1472  2.2369  0.3687
18810TIP3   OH277920   6.320   2.738   3.948  0.0556  0.4078 -0.7643
18810TIP3    H177921   6.393   2.687   3.985  0.8051  0.6055 -1.9262
18810TIP3    H277922   6.288   2.789   4.022  0.5217 -0.3425 -0.0212
18811TIP3   OH277923   4.806   4.178  10.504 -0.1852  0.0773  0.4536
18811TIP3    H177924   4.895   4.176  10.540  1.2415  0.4119 -2.7223
18811TIP3    H277925   4.791   4.089  10.473 -0.6931  0.2053  0.3163
18812TIP3   OH277926   6.293   5.192   3.149  0.3792 -0.2503  0.3685
18812TIP3    H177927   6.312   5.098   3.161 -0.2133 -0.4028  0.1209
18812TIP3    H277928   6.333   5.234   3.225  2.4038 -0.4685 -0.5084
18813TIP3   OH277929   5.450   0.241   3.389 -0.3568 -0.7135  0.1611
18813TIP3    H177930   5.524   0.237   3.450 -0.9000 -2.5861  0.7778
18813TIP3    H277931   5.488   0.224   3.303  0.1512  0.0533  0.2254
18814TIP3   OH277932   3.358   0.623  15.288 -0.9575  0.6643 -0.4082
18814TIP3    H177933   3.396   0.536  15.303 -0.2241  1.0071 -0.2698
18814TIP3    H277934   3.420   0.684  15.327 -2.2127  1.1754  0.9000
18815TIP3   OH277935   4.992   1.521   5.303  0.5380 -0.3908 -0.5026
18815TIP3    H177936   4.976   1.603   5.349  1.1574 -0.6255  0.1527
18815TIP3    H277937   5.049   1.546   5.230  1.6792 -0.3817  0.3529
18816TIP3   OH277938   0.318   3.927  15.691 -0.0683  0.2740 -0.3343
18816TIP3    H177939   0.392   3.881  15.652  0.1484  0.5644 -0.2713
18816TIP3    H277940   0.244   3.904  15.635  0.0986  0.1114 -0.4934
18817TIP3   OH277941   1.011   2.471  12.575  0.2784  0.1421  0.7523
18817TIP3    H177942   0.971   2.398  12.528 -0.2972  0.4653  0.7247
18817TIP3    H277943   0.944   2.540  12.573 -0.0379 -0.0549  2.5964
18818TIP3   OH277944   2.764   2.900  11.151  0.2456  0.2234  0.1832
18818TIP3    H177945   2.713   2.820  11.141  1.4147 -0.6988  1.1916
18818TIP3    H277946   2.790   2.924  11.062 -0.1252 -0.5179 -0.1294
18819TIP3   OH277947   0.201   2.653  16.737 -0.0249 -0.3273 -0.1913
18819TIP3    H177948   0.247   2.735  16.756 -2.6514  0.7417  2.3488
18819TIP3    H277949   0.193   2.610  16.821  0.3775 -2.7698 -1.3228
18820TIP3   OH277950   0.969   1.268  13.750 -0.1204 -0.7772  0.1995
18820TIP3    H177951   1.057   1.300  13.727 -0.8020 -0.0973 -1.6064
18820TIP3    H277952   0.924   1.344  13.786 -0.0705 -1.0648  0.8931
18821TIP3   OH277953   0.347   0.499  14.491 -0.3591  0.1507 -0.4307
18821TIP3    H177954   0.315   0.480  14.403 -0.5601 -0.2459 -0.2752
18821TIP3    H277955   0.294   0.443  14.548  1.7884 -1.8829 -0.3102
18822TIP3   OH277956   3.172   4.537   3.153  0.6681 -0.3980  0.4853
18822TIP3    H177957   3.261   4.548   3.188  0.3157  1.8206  0.8735
18822TIP3    H277958   3.147   4.625   3.124 -1.6470 -0.8194  1.0006
18823TIP3   OH277959   6.737   2.233  12.547  0.1007  0.3320  0.7547
18823TIP3    H177960   6.790   2.169  12.500  0.8828  0.1879  1.7874
18823TIP3    H277961   6.729   2.197  12.636  0.7890  1.7636  1.4362
18824TIP3   OH277962   4.262   5.846   3.598  0.2050  0.4838 -0.6889
18824TIP3    H177963   4.268   5.841   3.693 -0.0604  0.2584 -0.6836
18824TIP3    H277964   4.349   5.876   3.570  0.3131  0.4527 -0.3851
18825TIP3   OH277965   4.423   4.253   5.962  0.3598  0.0534  0.1910
18825TIP3    H177966   4.512   4.238   5.932  0.1473  1.3057 -1.1825
18825TIP3    H277967   4.424   4.341   6.000  0.1750 -0.7678  2.2129
18826TIP3   OH277968   1.138   4.189   4.837  0.4720  0.1089 -0.4800
18826TIP3    H177969   1.192   4.119   4.800 -1.9835 -1.8510 -0.6634
18826TIP3    H277970   1.193   4.229   4.904  1.9013 -2.2882 -0.0844
18827TIP3   OH277971   6.331   2.962  11.483 -0.4681 -0.1811  0.3692
18827TIP3    H177972   6.269   3.030  11.455 -0.7709 -0.9935 -1.0320
18827TIP3    H277973   6.376   3.000  11.559  0.8119  2.4261 -1.5376
18828TIP3   OH277974   3.883   3.617   0.457  0.4557  0.2136 -0.1680
18828TIP3    H177975   3.860   3.628   0.365  0.1732 -0.0594 -0.1321
18828TIP3    H277976   3.958   3.558   0.457 -0.0409 -0.4227 -0.1794
18829TIP3   OH277977   2.027   5.943  15.697 -0.1995 -0.4894  0.3360
18829TIP3    H177978   1.937   5.973  15.681 -0.3591 -0.8386  0.5697
18829TIP3    H277979   2.017   5.856  15.736  0.2101 -0.2032  1.0997
18830TIP3   OH277980   2.409   1.181   0.581  0.1562 -0.4857 -0.2197
18830TIP3    H177981   2.380   1.111   0.640 -0.6003  0.1395  0.1690
18830TIP3    H277982   2.350   1.254   0.599  0.4018 -0.0172 -1.2089
18831TIP3   OH277983   0.119   3.656  11.786 -0.2323 -0.1203  0.4291
18831TIP3    H177984   0.188   3.692  11.841 -0.6233  0.3895  0.5868
18831TIP3    H277985   0.040   3.704  11.810 -0.5293 -0.2944 -0.1610
18832TIP3   OH277986   6.085   2.276   1.120 -0.0987  0.0754  0.5292
18832TIP3    H177987   6.046   2.337   1.058  1.1307  2.6391  2.1131
18832TIP3    H277988   6.021   2.270   1.191 -0.1832 -0.4601  0.4121
18833TIP3   OH277989   1.671   6.745   5.879  0.3126  0.0613 -0.3633
18833TIP3    H177990   1.749   6.802   5.877 -0.7927  1.6349 -0.7438
18833TIP3    H277991   1.606   6.792   5.827 -1.4459 -0.3861  1.3007
18834TIP3   OH277992   3.900   0.961   4.803  0.0410  0.4195  0.3595
18834TIP3    H177993   3.975   0.925   4.757  1.1460  0.5361  1.9860
18834TIP3    H277994   3.917   0.943   4.895 -1.4048  1.4275  0.8684
18835TIP3   OH277995   5.313   3.920  14.811  0.0868  1.3375 -0.4883
18835TIP3    H177996   5.352   3.926  14.898 -1.9713  0.5524  0.5735
18835TIP3    H277997   5.235   3.866  14.824  0.3306  0.2320 -3.0640
18836TIP3   OH277998   1.104   5.387   3.328  0.2784  0.3349  0.4212
18836TIP3    H177999   1.073   5.476   3.345 -1.1209  0.1882 -1.0123
18836TIP3    H278000   1.027   5.333   3.342  1.3156 -0.7904  2.0545
18837TIP3   OH278001   1.852   2.157   5.250 -0.9699  0.0894  0.1134
18837TIP3    H178002   1.896   2.134   5.169 -0.3350 -1.0576  0.7465
18837TIP3    H278003   1.848   2.253   5.250  0.4093  0.1637 -0.5354
18838TIP3   OH278004   2.017   4.995  17.074 -0.1344  0.4188 -0.3483
18838TIP3    H178005   2.081   4.926  17.058  0.7910  0.1083  3.6257
18838TIP3    H278006   2.066   5.076  17.064 -0.0489  0.3263 -0.6840
18839TIP3   OH278007   1.738   2.323  11.855 -0.2003  0.5188  0.0100
18839TIP3    H178008   1.754   2.245  11.908  0.0225  0.6427  0.1299
18839TIP3    H278009   1.770   2.395  11.910  1.3355  0.5373 -0.8431
18840TIP3   OH278010   2.249   2.616  12.831  0.6246  0.0407  0.3215
18840TIP3    H178011   2.243   2.648  12.921  3.7415  0.6953  0.4230
18840TIP3    H278012   2.265   2.522  12.840 -1.0681 -0.2599  0.3391
18841TIP3   OH278013   1.901   1.626  16.771  0.3309  0.7073 -0.4659
18841TIP3    H178014   1.970   1.689  16.747 -2.3176  3.5359 -1.4244
18841TIP3    H278015   1.887   1.575  16.691  0.9384  0.4785 -0.4328
18842TIP3   OH278016   1.675   2.945   0.556 -0.2113 -0.3985  0.3248
18842TIP3    H178017   1.649   3.000   0.630 -0.2433 -1.2824  0.9957
18842TIP3    H278018   1.657   2.855   0.586 -0.5090 -0.7609 -0.8738
18843TIP3   OH278019   3.619   6.487  11.201 -0.1044  0.0193  0.2171
18843TIP3    H178020   3.620   6.401  11.242  1.6285 -0.6220 -1.0750
18843TIP3    H278021   3.526   6.504  11.183 -0.4949 -1.4319  0.7507
18844TIP3   OH278022   2.260   6.832   5.718  0.1598 -0.0471 -0.4126
18844TIP3    H178023   2.243   6.862   5.628 -0.5661 -3.2980 -1.4737
18844TIP3    H278024   2.325   6.763   5.708 -0.4764 -0.9809  1.4652
18845TIP3   OH278025   5.057   1.014  11.703 -0.5360 -0.1266 -1.1797
18845TIP3    H178026   4.966   0.984  11.697  0.1126 -2.3838 -0.6406
18845TIP3    H278027   5.081   1.032  11.612 -1.3696 -0.0216 -1.3889
18846TIP3   OH278028   1.262   3.602  16.493  0.1932  0.0417 -0.1160
18846TIP3    H178029   1.342   3.636  16.453  0.6288  0.1269  0.7931
18846TIP3    H278030   1.230   3.674  16.548  0.1937 -0.4168  0.4993
18847TIP3   OH278031   5.582   3.717  12.789  0.2851  0.0754 -0.4319
18847TIP3    H178032   5.546   3.678  12.869  0.6395  1.2949  0.3523
18847TIP3    H278033   5.631   3.646  12.748 -0.1503 -0.6588  0.2849
18848TIP3   OH278034   3.288   5.268   2.218  0.3593  0.3338 -0.4309
18848TIP3    H178035   3.300   5.354   2.257  0.0730 -0.3735  1.3275
18848TIP3    H278036   3.373   5.225   2.226  0.5385  0.4849 -1.4213
18849TIP3   OH278037   1.789   2.876   1.539 -0.1471  0.7423  0.3914
18849TIP3    H178038   1.831   2.954   1.504  0.1093  1.5052  2.3094
18849TIP3    H278039   1.799   2.882   1.634 -0.2030 -1.5814  0.6199
18850TIP3   OH278040   2.381   6.253  12.172 -0.1717  0.6079 -1.0387
18850TIP3    H178041   2.385   6.206  12.089  1.8799  1.4150 -1.4693
18850TIP3    H278042   2.390   6.345  12.148 -0.7061  0.9495  0.0090
18851TIP3   OH278043   1.279   2.808   2.973  0.1840  0.1733  0.8399
18851TIP3    H178044   1.281   2.903   2.982 -1.5522  0.1487  2.2656
18851TIP3    H278045   1.341   2.776   3.039  0.1035  0.3128  0.9835
18852TIP3   OH278046   6.140   2.368   6.291 -0.0175  0.5853  0.7679
18852TIP3    H178047   6.173   2.281   6.314 -1.0233 -0.2233 -0.7014
18852TIP3    H278048   6.096   2.399   6.370  0.2702 -0.2712  1.2786
18853TIP3   OH278049   6.238   4.990  14.146 -0.4395  0.0435  0.4412
18853TIP3    H178050   6.201   5.058  14.202  0.9930  1.5424 -0.3517
18853TIP3    H278051   6.301   4.945  14.201 -0.0410  0.6004  0.4505
18854TIP3   OH278052   0.173   6.126   5.056  0.0426  0.1320 -1.4150
18854TIP3    H178053   0.092   6.148   5.011  0.5847  1.3895 -1.8460
18854TIP3    H278054   0.205   6.210   5.089  1.1136 -0.3559 -1.1687
18855TIP3   OH278055   0.666   1.612   0.370 -0.3424 -0.5182 -0.8706
18855TIP3    H178056   0.644   1.646   0.456  1.6093 -0.6742 -0.2448
18855TIP3    H278057   0.584   1.578   0.335 -1.6669  1.6210 -0.0611
18856TIP3   OH278058   5.382   3.798  14.556  0.0393 -0.0430  0.5514
18856TIP3    H178059   5.304   3.803  14.501 -0.7390 -0.6132  1.5602
18856TIP3    H278060   5.352   3.825  14.643 -0.0894 -3.9436  1.9480
18857TIP3   OH278061   6.087   0.615  13.875 -0.0694  0.2540  0.3726
18857TIP3    H178062   6.126   0.701  13.859  0.9726 -0.1379  0.7376
18857TIP3    H278063   6.140   0.577  13.946 -1.1607 -0.2715  0.9432
18858TIP3   OH278064   4.904   4.464  14.521 -0.0969  0.1058 -0.0926
18858TIP3    H178065   4.896   4.369  14.530  0.8176  0.0550  0.3082
18858TIP3    H278066   4.836   4.499  14.579 -0.1241 -0.3030  0.1260
18859TIP3   OH278067   2.188   2.681  16.768 -0.2831  0.3423 -0.5031
18859TIP3    H178068   2.248   2.701  16.841 -1.8296 -0.2236  0.9834
18859TIP3    H278069   2.159   2.767  16.737  0.0036  0.5791 -0.1274
18860TIP3   OH278070   1.542   1.534  13.155 -0.3112 -0.2117 -0.5816
18860TIP3    H178071   1.616   1.581  13.116  0.5691 -2.4579 -1.8169
18860TIP3    H278072   1.547   1.446  13.117 -2.3116 -1.0973  1.0189
18861TIP3   OH278073   5.170   1.993  15.665 -0.2431  0.4185 -0.1992
18861TIP3    H178074   5.185   1.923  15.728 -0.9170 -0.3005 -0.8109
18861TIP3    H278075   5.123   2.061  15.714 -2.1181 -0.7653 -0.2405
18862TIP3   OH278076   6.596   1.501  15.087 -0.2452 -0.3088  0.0286
18862TIP3    H178077   6.689   1.486  15.072  0.0168  0.0083  1.2155
18862TIP3    H278078   6.588   1.597  15.093 -0.2847 -0.3940  1.9131
18863TIP3   OH278079   3.658   4.873   4.412  0.0329 -0.5085 -0.0084
18863TIP3    H178080   3.715   4.907   4.481  0.3242  0.4226 -0.6902
18863TIP3    H278081   3.669   4.934   4.339 -0.5406 -1.2745 -0.7588
18864TIP3   OH278082   4.306   1.637   4.332 -0.0462  0.4247 -0.8887
18864TIP3    H178083   4.228   1.642   4.276 -1.1565 -0.8653  0.4281
18864TIP3    H278084   4.357   1.565   4.295 -0.3244  0.1742 -0.7922
18865TIP3   OH278085   6.238   2.050   3.420 -0.1305 -0.2678 -0.3931
18865TIP3    H178086   6.150   2.046   3.458 -1.0836 -0.2048 -2.4142
18865TIP3    H278087   6.243   1.971   3.365  0.8343  0.0508 -0.7732
18866TIP3   OH278088   2.473   2.455   4.529 -0.2229 -0.0780  0.0950
18866TIP3    H178089   2.472   2.452   4.433 -2.7933  1.5930 -0.0355
18866TIP3    H278090   2.444   2.367   4.555 -2.0098  0.1739 -0.8192
18867TIP3   OH278091   5.767   3.180  16.068 -0.0107 -0.4325 -0.1021
18867TIP3    H178092   5.801   3.265  16.040 -0.2510 -0.6242 -0.9922
18867TIP3    H278093   5.832   3.148  16.131  0.1621  0.3318  0.1235
18868TIP3   OH278094   6.626   1.059   5.165  0.0766 -0.4257 -0.4834
18868TIP3    H178095   6.577   1.008   5.100  2.5156 -2.8966 -0.5494
18868TIP3    H278096   6.707   1.084   5.120  0.0637  1.3979  0.3990
18869TIP3   OH278097   4.143   3.538  15.373  0.7464  0.1554 -0.9504
18869TIP3    H178098   4.120   3.566  15.285  0.5593  1.4361 -0.5202
18869TIP3    H278099   4.079   3.470  15.394  0.1333  0.5786 -1.4209
18870TIP3   OH278100   5.234   2.902   2.655  0.1182  0.1940 -0.3401
18870TIP3    H178101   5.221   2.995   2.672  0.9336  0.0035  1.4964
18870TIP3    H278102   5.166   2.858   2.706 -1.9955 -0.1968 -3.2408
18871TIP3   OH278103   1.397   1.124   1.894  0.6496 -0.3163  0.0091
18871TIP3    H178104   1.493   1.125   1.902  0.7318  1.1367 -0.7170
18871TIP3    H278105   1.367   1.175   1.969  0.6091  1.0962 -0.9163
18872TIP3   OH278106   6.328   6.251  16.322 -0.3014 -0.3183 -0.1609
18872TIP3    H178107   6.375   6.321  16.276  0.1445  1.8513  3.2339
18872TIP3    H278108   6.394   6.182  16.335  0.4931  0.4619  0.0557
18873TIP3   OH278109   2.948   4.363   4.489 -0.0250 -0.2853 -0.0694
18873TIP3    H178110   2.892   4.313   4.547 -1.0565  1.2391  0.3018
18873TIP3    H278111   3.023   4.305   4.473 -0.7411 -1.5805  1.0154
18874TIP3   OH278112   4.871   6.740   0.808 -0.0489 -0.8713  0.8665
18874TIP3    H178113   4.791   6.700   0.775 -0.3436 -0.3418  0.9307
18874TIP3    H278114   4.842   6.821   0.852  0.6939  0.3598 -0.8041
18875TIP3   OH278115   6.470   2.974  12.887  0.1568  0.4195  0.6543
18875TIP3    H178116   6.481   3.049  12.829 -1.2080 -0.2729 -0.5601
18875TIP3    H278117   6.517   2.902  12.844 -0.2242  0.0853  0.7865
18876TIP3   OH278118   3.349   2.683   0.511  0.1286 -0.2994 -0.3189
18876TIP3    H178119   3.403   2.685   0.432  0.7213  1.1751  0.0986
18876TIP3    H278120   3.404   2.641   0.577  0.8367  1.2663  0.1256
18877TIP3   OH278121   6.461   5.962  14.715 -0.3191 -0.5703 -0.0685
18877TIP3    H178122   6.436   6.001  14.631 -1.5228  0.2031  0.6212
18877TIP3    H278123   6.514   5.886  14.691  1.5464  1.0523 -1.5053
18878TIP3   OH278124   2.445   6.085  11.954 -0.7710 -0.1216 -0.1408
18878TIP3    H178125   2.393   6.016  11.995 -1.9075  0.9942  0.3769
18878TIP3    H278126   2.425   6.079  11.861 -0.3091 -0.9294 -0.1923
18879TIP3   OH278127   3.626   0.591   4.955 -0.1683 -0.5335 -0.1544
18879TIP3    H178128   3.645   0.685   4.963 -1.2418 -0.0843 -2.0885
18879TIP3    H278129   3.665   0.566   4.872 -1.3787 -1.3690 -0.4984
18880TIP3   OH278130   6.440   6.281  12.384  0.2262 -0.1439  0.5337
18880TIP3    H178131   6.476   6.284  12.473  2.1075  1.2714 -0.2275
18880TIP3    H278132   6.387   6.361  12.378 -0.6400 -0.7003  0.6600
18881TIP3   OH278133   5.639   5.820  11.643 -0.2269  0.0704  0.4855
18881TIP3    H178134   5.734   5.827  11.643 -0.3550  3.0853  1.0237
18881TIP3    H278135   5.619   5.759  11.714  1.2740  1.2329  1.9761
18882TIP3   OH278136   5.565   4.349  15.905 -0.1499  0.2485 -0.0204
18882TIP3    H178137   5.492   4.360  15.966 -0.4251 -0.4952 -0.2070
18882TIP3    H278138   5.534   4.284  15.842  0.6569 -0.0391 -0.1283
18883TIP3   OH278139   5.205   6.457   0.434 -0.3540  0.3569  0.0098
18883TIP3    H178140   5.171   6.380   0.479 -0.1762  1.3999  2.0395
18883TIP3    H278141   5.168   6.452   0.345  0.5911 -2.6384 -0.3204
18884TIP3   OH278142   0.268   3.108  12.856  0.6723  0.0702  0.6223
18884TIP3    H178143   0.236   3.107  12.946  0.2696  0.0082  0.4812
18884TIP3    H278144   0.336   3.175  12.855  1.0127 -0.2636  1.0842
18885TIP3   OH278145   4.062   3.035   2.924 -0.0545 -0.0933  0.0305
18885TIP3    H178146   4.137   2.984   2.893 -0.0995  0.4567 -0.9994
18885TIP3    H278147   3.993   2.970   2.938  0.3027 -0.4778  0.0094
18886TIP3   OH278148   2.687   0.179   2.305 -0.2398 -0.2517 -0.1575
18886TIP3    H178149   2.698   0.144   2.393  0.6199  0.8968  0.2108
18886TIP3    H278150   2.752   0.249   2.298 -0.0208 -0.5866 -1.8487
18887TIP3   OH278151   4.157   3.232  16.892 -0.5105  0.5205  0.1727
18887TIP3    H178152   4.200   3.289  16.828  0.6656 -1.9202 -1.3607
18887TIP3    H278153   4.090   3.186  16.841 -0.4036 -0.5708  1.0061
18888TIP3   OH278154   2.535   4.857  15.270  0.2984  0.3311  0.1680
18888TIP3    H178155   2.581   4.830  15.190  0.5288  0.3657  0.2888
18888TIP3    H278156   2.460   4.908  15.238  0.5999  0.6636 -0.0148
18889TIP3   OH278157   1.399   4.297  15.511  0.0894 -0.1838 -0.3841
18889TIP3    H178158   1.332   4.229  15.510 -1.3310  1.0837  1.5163
18889TIP3    H278159   1.409   4.322  15.419 -1.9105 -0.5653 -0.7599
18890TIP3   OH278160   5.840   1.321  15.753  0.7851  0.1005  0.1635
18890TIP3    H178161   5.747   1.308  15.772 -0.2642  2.8507 -2.3135
18890TIP3    H278162   5.852   1.286  15.665  1.1327  2.8917 -0.9945
18891TIP3   OH278163   1.038   6.329   3.767  0.0592  0.4080  0.2761
18891TIP3    H178164   0.960   6.385   3.775  0.3883  0.8082  0.8107
18891TIP3    H278165   1.084   6.342   3.850  0.3514 -0.3502  0.2386
18892TIP3   OH278166   2.353   1.356   2.404  0.3588 -0.0369  0.1481
18892TIP3    H178167   2.381   1.280   2.352  0.3522 -0.9323  1.3890
18892TIP3    H278168   2.273   1.386   2.361  1.0940  0.1184 -1.1521
18893TIP3   OH278169   5.242   4.145   5.613  0.5663 -1.0426 -0.0928
18893TIP3    H178170   5.235   4.121   5.705 -0.3287 -0.0996  0.1136
18893TIP3    H278171   5.328   4.185   5.604  0.9681 -1.8431  0.1505
18894TIP3   OH278172   6.224   0.508   0.080  0.2288 -0.1587  0.5715
18894TIP3    H178173   6.224   0.414   0.098  0.3748 -0.1839  0.4345
18894TIP3    H278174   6.198   0.547   0.164 -3.2309 -0.4699 -0.1930
18895TIP3   OH278175   1.660   2.023  11.838 -0.0944  0.0394  0.1789
18895TIP3    H178176   1.687   2.072  11.760  0.7375 -1.1358 -0.3171
18895TIP3    H278177   1.730   1.959  11.851 -1.8622 -2.0855 -0.1652
18896TIP3   OH278178   6.603   1.434   6.096 -0.2645 -0.4370  0.0105
18896TIP3    H178179   6.699   1.430   6.098 -0.2541 -0.0523  0.8251
18896TIP3    H278180   6.578   1.446   6.187 -1.0285  0.6589 -0.3145
18897TIP3   OH278181   3.310   6.417   1.814 -0.0183  0.2478  0.6575
18897TIP3    H178182   3.329   6.335   1.859 -0.3246  0.5047  1.2755
18897TIP3    H278183   3.285   6.477   1.884 -1.5355  0.3744  0.0459
18898TIP3   OH278184   2.436   1.274  16.141  0.4042  0.1464 -0.7654
18898TIP3    H178185   2.364   1.334  16.159  1.4341  1.4060 -0.6940
18898TIP3    H278186   2.458   1.289  16.049  0.1878 -0.6814 -0.9620
18899TIP3   OH278187   0.509   2.147   1.387 -0.0064 -0.2217 -0.3849
18899TIP3    H178188   0.544   2.204   1.455 -0.3339 -2.6837  1.9848
18899TIP3    H278189   0.414   2.148   1.400 -0.3376  1.0015 -2.3429
18900TIP3   OH278190   4.052   1.679   4.594  0.5289  0.6459  0.5666
18900TIP3    H178191   4.123   1.631   4.637  0.3835  0.9427  1.1531
18900TIP3    H278192   3.980   1.678   4.657  0.0183  0.3816 -0.0071
18901TIP3   OH278193   0.133   5.957   0.521 -0.0699 -0.2474 -0.0901
18901TIP3    H178194   0.132   5.900   0.444 -1.0041 -0.3100 -0.0409
18901TIP3    H278195   0.195   6.027   0.499  2.5449 -2.2101  0.5488
18902TIP3   OH278196   2.812   1.514   0.305  0.2967  0.4778 -0.1235
18902TIP3    H178197   2.875   1.503   0.376 -0.1634  0.7211  0.3279
18902TIP3    H278198   2.805   1.428   0.265  0.3487  0.2702  0.3104
18903TIP3   OH278199   3.392   2.548  15.737  0.3357  0.2455 -0.4830
18903TIP3    H178200   3.303   2.549  15.702  0.4908  0.6026 -0.8745
18903TIP3    H278201   3.406   2.458  15.766  0.7173 -0.4316 -2.6404
18904TIP3   OH278202   2.746   4.084  15.648 -0.2124  0.6561  0.0293
18904TIP3    H178203   2.751   4.027  15.724  1.5029  1.1148  0.2976
18904TIP3    H278204   2.684   4.040  15.589 -0.8145 -0.1946  1.2515
18905TIP3   OH278205   6.514   3.888  12.168  0.0163  0.1127 -0.3304
18905TIP3    H178206   6.571   3.964  12.160  1.2769 -0.6526  0.9013
18905TIP3    H278207   6.447   3.901  12.101 -0.1383  2.5692  0.2266
18906TIP3   OH278208   5.870   5.988   6.863 -0.1837 -0.0572  0.4147
18906TIP3    H178209   5.781   6.017   6.842 -0.4684 -2.5205 -2.4986
18906TIP3    H278210   5.926   6.037   6.803  0.3520  0.6860  1.4925
18907TIP3   OH278211   6.442   6.273  11.690 -0.2893  0.2299 -0.0497
18907TIP3    H178212   6.469   6.313  11.607 -0.3228  1.2363  0.4057
18907TIP3    H278213   6.390   6.196  11.665  1.4012 -0.6662 -0.9515
18908TIP3   OH278214   6.696   3.244  14.762 -0.1267 -0.0393 -0.3331
18908TIP3    H178215   6.652   3.217  14.843  0.6230  0.8861  0.3981
18908TIP3    H278216   6.689   3.167  14.705 -1.4281 -0.4058  0.2735
18909TIP3   OH278217   4.635   4.343   3.239 -0.2011 -0.1808 -0.9251
18909TIP3    H178218   4.668   4.431   3.224 -1.1666  0.2543 -0.5276
18909TIP3    H278219   4.701   4.286   3.199  1.7662  0.5746  0.9844
18910TIP3   OH278220   1.086   1.075   2.791  0.0547  0.2289  0.0853
18910TIP3    H178221   1.026   1.033   2.729  0.7918  0.8003 -1.0501
18910TIP3    H278222   1.048   1.161   2.808 -0.1208  0.0917  0.3959
18911TIP3   OH278223   6.763   0.325   6.120 -0.2303 -0.1027 -0.3190
18911TIP3    H178224   6.852   0.360   6.120  0.2877 -1.3329 -1.4670
18911TIP3    H278225   6.727   0.352   6.205  1.4791 -0.1830  0.4791
18912TIP3   OH278226   3.308   3.848  16.049 -0.2211 -0.0162 -0.5621
18912TIP3    H178227   3.238   3.834  16.113  0.0499 -0.9808 -0.4656
18912TIP3    H278228   3.386   3.813  16.091 -0.0715 -0.8209 -1.4880
18913TIP3   OH278229   1.462   4.724   1.742  0.2120 -0.6067 -0.6583
18913TIP3    H178230   1.466   4.819   1.740  0.7616 -0.4617  2.5361
18913TIP3    H278231   1.371   4.705   1.766  0.4578 -0.8015  0.1455
18914TIP3   OH278232   3.884   0.201   5.545 -0.2810  0.3604  0.0623
18914TIP3    H178233   3.971   0.165   5.565 -1.4971 -1.8407  1.8604
18914TIP3    H278234   3.894   0.295   5.557  1.9510  0.2201 -0.2113
18915TIP3   OH278235   0.442   3.323  16.428  0.2492 -0.4135  0.2591
18915TIP3    H178236   0.357   3.365  16.442  0.2254 -0.4573  0.2448
18915TIP3    H278237   0.495   3.352  16.503 -0.0345 -1.0415  0.7069
18916TIP3   OH278238   4.132   1.025  16.485  0.6590 -0.3692  0.2478
18916TIP3    H178239   4.221   1.009  16.454  0.7701 -0.0455  0.3959
18916TIP3    H278240   4.115   1.116  16.462  0.2952 -0.4871  0.0505
18917TIP3   OH278241   4.925   0.185   3.440 -0.1324  0.2254  0.6052
18917TIP3    H178242   5.019   0.201   3.440 -0.3696  1.7900  1.2251
18917TIP3    H278243   4.890   0.249   3.502 -1.8544  1.3982 -1.4464
18918TIP3   OH278244   5.026   5.765  14.027  0.5545 -0.2393 -0.2984
18918TIP3    H178245   5.081   5.842  14.039  0.1618  0.4261 -2.4010
18918TIP3    H278246   5.020   5.753  13.932  0.2223 -2.6011 -0.0560
18919TIP3   OH278247   1.898   6.158  10.783 -0.3345  0.3701  0.4876
18919TIP3    H178248   1.879   6.167  10.690 -2.1336  0.0933  0.7811
18919TIP3    H278249   1.864   6.239  10.822 -2.3382 -0.7728  1.2351
18920TIP3   OH278250   4.941   2.072   0.962 -0.0961 -0.4702 -0.2526
18920TIP3    H178251   4.985   2.146   1.004 -0.0491 -0.3607 -0.4933
18920TIP3    H278252   4.945   2.002   1.028  2.0362 -1.0366 -0.8855
18921TIP3   OH278253   4.920   6.487  11.686  0.2922 -0.5137 -0.7000
18921TIP3    H178254   4.931   6.499  11.592 -0.4106 -0.4488 -0.7776
18921TIP3    H278255   4.942   6.395  11.701 -0.0267 -0.6407 -0.9993
18922TIP3   OH278256   1.343   2.195  15.247 -0.1306 -0.0626 -0.0417
18922TIP3    H178257   1.394   2.119  15.277  1.0136  0.9636  0.7304
18922TIP3    H278258   1.323   2.176  15.155 -0.7459 -1.7340  0.4048
18923TIP3   OH278259   0.961   3.303   3.137  0.1883 -0.5069  0.1706
18923TIP3    H178260   0.868   3.318   3.150  0.0097 -2.2630  1.4090
18923TIP3    H278261   0.977   3.324   3.045 -0.8940  2.0794  0.4920
18924TIP3   OH278262   0.305   0.058  14.202 -0.7814 -0.1910 -0.3124
18924TIP3    H178263   0.235   0.084  14.262  1.6185  3.3186  1.3162
18924TIP3    H278264   0.334   0.140  14.162  1.7294 -1.6314 -1.6927
18925TIP3   OH278265   2.180   3.389   1.690  0.0650 -0.3464  0.3392
18925TIP3    H178266   2.136   3.465   1.653 -0.0868 -0.9827 -0.8228
18925TIP3    H278267   2.146   3.384   1.780  0.0023  0.8794  0.4088
18926TIP3   OH278268   6.740   3.506  17.152 -0.5139 -0.1833 -0.4204
18926TIP3    H178269   6.750   3.473  17.242 -0.3122  0.8390 -0.0593
18926TIP3    H278270   6.723   3.427  17.100 -1.8893 -0.6664  0.6967
18927TIP3   OH278271   0.038   0.617  14.053  0.1399  0.0065 -0.2936
18927TIP3    H178272  -0.002   0.630  14.139  0.8654 -2.3459  0.4998
18927TIP3    H278273   0.129   0.593  14.072  0.2771 -0.7187 -1.7018
18928TIP3   OH278274   5.289   4.425   0.471 -0.3431 -0.2616 -0.0854
18928TIP3    H178275   5.284   4.399   0.563  0.2897  0.2974  0.1170
18928TIP3    H278276   5.286   4.521   0.473  2.2988 -0.1042 -0.4148
18929TIP3   OH278277   4.547   6.554  16.938 -0.1036  0.2453  0.4546
18929TIP3    H178278   4.604   6.552  16.861 -2.7968  2.5911 -1.7748
18929TIP3    H278279   4.468   6.508  16.911 -1.4165  1.7868  1.5079
18930TIP3   OH278280   1.425   1.606   1.477 -0.4629 -0.0475 -0.3738
18930TIP3    H178281   1.498   1.592   1.417 -0.0322 -2.2054  0.5571
18930TIP3    H278282   1.348   1.576   1.428 -0.4154  0.1931 -0.5948
18931TIP3   OH278283   1.894   2.950  13.509 -0.1164  0.5924  0.2757
18931TIP3    H178284   1.876   2.912  13.595  1.5209 -0.3579  0.2261
18931TIP3    H278285   1.906   3.044  13.527  2.2974  0.1321  1.4784
18932TIP3   OH278286   2.106   1.070   4.197  0.4867 -0.2485  0.2712
18932TIP3    H178287   2.100   1.143   4.258 -1.7809  1.0746 -1.3707
18932TIP3    H278288   2.020   1.028   4.201  0.6422 -0.7789 -1.1662
18933TIP3   OH278289   0.740   4.236   1.294 -0.0462  0.3108  0.4509
18933TIP3    H178290   0.706   4.166   1.350 -1.5238 -0.6650 -1.5146
18933TIP3    H278291   0.832   4.244   1.319  0.0475 -2.0047  1.1206
18934TIP3   OH278292   4.588   5.395  11.992  0.0495  0.5449  0.7271
18934TIP3    H178293   4.575   5.372  11.900 -2.2940 -1.1780  1.4050
18934TIP3    H278294   4.661   5.340  12.021 -0.3923 -0.2518  0.3437
18935TIP3   OH278295   6.341   1.176  16.116 -0.5820  0.3386 -0.0841
18935TIP3    H178296   6.321   1.239  16.047 -1.5919  0.0229 -0.0871
18935TIP3    H278297   6.422   1.134  16.087 -1.9634 -1.1354 -2.0390
18936TIP3   OH278298   1.216   4.606  12.671  0.0300  0.1713  0.3548
18936TIP3    H178299   1.299   4.653  12.685 -0.3760  0.9099  0.3338
18936TIP3    H278300   1.227   4.524  12.719  1.5248 -0.6377 -1.2365
18937TIP3   OH278301   5.447   4.233   1.766  0.3092 -0.0309 -0.0305
18937TIP3    H178302   5.415   4.234   1.676  0.7796  1.2063 -0.2078
18937TIP3    H278303   5.484   4.145   1.777 -1.1108 -0.7334 -0.5250
18938TIP3   OH278304   2.901   4.235   5.141  0.2786 -0.1634  0.4075
18938TIP3    H178305   2.961   4.273   5.204  0.4711 -0.3648  0.3455
18938TIP3    H278306   2.901   4.141   5.161  2.4439 -0.6686 -1.6327
18939TIP3   OH278307   3.426   2.361   3.215 -0.0883 -0.2747  0.1855
18939TIP3    H178308   3.469   2.285   3.176 -1.0448 -0.0428 -1.3761
18939TIP3    H278309   3.356   2.324   3.269 -0.0064 -0.5177  0.1262
18940TIP3   OH278310   6.693   2.290  11.704  0.4719  0.0433  0.1160
18940TIP3    H178311   6.778   2.334  11.695  0.6472 -0.5149 -1.0041
18940TIP3    H278312   6.661   2.320  11.789  2.2271 -0.4772  1.0293
18941TIP3   OH278313   4.486   5.873  11.540 -0.4189  0.1469 -0.4071
18941TIP3    H178314   4.457   5.960  11.565  1.0486 -0.0046  2.1301
18941TIP3    H278315   4.445   5.814  11.603  0.0258 -0.8017 -0.9704
18942TIP3   OH278316   4.308   0.312   4.291 -0.1003 -0.0689 -0.4613
18942TIP3    H178317   4.400   0.285   4.292 -0.2840 -0.6777  0.3677
18942TIP3    H278318   4.263   0.247   4.345 -0.9399  0.5205 -0.4411
18943TIP3   OH278319   3.873   4.531   5.187  0.4157 -0.3708 -0.3289
18943TIP3    H178320   3.955   4.578   5.200 -0.4734  1.2434 -0.2296
18943TIP3    H278321   3.853   4.493   5.272  1.2426 -1.0983 -0.4550
18944TIP3   OH278322   5.741   3.189   5.636 -0.2040 -0.3801 -0.0459
18944TIP3    H178323   5.708   3.176   5.548  0.0743  0.9683 -0.3751
18944TIP3    H278324   5.732   3.283   5.652 -0.9146 -0.6950  1.6422
18945TIP3   OH278325   3.279   6.429   3.807  0.5385  0.1019  0.5771
18945TIP3    H178326   3.296   6.336   3.823 -0.2130  0.2299  2.3308
18945TIP3    H278327   3.289   6.439   3.713 -1.8967 -2.3226 -0.0840
18946TIP3   OH278328   1.179   6.228   4.373  0.0750  0.6963  0.4554
18946TIP3    H178329   1.149   6.189   4.455  0.8407 -0.2208  0.3297
18946TIP3    H278330   1.246   6.291   4.400  1.7679 -1.0187  0.4757
18947TIP3   OH278331   3.166   6.199   1.581  0.2834 -0.0882  0.3785
18947TIP3    H178332   3.192   6.286   1.550  0.3353 -0.2543 -0.0584
18947TIP3    H278333   3.227   6.179   1.651  1.6909 -0.6704 -0.9428
18948TIP3   OH278334   5.038   3.451  13.107  0.4658  0.1457  0.1349
18948TIP3    H178335   4.955   3.497  13.090  0.1101 -0.9022 -1.1104
18948TIP3    H278336   5.083   3.506  13.171 -1.5297  0.3542  1.4549
18949TIP3   OH278337   0.606   1.786   5.400  0.2213  0.0565  0.5485
18949TIP3    H178338   0.646   1.738   5.328  2.7818  0.3713  1.6518
18949TIP3    H278339   0.649   1.871   5.398 -2.2595  1.3855  0.3203
18950TIP3   OH278340   0.837   1.697  14.030 -0.4768 -0.4296  0.6404
18950TIP3    H178341   0.766   1.718  13.970 -2.5754 -4.8199  1.1765
18950TIP3    H278342   0.913   1.684  13.973 -0.7567  1.6044 -0.2702
18951TIP3   OH278343   0.985   2.392   5.730  0.3859 -0.1778  0.2835
18951TIP3    H178344   1.077   2.369   5.744  0.3693 -1.4401 -1.3111
18951TIP3    H278345   0.951   2.322   5.675 -1.0800  1.1516 -0.6016
18952TIP3   OH278346   2.688   6.167   3.422 -0.1709  0.1465  0.3522
18952TIP3    H178347   2.780   6.158   3.444 -0.5238  0.3822  2.0488
18952TIP3    H278348   2.685   6.163   3.326  1.4983 -0.6328  0.3093
18953TIP3   OH278349   3.243   3.269   1.872  0.2198  0.2966 -0.1782
18953TIP3    H178350   3.220   3.226   1.790 -1.0051  0.3757  0.0938
18953TIP3    H278351   3.288   3.201   1.923 -0.3646 -0.2270 -0.3361
18954TIP3   OH278352   2.446   2.392  16.582 -0.0928  0.1050 -0.2781
18954TIP3    H178353   2.531   2.431  16.563 -0.6685  0.6494 -1.8268
18954TIP3    H278354   2.414   2.360  16.498 -1.0858 -0.8201  0.4134
18955TIP3   OH278355   6.669   6.478  14.043  0.3690 -0.0494 -0.0002
18955TIP3    H178356   6.632   6.437  13.966 -1.0437 -0.4831  0.8682
18955TIP3    H278357   6.723   6.409  14.084  0.7456  0.0377 -0.3485
18956TIP3   OH278358   3.615   5.273  14.046 -0.3204  0.1012 -0.4647
18956TIP3    H178359   3.682   5.298  14.109  0.4198  1.7617 -1.8505
18956TIP3    H278360   3.577   5.193  14.083  0.7624  0.4477  1.5516
18957TIP3   OH278361   5.506   3.868   1.165  0.4398  0.2595  0.3662
18957TIP3    H178362   5.547   3.864   1.078 -0.0548  0.2158  0.1309
18957TIP3    H278363   5.533   3.787   1.207  1.2943  0.6249  0.5343
18958TIP3   OH278364   1.293   6.240  13.970 -0.2276 -0.0685 -0.0241
18958TIP3    H178365   1.310   6.151  14.000  1.4219 -0.2631 -1.4202
18958TIP3    H278366   1.364   6.292  14.008  0.1918  0.1988 -1.1366
18959TIP3   OH278367   4.173   6.607  13.496  0.2621  0.2385  0.2534
18959TIP3    H178368   4.191   6.582  13.405  1.5655 -1.0635  0.8300
18959TIP3    H278369   4.252   6.583  13.544 -0.1283  1.5536  1.6362
18960TIP3   OH278370   5.521   0.692   5.516 -0.5136 -0.0293  0.2742
18960TIP3    H178371   5.480   0.606   5.524 -1.2461  0.2858 -0.0683
18960TIP3    H278372   5.451   0.750   5.487 -0.0953  0.7461  0.7826
18961TIP3   OH278373   3.669   3.130  13.864 -0.1022  0.1444 -0.0439
18961TIP3    H178374   3.728   3.125  13.789 -2.3361 -2.0684 -1.8273
18961TIP3    H278375   3.601   3.192  13.837 -0.5309 -0.1093  0.4291
18962TIP3   OH278376   1.313   3.593  11.354 -0.2454  0.2543 -0.4821
18962TIP3    H178377   1.312   3.540  11.274 -1.2141  0.1334 -0.4000
18962TIP3    H278378   1.250   3.663  11.337 -0.3073  0.3432  0.1071
18963TIP3   OH278379   0.196   2.865  12.465  1.1249 -0.3790 -0.9287
18963TIP3    H178380   0.204   2.943  12.411  0.3176  0.4647  0.1035
18963TIP3    H278381   0.130   2.811  12.420  0.3496  0.3799 -0.7371
18964TIP3   OH278382   6.264   4.034  15.901  0.4575 -0.2574  0.4014
18964TIP3    H178383   6.342   4.070  15.858 -1.0734  0.4598 -2.0024
18964TIP3    H278384   6.222   3.980  15.833 -2.1697  1.0088  0.8730
18965TIP3   OH278385   3.336   1.992  15.096  0.1065 -0.0601 -0.3069
18965TIP3    H178386   3.262   1.938  15.124 -0.5033 -0.9653 -3.3237
18965TIP3    H278387   3.301   2.081  15.095 -0.1285 -0.1217  0.7398
18966TIP3   OH278388   0.407   1.387  15.539 -0.0976  0.2634 -0.3459
18966TIP3    H178389   0.440   1.433  15.616  2.3855 -0.3264 -0.9862
18966TIP3    H278390   0.386   1.457  15.477 -0.8948  0.6836  0.3709
18967TIP3   OH278391   3.595   4.864  12.165  0.3022 -0.3783  0.1810
18967TIP3    H178392   3.545   4.862  12.083 -0.9159  0.3257  0.8732
18967TIP3    H278393   3.636   4.951  12.166 -0.3245 -0.0746  0.6589
18968TIP3   OH278394   4.180   2.288   5.189 -0.2256 -0.2142 -0.5972
18968TIP3    H178395   4.103   2.231   5.183 -0.2969 -0.4423  1.7425
18968TIP3    H278396   4.254   2.229   5.176 -0.3419 -0.7218  0.8220
18969TIP3   OH278397   6.635   4.213  14.346 -0.1280  0.4085 -0.1471
18969TIP3    H178398   6.606   4.206  14.255 -0.9080 -0.9502  0.1826
18969TIP3    H278399   6.602   4.298  14.375 -1.0282  0.2715 -0.7349
18970TIP3   OH278400   6.348   5.094  15.847 -0.4254  0.0259  0.3124
18970TIP3    H178401   6.441   5.111  15.864 -0.3269  0.4461 -0.6048
18970TIP3    H278402   6.335   5.121  15.756 -1.3551 -0.4132  0.3063
18971TIP3   OH278403   5.935   3.636  11.712 -0.4501  0.0809  0.4161
18971TIP3    H178404   5.848   3.647  11.751 -0.9572 -2.1507  0.0759
18971TIP3    H278405   5.939   3.543  11.689  1.6101  0.3687 -0.6183
18972TIP3   OH278406   0.146   3.606  17.100  0.4638 -0.1291  0.0079
18972TIP3    H178407   0.136   3.701  17.097  0.6201 -0.1258 -2.4223
18972TIP3    H278408   0.056   3.573  17.102  0.3953  0.0756  0.2852
18973TIP3   OH278409   2.115   0.614  15.632 -0.1741 -0.3640  0.4225
18973TIP3    H178410   2.156   0.530  15.653 -0.4909 -1.2501 -2.1212
18973TIP3    H278411   2.188   0.673  15.617  0.5786 -2.0265 -4.4952
18974TIP3   OH278412   2.826   5.445  11.474 -0.5184 -0.2840 -0.1356
18974TIP3    H178413   2.841   5.465  11.567  2.3297  0.7074 -0.7188
18974TIP3    H278414   2.820   5.530  11.431  0.7273 -0.6783 -1.1640
18975TIP3   OH278415   5.669   5.325  16.543 -0.3342 -0.4465  0.0628
18975TIP3    H178416   5.723   5.326  16.623 -0.4102  1.9895  0.1467
18975TIP3    H278417   5.584   5.358  16.571  0.0381  1.7798 -1.2457
18976TIP3   OH278418   3.400   2.528  16.077  0.1811  0.2157  0.2457
18976TIP3    H178419   3.412   2.580  16.156 -1.3894 -1.0247  1.3551
18976TIP3    H278420   3.461   2.567  16.014 -0.2082  2.7331  1.3034
18977TIP3   OH278421   4.465   3.779  13.448 -0.4207 -0.4128  0.4366
18977TIP3    H178422   4.458   3.779  13.353 -2.2483  1.8175  0.4929
18977TIP3    H278423   4.382   3.741  13.478  0.0464 -0.8955  1.1725
18978TIP3   OH278424   3.919   2.395   2.399  0.5985 -0.0488  0.6631
18978TIP3    H178425   4.009   2.422   2.380  0.5534 -0.3551 -0.0411
18978TIP3    H278426   3.919   2.300   2.385 -0.4061  0.2462 -1.9008
18979TIP3   OH278427   1.280   6.211   5.500 -0.0409  0.0281  1.0390
18979TIP3    H178428   1.368   6.251   5.498 -0.2724  0.5152  0.0999
18979TIP3    H278429   1.253   6.220   5.592  0.7311  0.2262  1.2631
18980TIP3   OH278430   5.639   6.067   3.528 -0.0127 -0.3579 -0.1716
18980TIP3    H178431   5.691   6.096   3.603  0.8200 -1.7081 -0.2082
18980TIP3    H278432   5.667   5.978   3.511 -1.6084 -0.7755 -0.8665
18981TIP3   OH278433   1.609   4.513  12.124 -0.0823 -0.5956 -0.0938
18981TIP3    H178434   1.532   4.467  12.159 -0.8815  0.0181 -0.9900
18981TIP3    H278435   1.576   4.600  12.102  0.8179 -0.4112 -0.7369
18982TIP3   OH278436   5.973   6.566   3.791  0.0340  0.1424 -0.0589
18982TIP3    H178437   6.061   6.530   3.782 -0.4814 -0.9726 -0.9177
18982TIP3    H278438   5.929   6.507   3.852 -0.6497 -0.4065 -1.0439
18983TIP3   OH278439   1.822   0.355  16.318 -0.1657  0.1712 -0.1088
18983TIP3    H178440   1.788   0.371  16.230  2.2292  0.5226 -1.0565
18983TIP3    H278441   1.746   0.329  16.369 -1.7550  0.6603 -2.1005
18984TIP3   OH278442   5.079   5.527   1.837 -0.5387  0.6489  0.3056
18984TIP3    H178443   5.035   5.608   1.861  0.3231  1.5149 -0.9321
18984TIP3    H278444   5.171   5.551   1.829 -0.4624 -0.0960 -1.4962
18985TIP3   OH278445   4.064   6.263  11.380 -0.0719 -0.4645  0.0203
18985TIP3    H178446   4.027   6.192  11.433 -0.7030  0.5528  1.0031
18985TIP3    H278447   3.991   6.324  11.369  0.4994  0.1006 -0.6809
18986TIP3   OH278448   1.354   3.103  16.308 -0.0467 -0.0700  0.0584
18986TIP3    H178449   1.278   3.138  16.354  1.3904  0.5355  2.0883
18986TIP3    H278450   1.377   3.171  16.245 -0.1914  0.4878  0.6035
18987TIP3   OH278451   3.512   4.693   2.268 -0.4760 -0.6631  0.5324
18987TIP3    H178452   3.477   4.722   2.353  0.3848 -0.3482  0.7829
18987TIP3    H278453   3.587   4.639   2.290 -0.7756 -1.3197 -0.0138
18988TIP3   OH278454   5.944   6.398  13.709 -0.1640 -0.0961 -0.4833
18988TIP3    H178455   5.954   6.304  13.694  1.4662  0.0586 -0.6195
18988TIP3    H278456   6.028   6.425  13.746  0.0256  1.6014 -2.0186
18989TIP3   OH278457   0.728   2.649   3.351  0.2306  0.4955 -0.0766
18989TIP3    H178458   0.743   2.743   3.354 -1.3679  0.8112 -0.9645
18989TIP3    H278459   0.672   2.631   3.427  1.0573  0.1426  0.4586
18990TIP3   OH278460   0.930   1.309  11.250  0.0402  0.1824 -0.4651
18990TIP3    H178461   0.974   1.356  11.179  1.0062 -1.7836 -1.2407
18990TIP3    H278462   0.996   1.303  11.320  0.0848 -0.3575 -0.5447
18991TIP3   OH278463   5.593   2.093   1.874 -0.1488 -0.7941  0.3985
18991TIP3    H178464   5.610   2.063   1.785  1.4982 -1.3323  0.8689
18991TIP3    H278465   5.675   2.131   1.904 -0.3165 -1.6543  2.0890
18992TIP3   OH278466   6.041   4.162   2.323  0.2553  0.0501  0.3293
18992TIP3    H178467   6.129   4.180   2.290  0.3301 -0.0297  0.4825
18992TIP3    H278468   6.021   4.237   2.379 -0.7094  1.2363 -1.5127
18993TIP3   OH278469   4.076   1.021   2.934  0.1754 -0.1580 -0.3846
18993TIP3    H178470   4.095   1.075   3.011  1.5401 -0.0575 -0.7537
18993TIP3    H278471   4.162   0.991   2.905 -0.4754 -1.7568 -0.7577
18994TIP3   OH278472   6.530   2.299  12.318  0.0185 -0.0409  0.0494
18994TIP3    H178473   6.601   2.262  12.369 -1.5140 -1.5238  1.2224
18994TIP3    H278474   6.543   2.266  12.230  1.5299  0.8489 -0.0880
18995TIP3   OH278475   4.373   1.194  15.254 -0.0802  0.0881  0.1795
18995TIP3    H178476   4.452   1.188  15.309 -0.6871 -0.2028  1.0485
18995TIP3    H278477   4.357   1.288  15.246  1.1702  0.2168 -1.2348
18996TIP3   OH278478   1.989   4.166  16.209  0.3040 -0.4750 -0.2574
18996TIP3    H178479   1.991   4.261  16.205 -1.0811 -0.3754  0.6893
18996TIP3    H278480   2.077   4.139  16.183  0.5561  1.0267 -1.0734
18997TIP3   OH278481   4.051   5.432   0.204 -0.0523 -0.2798 -0.0001
18997TIP3    H178482   3.961   5.399   0.211 -0.6131  1.1272 -0.2802
18997TIP3    H278483   4.106   5.355   0.219 -1.2603 -0.7596  2.6371
18998TIP3   OH278484   6.464   4.318   5.080 -0.8023  0.2227 -0.0797
18998TIP3    H178485   6.383   4.292   5.122 -0.4177  1.6172  1.6292
18998TIP3    H278486   6.444   4.402   5.039 -0.7614 -0.4222 -1.5017
18999TIP3   OH278487   2.989   6.367  14.994 -0.3039  0.1086 -0.2371
18999TIP3    H178488   2.966   6.333  15.081  2.2937  1.9311  1.2934
18999TIP3    H278489   3.061   6.311  14.965 -0.6841 -0.0347 -0.9350
19000TIP3   OH278490   3.362   0.046  14.474 -0.5286  0.3313 -0.1948
19000TIP3    H178491   3.442   0.005  14.442 -0.2996  1.2174 -0.7894
19000TIP3    H278492   3.393   0.119  14.528 -0.9176 -0.5998  1.3480
19001TIP3   OH278493   5.952   1.214  14.801  0.5924  0.2170 -0.1033
19001TIP3    H178494   5.897   1.248  14.730 -0.7144 -0.1295  0.7017
19001TIP3    H278495   6.018   1.281  14.815 -0.0746  0.9949 -0.5994
19002TIP3   OH278496   3.661   1.342   5.093 -0.0401 -0.2870 -0.3313
19002TIP3    H178497   3.635   1.268   5.148  0.1258 -0.3201 -0.2967
19002TIP3    H278498   3.719   1.304   5.027  1.0920  0.0151  0.4616
19003TIP3   OH278499   1.175   0.156   2.665  0.2923  0.0209 -0.2234
19003TIP3    H178500   1.122   0.102   2.724  0.0767  0.7275  0.2288
19003TIP3    H278501   1.148   0.128   2.577 -0.1268 -0.3067  0.0035
19004TIP3   OH278502   6.598   2.992  15.414  0.4625 -0.5076 -0.2787
19004TIP3    H178503   6.641   3.071  15.382 -1.4787 -0.1652 -2.2598
19004TIP3    H278504   6.510   3.020  15.438 -0.1514 -1.9871 -0.7073
19005TIP3   OH278505   4.780   6.597  15.851 -0.1050  0.6253  0.2212
19005TIP3    H178506   4.695   6.603  15.894 -1.4125 -0.4202 -2.0387
19005TIP3    H278507   4.821   6.519  15.889 -2.0427 -1.4063 -1.5609
19006TIP3   OH278508   3.036   2.943   2.840 -0.2808 -0.1313  0.8971
19006TIP3    H178509   2.968   2.906   2.783  2.0691 -0.4470 -1.9739
19006TIP3    H278510   3.088   2.868   2.868  1.3518  0.3874 -0.5444
19007TIP3   OH278511   4.882   2.562   2.879  0.2474  0.4536 -0.1074
19007TIP3    H178512   4.912   2.476   2.908  1.1894  0.4931 -0.9118
19007TIP3    H278513   4.799   2.576   2.925  0.5865 -0.4446  0.7952
19008TIP3   OH278514   6.323   1.716  16.032  0.1331  0.0048  0.1286
19008TIP3    H178515   6.246   1.741  15.981 -0.8059  3.5249  2.8684
19008TIP3    H278516   6.393   1.771  15.998  0.3377 -0.0545  0.4549
19009TIP3   OH278517   0.635   4.904  12.573 -0.5648 -0.3699 -0.7274
19009TIP3    H178518   0.716   4.855  12.558 -0.0499  0.3285 -0.2865
19009TIP3    H278519   0.577   4.842  12.616  0.5868 -0.2135  1.1901
19010TIP3   OH278520   3.832   0.761  13.448 -0.0389 -0.1610 -0.0634
19010TIP3    H178521   3.842   0.811  13.529 -1.2833 -0.2188  0.1611
19010TIP3    H278522   3.907   0.701  13.447  0.6832  0.7189  0.3881
19011TIP3   OH278523   3.117   0.108  12.783  0.5190 -0.5258  0.2225
19011TIP3    H178524   3.182   0.171  12.751  0.8810 -1.5511 -1.1538
19011TIP3    H278525   3.162   0.058  12.850  0.9091 -0.7025 -0.1681
19012TIP3   OH278526   5.304   4.036  12.296 -0.5003 -0.2924 -0.3616
19012TIP3    H178527   5.363   4.105  12.266 -0.8318  1.3630  2.4270
19012TIP3    H278528   5.360   3.976  12.346 -0.7594 -0.1335  0.1247
19013TIP3   OH278529   0.627   4.012  13.367  0.4090 -0.5119 -0.0367
19013TIP3    H178530   0.709   3.986  13.409  0.4139  2.5951  2.1446
19013TIP3    H278531   0.654   4.071  13.297  0.0638  0.0927  0.3388
19014TIP3   OH278532   5.647   2.074   5.450  0.3459 -0.1449 -0.5456
19014TIP3    H178533   5.712   2.024   5.399 -0.6655 -2.8580  0.6488
19014TIP3    H278534   5.573   2.084   5.390  0.6067  0.0791 -0.8392
19015TIP3   OH278535   0.236   2.359   3.675 -0.1219  0.0542  0.1592
19015TIP3    H178536   0.207   2.270   3.657 -0.9286  0.6703 -1.8123
19015TIP3    H278537   0.322   2.365   3.634 -0.7695  0.6424 -1.1583
19016TIP3   OH278538   4.422   0.826  17.039 -0.5542 -0.2963 -0.0846
19016TIP3    H178539   4.415   0.855  16.948 -1.6748  1.5230  0.5224
19016TIP3    H278540   4.425   0.731  17.034 -0.7086 -0.2368 -2.0129
19017TIP3   OH278541   0.299   1.549  16.163 -0.2066 -0.1149 -0.2459
19017TIP3    H178542   0.220   1.574  16.114 -0.4945  1.3131  0.8953
19017TIP3    H278543   0.320   1.461  16.130 -1.4779  0.0237 -1.5465
19018TIP3   OH278544   3.915   5.422  13.299 -0.2707  0.4638 -0.6622
19018TIP3    H178545   3.885   5.452  13.385 -1.1892  2.4389 -1.6037
19018TIP3    H278546   3.867   5.340  13.284 -0.9961  0.7162  0.2095
19019TIP3   OH278547   6.283   2.767   1.989  0.4418 -0.4482  0.1108
19019TIP3    H178548   6.369   2.761   2.030  0.4009 -0.3194  0.2150
19019TIP3    H278549   6.301   2.799   1.900  0.3285  1.5828  0.7744
19020TIP3   OH278550   5.810   5.723  15.448 -0.1243  0.1251 -0.1638
19020TIP3    H178551   5.769   5.701  15.532 -0.3217  1.0633 -0.0051
19020TIP3    H278552   5.772   5.661  15.386 -2.2853  1.3492 -0.1507
19021TIP3   OH278553   1.693   0.724  17.102  0.0071  0.4377 -0.3151
19021TIP3    H178554   1.650   0.751  17.184  0.4495 -0.8319  0.3651
19021TIP3    H278555   1.772   0.678  17.131 -0.2850 -0.8189 -1.4374
19022TIP3   OH278556   3.709   4.453  12.920 -0.1000 -0.4331  0.2394
19022TIP3    H178557   3.675   4.365  12.939  0.9957 -0.6377  1.3440
19022TIP3    H278558   3.785   4.437  12.864  0.0224 -0.1742  0.3321
19023TIP3   OH278559   6.747   6.124   4.215  0.6885  0.3390  0.2901
19023TIP3    H178560   6.807   6.183   4.260  0.0347  0.0641  1.5643
19023TIP3    H278561   6.669   6.123   4.270  0.2389 -0.8013 -0.3347
19024TIP3   OH278562   6.244   0.406   5.707  0.2841  0.0215  0.7113
19024TIP3    H178563   6.317   0.465   5.724  1.8648 -1.1728 -1.3302
19024TIP3    H278564   6.266   0.366   5.623 -3.2655  0.3730 -0.5541
19025TIP3   OH278565   4.112   2.962  13.629 -0.4341 -0.1582  0.2676
19025TIP3    H178566   4.165   3.042  13.630 -0.2212 -0.3008  0.4270
19025TIP3    H278567   4.132   2.919  13.712 -0.5787 -0.3565  0.1989
19026TIP3   OH278568   6.075   4.317  13.180  0.0929  0.1662  0.2215
19026TIP3    H178569   6.046   4.297  13.091 -1.3542 -0.4983  0.7986
19026TIP3    H278570   6.043   4.243  13.232 -0.5783  1.3539  1.5499
19027TIP3   OH278571   0.712   3.589   4.298 -0.4783 -0.5390 -0.4954
19027TIP3    H178572   0.639   3.569   4.356 -0.2724  0.6745  0.2073
19027TIP3    H278573   0.672   3.614   4.216 -0.8252 -0.5966 -0.3449
19028TIP3   OH278574   0.094   3.003   5.659 -0.2920 -0.0990 -0.3911
19028TIP3    H178575   0.114   2.995   5.566  1.8915 -0.4226  0.0598
19028TIP3    H278576   0.130   2.923   5.698  0.6857  0.9754  0.9867
19029TIP3   OH278577   3.393   0.683   2.608 -0.2732 -0.8472 -0.2655
19029TIP3    H178578   3.311   0.728   2.587 -0.4396 -0.1772  1.6011
19029TIP3    H278579   3.423   0.724   2.689  2.0471 -0.9206 -1.0043
19030TIP3   OH278580   5.821   3.031   5.317  0.2826  0.0144 -0.4630
19030TIP3    H178581   5.827   2.978   5.397  1.5813 -0.2863 -0.7414
19030TIP3    H278582   5.876   2.986   5.254 -0.1790  0.6302 -1.3327
19031TIP3   OH278583   2.694   2.245  14.715 -0.1462 -0.4000  0.3149
19031TIP3    H178584   2.647   2.267  14.635 -0.8822 -0.5744  0.6911
19031TIP3    H278585   2.683   2.322  14.771  0.9282 -0.0088  0.0064
19032TIP3   OH278586   2.388   3.039  15.321  0.2650  0.6167  0.3599
19032TIP3    H178587   2.294   3.036  15.303  0.2090  0.8908  0.6086
19032TIP3    H278588   2.420   3.113  15.270  0.4722  0.1001 -0.2853
19033TIP3   OH278589   2.887   4.799   0.276 -0.0198 -0.4627  0.5108
19033TIP3    H178590   2.891   4.771   0.184  0.8633 -1.9740  0.9761
19033TIP3    H278591   2.873   4.718   0.325 -0.1146  0.2786  1.7513
19034TIP3   OH278592   3.839   4.185  14.533  0.4900 -0.3314  0.4081
19034TIP3    H178593   3.768   4.248  14.544 -0.5940 -0.8894 -2.5047
19034TIP3    H278594   3.853   4.181  14.438  3.0065 -1.8032  0.7534
19035TIP3   OH278595   5.592   4.434   0.600 -0.3084  0.1152 -0.6679
19035TIP3    H178596   5.522   4.474   0.652  1.0121  0.1105  1.2444
19035TIP3    H278597   5.589   4.341   0.623 -1.6459 -0.4958 -3.0308
19036TIP3   OH278598   3.264   0.420  14.972 -0.3353 -0.9882 -0.2333
19036TIP3    H178599   3.347   0.449  14.934 -0.0469 -0.9143  0.4390
19036TIP3    H278600   3.231   0.354  14.911 -0.2730 -0.3063 -1.0195
19037TIP3   OH278601   5.002   6.525  16.198 -0.7476  0.0712 -0.1762
19037TIP3    H178602   4.916   6.566  16.204 -0.4246  0.6462  0.6849
19037TIP3    H278603   5.062   6.589  16.235  0.4222  0.6663 -2.8741
19038TIP3   OH278604   3.595   6.190  13.747  0.0328 -1.0716 -0.2452
19038TIP3    H178605   3.558   6.238  13.672 -0.7226 -0.1846  0.6744
19038TIP3    H278606   3.684   6.167  13.719  0.3676  0.7450 -0.7561
19039TIP3   OH278607   2.087   5.131   0.592 -0.2846 -0.4099  0.0374
19039TIP3    H178608   2.020   5.092   0.535  0.6380 -1.9187 -0.0646
19039TIP3    H278609   2.070   5.093   0.678 -0.1631 -0.0272  0.2309
19040TIP3   OH278610   2.073   5.496  14.712 -0.0397 -0.1236 -0.5169
19040TIP3    H178611   2.132   5.571  14.710 -0.8940  0.7943  2.5533
19040TIP3    H278612   2.131   5.420  14.723  0.7824  0.1137 -2.8032
19041TIP3   OH278613   4.305   3.353   2.121 -0.0519  0.3907  0.2384
19041TIP3    H178614   4.338   3.373   2.033  1.6598 -1.0260  0.4911
19041TIP3    H278615   4.255   3.273   2.111  0.3472  0.0914  0.5712
19042TIP3   OH278616   2.073   3.046   4.662 -0.4309  0.0028 -0.0076
19042TIP3    H178617   2.150   3.029   4.609  0.3355  2.3575  0.2641
19042TIP3    H278618   2.000   3.014   4.609  0.6114 -1.2179 -0.7583
19043TIP3   OH278619   1.111   3.371   3.995  0.0489 -0.3150  0.0872
19043TIP3    H178620   1.163   3.291   4.006 -1.6653 -1.9648 -2.5720
19043TIP3    H278621   1.034   3.357   4.050 -0.6598 -0.9733 -1.0206
19044TIP3   OH278622   4.964   1.022   0.152  0.3794  0.2048 -0.4362
19044TIP3    H178623   4.932   0.943   0.195  2.2303 -0.2826  0.1125
19044TIP3    H278624   4.980   1.084   0.224 -0.2179  0.7836 -0.7866
19045TIP3   OH278625   6.238   4.606  15.152 -0.2841 -0.2892  0.2053
19045TIP3    H178626   6.310   4.656  15.191  0.6529 -1.0992 -0.4429
19045TIP3    H278627   6.278   4.559  15.078 -1.2390 -1.6077  0.4891
19046TIP3   OH278628   1.902   0.977  13.413  0.2773 -0.1136 -0.1042
19046TIP3    H178629   1.873   1.002  13.501  0.0821 -4.4148  1.2806
19046TIP3    H278630   1.822   0.974  13.361  0.3216  1.9289 -0.3576
19047TIP3   OH278631   1.954   3.262   1.026  0.0544  0.3984 -0.3666
19047TIP3    H178632   1.924   3.272   1.116 -1.0353  0.5107 -0.7238
19047TIP3    H278633   2.044   3.294   1.027  0.4010 -0.5118  0.8748
19048TIP3   OH278634   4.206   1.188  14.581  0.1904  0.3439  0.3492
19048TIP3    H178635   4.228   1.200  14.489  0.1365  1.6418  0.4897
19048TIP3    H278636   4.252   1.108  14.607 -0.5838 -0.6058 -1.0493
19049TIP3   OH278637   3.941   6.175  11.628 -0.6283  0.2457 -0.2558
19049TIP3    H178638   3.942   6.089  11.585 -1.8426 -0.7929  1.6690
19049TIP3    H278639   3.871   6.223  11.584 -0.0614  0.2113 -1.2257
19050TIP3   OH278640   6.097   4.247  12.236  0.0831 -0.1225  0.1686
19050TIP3    H178641   6.065   4.326  12.193  0.5305 -0.3005 -0.5129
19050TIP3    H278642   6.051   4.175  12.192  1.7297 -0.4173 -1.1782
19051TIP3   OH278643   6.272   1.267  11.169  0.1218  0.6040 -0.3926
19051TIP3    H178644   6.239   1.357  11.171 -1.4715  0.0245  0.8558
19051TIP3    H278645   6.302   1.251  11.258  2.1993  0.4739 -1.0428
19052TIP3   OH278646   3.858   0.363  17.064 -0.0642 -0.4131  0.0451
19052TIP3    H178647   3.869   0.334  16.974  1.2073 -0.8692  0.3224
19052TIP3    H278648   3.846   0.457  17.058 -0.3705 -0.4879 -0.6207
19053TIP3   OH278649   5.035   5.005   6.010 -0.1422 -0.2040 -0.3681
19053TIP3    H178650   4.989   5.025   5.929  0.4259 -0.3766 -0.7386
19053TIP3    H278651   5.006   5.072   6.071  1.6592  1.7905 -1.5527
19054TIP3   OH278652   1.421   5.289  11.056  0.4095  0.7076  0.2078
19054TIP3    H178653   1.365   5.327  10.988 -0.8235 -0.7841  0.3518
19054TIP3    H278654   1.463   5.214  11.014  1.8832  1.4605  0.2804
19055TIP3   OH278655   6.034   4.281  15.064  0.3994  0.6269 -0.2731
19055TIP3    H178656   6.041   4.351  15.130 -0.0245  1.7703 -1.3955
19055TIP3    H278657   5.940   4.273  15.049  0.5203  0.7247 -1.0968
19056TIP3   OH278658   0.338   3.605  12.547 -0.2123  0.7318 -0.2869
19056TIP3    H178659   0.426   3.593  12.584 -0.4531 -0.2125  0.0134
19056TIP3    H278660   0.300   3.676  12.598 -0.1814  0.1016  0.6496
19057TIP3   OH278661   2.440   3.058   1.016 -0.1280  0.4466  0.2069
19057TIP3    H178662   2.474   2.970   1.035  0.7508  0.7858  0.2118
19057TIP3    H278663   2.467   3.111   1.090  2.2848  1.4932 -1.2968
19058TIP3   OH278664   1.972   0.881   3.433  0.3648 -0.0258  0.2464
19058TIP3    H178665   2.017   0.964   3.420  1.5417 -0.7008 -0.1207
19058TIP3    H278666   1.902   0.881   3.367  0.2508  0.7445  0.3670
19059TIP3   OH278667   1.315   2.038   6.489  0.2889  0.1441  0.5667
19059TIP3    H178668   1.346   2.125   6.512  0.6476 -0.4358  2.4831
19059TIP3    H278669   1.263   2.010   6.565 -0.0723 -1.2022 -0.1278
19060TIP3   OH278670   2.586   2.286  12.244 -0.0707  0.6945 -0.2793
19060TIP3    H178671   2.591   2.308  12.337 -0.5178 -0.8591  0.1425
19060TIP3    H278672   2.563   2.369  12.201  1.4264  1.7267  0.8144
19061TIP3   OH278673   6.376   3.920   3.744 -0.0046  0.2861 -0.2925
19061TIP3    H178674   6.362   3.866   3.821 -0.5065  1.6867  0.6281
19061TIP3    H278675   6.460   3.889   3.708 -0.7557 -1.7654 -0.4151
19062TIP3   OH278676   2.478   2.047  14.895 -0.0012 -0.1716  0.4864
19062TIP3    H178677   2.527   2.116  14.849  0.2235 -0.6182  0.0475
19062TIP3    H278678   2.415   2.094  14.949 -0.4980  0.3617 -0.5301
19063TIP3   OH278679   2.510   5.521  14.644  0.3322 -0.1897 -0.0235
19063TIP3    H178680   2.502   5.520  14.549 -0.3531 -1.0898  0.0298
19063TIP3    H278681   2.568   5.447  14.664  0.9414  0.3424  0.2321
19064TIP3   OH278682   6.793   6.193  13.968 -0.0025  0.6170 -0.0914
19064TIP3    H178683   6.886   6.188  13.991 -0.3498 -1.1369  1.1581
19064TIP3    H278684   6.792   6.191  13.873  1.2280 -1.1681 -0.1238
19065TIP3   OH278685   4.931   2.787   0.989 -0.0090  0.5204  0.3517
19065TIP3    H178686   4.959   2.874   0.961  0.4136  0.2516 -0.0769
19065TIP3    H278687   4.987   2.767   1.064  0.1428  0.4725  0.2267
19066TIP3   OH278688   2.653   1.436  14.562 -0.8657 -0.6722  0.2782
19066TIP3    H178689   2.673   1.382  14.486 -0.5037 -0.3615  0.1535
19066TIP3    H278690   2.582   1.388  14.607 -1.7748 -0.3521 -0.7759
19067TIP3   OH278691   1.721   5.651  11.549  0.0757  0.4726 -0.1007
19067TIP3    H178692   1.670   5.631  11.470 -1.1338  1.5559  0.3742
19067TIP3    H278693   1.735   5.745  11.545  1.3282  0.3078  0.2240
19068TIP3   OH278694   6.001   4.008   1.691  0.6799  0.0934 -0.3659
19068TIP3    H178695   5.929   3.951   1.666  0.0941  0.7563 -0.2387
19068TIP3    H278696   6.025   4.054   1.611  0.3540  0.5304 -0.2141
19069TIP3   OH278697   3.289   3.310  11.517 -0.1393 -0.6389 -0.1225
19069TIP3    H178698   3.210   3.287  11.566  0.8558 -0.3261  1.7323
19069TIP3    H278699   3.259   3.374  11.452 -1.4208 -0.5427  0.5293
19070TIP3   OH278700   4.307   4.622  15.725 -0.2135 -0.0310 -0.1402
19070TIP3    H178701   4.310   4.586  15.637 -2.8796 -1.5076  0.2635
19070TIP3    H278702   4.250   4.699  15.718 -0.1502  0.0570  0.2554
19071TIP3   OH278703   2.053   0.396  15.063  0.6216 -0.4584  0.1265
19071TIP3    H178704   2.132   0.354  15.029  1.1216  1.0997 -0.7281
19071TIP3    H278705   1.985   0.329  15.055  2.0597 -2.2944  2.0738
19072TIP3   OH278706   1.472   1.600  14.800  0.3285  0.5077 -0.1095
19072TIP3    H178707   1.472   1.695  14.807 -0.0364  0.5602 -0.7922
19072TIP3    H278708   1.383   1.577  14.774  0.4523 -0.0087 -0.0932
19073TIP3   OH278709   1.520   4.879   5.631  0.7769  0.6778  0.5530
19073TIP3    H178710   1.547   4.927   5.552  0.8786  2.6598  1.7343
19073TIP3    H278711   1.602   4.865   5.679  0.4282  1.7821  1.5086
19074TIP3   OH278712   2.493   0.017   4.618  0.4486  0.0183  0.0340
19074TIP3    H178713   2.419   0.001   4.560 -0.2611  1.2003  0.5704
19074TIP3    H278714   2.570  -0.003   4.566 -0.2252 -2.1006 -0.2806
19075TIP3   OH278715   6.476   1.620   0.518 -0.1449 -0.2681 -0.7502
19075TIP3    H178716   6.455   1.677   0.592  1.7630  1.3436 -1.3629
19075TIP3    H278717   6.391   1.589   0.487 -1.1282  0.7497  0.7851
19076TIP3   OH278718   4.886   6.812  16.446  0.6390 -0.6062  0.0964
19076TIP3    H178719   4.952   6.875  16.416 -0.3090  0.1992 -0.3223
19076TIP3    H278720   4.864   6.841  16.535  2.4636 -2.2113  1.1829
19077TIP3   OH278721   3.284   6.702   4.526  0.0090 -0.3963 -0.5568
19077TIP3    H178722   3.237   6.712   4.444  0.5383 -0.5723 -0.8849
19077TIP3    H278723   3.325   6.615   4.520  0.8568 -0.0146 -0.5366
19078TIP3   OH278724   2.147   1.807   6.496 -0.0159  0.2303 -0.2368
19078TIP3    H178725   2.180   1.800   6.586 -0.0626 -0.7622 -0.2833
19078TIP3    H278726   2.128   1.900   6.485 -0.4428  0.3077  0.9397
19079TIP3   OH278727   5.143   1.336   1.326  0.4837 -0.5690  0.3009
19079TIP3    H178728   5.231   1.368   1.306  0.7795 -1.2462  0.4669
19079TIP3    H278729   5.115   1.291   1.246 -0.4258  1.1184 -0.3669
19080TIP3   OH278730   5.190   0.888  13.075 -0.0939 -0.1221  0.4697
19080TIP3    H178731   5.133   0.927  13.008  0.7073 -1.9219 -1.3569
19080TIP3    H278732   5.269   0.864  13.027  0.5429 -1.4113  2.1070
19081TIP3   OH278733   5.985   1.565   1.019 -0.1764  0.6593  0.1122
19081TIP3    H178734   5.934   1.578   0.939  1.6641  0.2763 -1.1988
19081TIP3    H278735   5.979   1.470   1.035  0.4734  0.5387 -0.3179
19082TIP3   OH278736   0.885   0.310  11.737  0.5520 -0.0442 -0.3329
19082TIP3    H178737   0.920   0.399  11.736 -2.0925  1.0604 -0.5246
19082TIP3    H278738   0.804   0.315  11.686 -0.5193 -2.1815  1.0131
19083TIP3   OH278739   4.871   1.944  12.937 -0.1473  0.2597  0.0008
19083TIP3    H178740   4.946   2.004  12.947  0.8366 -1.0641  1.0387
19083TIP3    H278741   4.862   1.904  13.023 -1.9231  0.1930 -0.1869
19084TIP3   OH278742   3.014   3.811  16.533  0.2147  0.5730 -0.3542
19084TIP3    H178743   3.035   3.839  16.622  0.5112  1.5435 -0.7184
19084TIP3    H278744   3.094   3.829  16.483  0.2816 -0.5820 -0.6853
19085TIP3   OH278745   3.706   2.791  16.376 -0.5263 -0.5415 -0.1044
19085TIP3    H178746   3.754   2.726  16.325  0.4066 -0.0238  0.0852
19085TIP3    H278747   3.704   2.755  16.465  0.6997  0.0397  0.1768
19086TIP3   OH278748   6.061   3.698  15.259 -0.0259 -0.2416  0.2397
19086TIP3    H178749   6.015   3.766  15.309 -0.6436  1.0433 -1.9622
19086TIP3    H278750   5.991   3.642  15.226  0.0746  0.6057 -1.5229
19087TIP3   OH278751   5.636   2.291   2.173 -0.2092  0.0851  0.1654
19087TIP3    H178752   5.711   2.351   2.170 -0.3627  0.2744 -2.8800
19087TIP3    H278753   5.560   2.348   2.179 -0.2469  0.0877 -0.2998
19088TIP3   OH278754   0.894   0.907  11.623  0.1336  0.0614 -0.2034
19088TIP3    H178755   0.865   0.968  11.691  0.9689  1.6776 -1.2308
19088TIP3    H278756   0.825   0.909  11.557  0.6788  0.8141 -0.7717
19089TIP3   OH278757   5.908   5.137   4.237 -0.7516 -0.0516 -0.3493
19089TIP3    H178758   5.975   5.204   4.251 -2.2804  0.9986  2.8029
19089TIP3    H278759   5.924   5.106   4.148  3.4674  0.5874 -0.0235
19090TIP3   OH278760   5.291   1.365   2.054 -0.4316 -0.0840 -0.1076
19090TIP3    H178761   5.274   1.274   2.080 -1.1071 -0.2313 -1.0112
19090TIP3    H278762   5.214   1.390   2.002 -1.2434  1.7107  1.8391
19091TIP3   OH278763   2.125   1.528  12.297  0.3905  0.1056 -0.0715
19091TIP3    H178764   2.182   1.516  12.222 -0.0142 -0.1010 -0.3443
19091TIP3    H278765   2.160   1.469  12.364  0.0814 -0.5407 -0.4709
19092TIP3   OH278766   6.183   5.677  13.770 -0.3930  0.3709 -0.7937
19092TIP3    H178767   6.115   5.659  13.834 -0.7189 -1.5040 -1.6011
19092TIP3    H278768   6.242   5.601  13.775  1.3673  1.6739 -0.4965
19093TIP3   OH278769   1.540   5.730  10.539 -0.0825 -0.1204 -0.4039
19093TIP3    H178770   1.496   5.663  10.591  0.6129 -2.0260 -2.1182
19093TIP3    H278771   1.470   5.775  10.493 -0.4753 -0.5948 -0.2709
19094TIP3   OH278772   6.280   4.436   1.162  0.1448  0.3372 -0.4180
19094TIP3    H178773   6.186   4.430   1.182  0.4842 -1.1526  0.8950
19094TIP3    H278774   6.317   4.479   1.239  1.0467 -2.6646  0.9616
19095TIP3   OH278775   4.461   1.382  11.681 -0.7492 -0.4111  0.0762
19095TIP3    H178776   4.505   1.344  11.757  1.7466 -1.0409 -1.6034
19095TIP3    H278777   4.425   1.464  11.714  3.2813  1.1207  1.2691
19096TIP3   OH278778   4.350   3.713  16.899  0.1462  0.8619  0.0464
19096TIP3    H178779   4.429   3.692  16.849  0.9418  0.5903  1.3738
19096TIP3    H278780   4.317   3.628  16.929 -1.0626  0.9098 -1.0491
19097TIP3   OH278781   5.070   6.082  12.574  0.1068 -0.0312  0.1905
19097TIP3    H178782   5.003   6.076  12.505  1.0627  0.0724 -0.7795
19097TIP3    H278783   5.152   6.068  12.528  0.7165 -0.8683  1.4784
19098TIP3   OH278784   4.280   3.232  10.592  0.3048 -0.8061 -0.2241
19098TIP3    H178785   4.348   3.299  10.601 -0.2031 -0.1395 -1.0505
19098TIP3    H278786   4.235   3.232  10.676  0.8519 -0.7151  0.0741
19099TIP3   OH278787   6.819   4.814   4.060  0.5539  0.3323 -0.9256
19099TIP3    H178788   6.739   4.866   4.071  1.7401  1.9408  0.8596
19099TIP3    H278789   6.827   4.766   4.143  1.3879  0.1326 -1.1146
19100TIP3   OH278790   4.166   6.199  13.538 -0.5421 -0.0872  0.0099
19100TIP3    H178791   4.256   6.225  13.518 -1.2070  2.4538 -0.1265
19100TIP3    H278792   4.166   6.185  13.633  0.2018 -1.1477 -0.1311
19101TIP3   OH278793   1.518   2.113   3.962  0.4342 -0.1644 -0.3069
19101TIP3    H178794   1.502   2.191   3.909  1.3134 -0.2940 -0.7775
19101TIP3    H278795   1.481   2.041   3.911 -1.3403  0.0382  0.6119
19102TIP3   OH278796   4.062   4.874   0.296 -0.1998 -0.0302  0.2507
19102TIP3    H178797   4.156   4.856   0.301 -0.1833 -0.3815 -1.0504
19102TIP3    H278798   4.022   4.811   0.355  0.3731  0.0843  0.7707
19103TIP3   OH278799   1.028   6.305  14.478 -0.5555 -0.0748  0.3116
19103TIP3    H178800   1.008   6.399  14.478  1.0104  0.2831  0.1611
19103TIP3    H278801   1.040   6.284  14.385  2.1801  0.3184  0.5049
19104TIP3   OH278802   4.940   1.699  16.292  0.3606  0.2548 -0.0264
19104TIP3    H178803   4.978   1.612  16.287 -0.9707 -0.3159 -0.9356
19104TIP3    H278804   4.968   1.733  16.377  1.5373 -0.7386  0.0051
19105TIP3   OH278805   5.710   4.740  11.448  0.1480  0.1035 -0.2823
19105TIP3    H178806   5.646   4.790  11.498  0.7405  0.4423  0.1558
19105TIP3    H278807   5.660   4.704  11.375 -0.6892 -0.2268  0.4301
19106TIP3   OH278808   0.551   0.386  15.493  0.2968 -0.2461 -0.7090
19106TIP3    H178809   0.505   0.464  15.521 -1.5119 -1.2000 -0.8829
19106TIP3    H278810   0.516   0.367  15.406 -0.0401 -1.7694 -0.2827
19107TIP3   OH278811   6.309   3.861  16.326  0.2498 -0.5649  0.2935
19107TIP3    H178812   6.304   3.854  16.231 -0.0082  0.6236  0.2071
19107TIP3    H278813   6.402   3.854  16.347  0.2808 -1.1024 -0.0158
19108TIP3   OH278814   6.636   3.305   0.258 -0.2160  0.6003 -0.2857
19108TIP3    H178815   6.664   3.333   0.171  1.8315 -0.1468  0.0651
19108TIP3    H278816   6.643   3.209   0.256  0.5085  0.6028  0.8666
19109TIP3   OH278817   6.457   1.360  12.282 -0.1785  0.4436 -0.1945
19109TIP3    H178818   6.384   1.310  12.246  0.7732 -0.0838 -1.4959
19109TIP3    H278819   6.442   1.360  12.376 -2.4742  1.3748 -0.4984
19110TIP3   OH278820   2.406   0.237   1.999 -0.2001 -0.1039  0.0665
19110TIP3    H178821   2.460   0.314   2.021 -1.2182  1.7633 -3.3035
19110TIP3    H278822   2.469   0.173   1.965  0.3465  0.2912  0.3065
19111TIP3   OH278823   0.965   5.264  12.050  0.6708  0.4154 -0.1853
19111TIP3    H178824   0.873   5.243  12.033  1.5046 -2.4183 -1.7605
19111TIP3    H278825   0.962   5.332  12.118 -2.5563  0.3783 -0.1539
19112TIP3   OH278826   0.613   1.206  14.615 -0.2782 -0.3034  0.1228
19112TIP3    H178827   0.608   1.112  14.637  0.7013 -0.4590 -0.2959
19112TIP3    H278828   0.602   1.250  14.699 -0.5554 -0.7973  0.3525
19113TIP3   OH278829   2.676   3.454  14.823 -0.2333  1.0305  0.7384
19113TIP3    H178830   2.684   3.450  14.918  0.5386  0.7137  0.6595
19113TIP3    H278831   2.638   3.370  14.798 -1.1504  1.3976  0.8216
19114TIP3   OH278832   4.948   2.722  13.896 -0.1285  0.2890 -0.2397
19114TIP3    H178833   4.972   2.812  13.917 -2.9774  0.9187  0.8123
19114TIP3    H278834   4.901   2.729  13.813  1.8016 -0.6724 -1.4966
19115TIP3   OH278835   6.476   4.717  16.608  0.2031  0.2099  0.1028
19115TIP3    H178836   6.392   4.733  16.565  0.3623  0.1887 -0.2188
19115TIP3    H278837   6.528   4.672  16.542  0.0305 -0.9294  0.7231
19116TIP3   OH278838   2.428   0.377   4.564  0.1328  0.2727  0.2189
19116TIP3    H178839   2.464   0.464   4.580  0.6673 -0.2257  1.8793
19116TIP3    H278840   2.346   0.375   4.613 -0.5623  0.2709 -0.9004
19117TIP3   OH278841   5.587   4.155  14.212  0.2751 -0.1149 -0.0300
19117TIP3    H178842   5.613   4.210  14.286 -0.9372  1.9546 -1.0650
19117TIP3    H278843   5.557   4.073  14.252 -0.4658  0.9986  1.7898
19118TIP3   OH278844   0.229   4.726  13.698  0.2430 -0.9335 -0.3046
19118TIP3    H178845   0.319   4.752  13.716  0.4926 -1.0503 -1.3343
19118TIP3    H278846   0.227   4.632  13.713  1.3072 -1.6802 -3.8777
19119TIP3   OH278847   4.588   3.486   4.608  0.0278 -0.1836  0.7817
19119TIP3    H178848   4.523   3.531   4.663 -1.1649 -0.9422  0.0496
19119TIP3    H278849   4.590   3.536   4.527 -0.4233 -0.7524  0.4133
19120TIP3   OH278850   0.292   1.974   1.635  0.3724  0.3090  0.0620
19120TIP3    H178851   0.313   2.047   1.577 -1.9994  1.1322  0.1473
19120TIP3    H278852   0.240   2.014   1.705  0.0781 -1.2685  0.7792
19121TIP3   OH278853   3.547   3.148   2.562  0.2338  0.0133 -0.1255
19121TIP3    H178854   3.613   3.208   2.595  0.8542 -0.1215 -1.1065
19121TIP3    H278855   3.574   3.128   2.473 -2.4458  1.8905 -1.4983
19122TIP3   OH278856   0.765   3.954  13.823 -0.2192 -0.1222  0.1284
19122TIP3    H178857   0.756   3.910  13.908  0.4859 -0.2084  0.1660
19122TIP3    H278858   0.763   3.884  13.759  1.4212 -0.2956  0.2191
19123TIP3   OH278859   6.629   4.972  13.493  0.2487 -0.2889 -0.3465
19123TIP3    H178860   6.652   4.904  13.556  0.2292 -0.7644 -0.8450
19123TIP3    H278861   6.711   5.019  13.477  0.4196 -0.6486 -0.5370
19124TIP3   OH278862   2.005   4.349  13.523 -0.1028 -0.8841  0.1146
19124TIP3    H178863   2.045   4.362  13.438  2.5563 -2.1324  1.0411
19124TIP3    H278864   2.065   4.289  13.569 -1.1607  0.0775  3.0123
19125TIP3   OH278865   4.269   0.925  12.868  0.3775 -0.7398  0.0766
19125TIP3    H178866   4.223   0.842  12.855 -0.2989 -0.1911 -1.2201
19125TIP3    H278867   4.268   0.938  12.963 -3.6244 -0.0182  0.1266
19126TIP3   OH278868   4.979   6.267  14.342 -0.2109 -0.0199 -1.0264
19126TIP3    H178869   5.019   6.203  14.400 -1.1743  0.2469 -0.0356
19126TIP3    H278870   4.980   6.225  14.256  0.1861 -0.9013 -0.6012
19127TIP3   OH278871   3.615   1.211  16.728 -0.3533  0.3397 -0.8285
19127TIP3    H178872   3.610   1.123  16.690 -0.6859  0.3698 -0.8567
19127TIP3    H278873   3.544   1.260  16.685 -1.0720  0.2321  0.2160
19128TIP3   OH278874   5.207   1.891  15.175 -0.3622  0.3693 -0.2843
19128TIP3    H178875   5.174   1.945  15.102  0.8561  0.2875 -0.9279
19128TIP3    H278876   5.157   1.920  15.251 -1.7538  0.3756 -1.1737
19129TIP3   OH278877   2.805   4.824  15.019  0.2000  0.1582  0.1651
19129TIP3    H178878   2.756   4.815  14.938  0.6205 -1.4911  0.0526
19129TIP3    H278879   2.846   4.911  15.013 -0.8666  0.6208 -0.7406
19130TIP3   OH278880   3.801   0.481   1.920  0.4173  0.0068 -0.0787
19130TIP3    H178881   3.757   0.524   1.994  0.7557  0.6396 -0.2351
19130TIP3    H278882   3.812   0.390   1.948 -1.1374 -0.2072 -0.1074
19131TIP3   OH278883   6.361   1.956  16.212  0.4513  0.2631  0.2143
19131TIP3    H178884   6.353   1.868  16.248  1.5863  0.8794  2.2012
19131TIP3    H278885   6.278   1.999  16.234  1.0709  0.5819  2.1226
19132TIP3   OH278886   5.980   0.270  14.078  0.2464  0.0314  0.2720
19132TIP3    H178887   6.025   0.350  14.104  0.3772 -0.0856  0.4071
19132TIP3    H278888   6.015   0.202  14.136  1.9527 -0.6434 -1.4298
19133TIP3   OH278889   4.786   5.397   2.603 -0.6946  0.0123 -0.3284
19133TIP3    H178890   4.792   5.365   2.692 -0.2582 -1.0514 -0.7235
19133TIP3    H278891   4.769   5.491   2.612 -0.4286 -0.0420  0.8568
19134TIP3   OH278892   2.992   2.927   0.260 -0.5317 -0.0405  0.4776
19134TIP3    H178893   2.974   3.010   0.306 -0.3479 -0.1540  0.7558
19134TIP3    H278894   3.081   2.937   0.227 -1.0200  0.4425 -0.7319
19135TIP3   OH278895   5.050   3.972  10.973  0.4400 -0.1612 -0.1916
19135TIP3    H178896   5.079   4.060  10.951  2.9654 -0.7020  0.6900
19135TIP3    H278897   5.096   3.915  10.911  1.3144 -1.0637  1.2405
19136TIP3   OH278898   6.633   2.474  12.857  0.4530 -0.9677  0.1107
19136TIP3    H178899   6.685   2.487  12.937 -0.8206 -1.8153  1.1271
19136TIP3    H278900   6.665   2.391  12.821  0.4967 -0.9861  0.1917
19137TIP3   OH278901   2.375   0.354  14.008 -0.4941  0.3820  0.5377
19137TIP3    H178902   2.450   0.303  14.039 -0.7599 -0.0213  0.5257
19137TIP3    H278903   2.299   0.301  14.030 -0.7655  0.6834  0.3425
19138TIP3   OH278904   1.886   1.696  15.338  0.1049 -0.4939  0.2873
19138TIP3    H178905   1.852   1.610  15.363  0.1777 -0.6590 -0.1618
19138TIP3    H278906   1.922   1.682  15.250  2.7651 -0.6911  1.3378
19139TIP3   OH278907   1.881   3.274   4.720 -0.6087  0.1002  0.0016
19139TIP3    H178908   1.933   3.196   4.706  0.1941  0.4602  0.8872
19139TIP3    H278909   1.856   3.303   4.632 -0.0754 -0.5768 -0.3780
19140TIP3   OH278910   0.085   0.954  12.240 -0.1588  0.1400  0.6715
19140TIP3    H178911   0.077   0.864  12.272 -1.2957  0.2043  0.6000
19140TIP3    H278912   0.069   0.947  12.146  1.1217  0.2369  0.4342
19141TIP3   OH278913   3.273   0.830  13.675  0.0579 -0.1618  0.1383
19141TIP3    H178914   3.248   0.870  13.759  2.3983  0.4875  0.6104
19141TIP3    H278915   3.296   0.740  13.698  0.3070 -0.1019  0.1240
19142TIP3   OH278916   0.328   2.194   2.138 -0.0250  0.4712  0.2287
19142TIP3    H178917   0.240   2.180   2.173  0.2507 -3.4873 -0.3065
19142TIP3    H278918   0.380   2.120   2.170  3.2224  2.6120  0.5017
19143TIP3   OH278919   4.645   2.669   0.457 -0.6531 -0.2715  0.4857
19143TIP3    H178920   4.699   2.603   0.500  0.1402  0.7801  1.1658
19143TIP3    H278921   4.699   2.702   0.385 -0.6666  0.2814  0.7228
19144TIP3   OH278922   2.198   0.389   4.703  0.0927  0.5797  0.2703
19144TIP3    H178923   2.200   0.483   4.720  0.7814  0.5075  0.6019
19144TIP3    H278924   2.121   0.358   4.752  1.0126  0.6619  1.8534
19145TIP3   OH278925   2.629   6.548   4.655  0.1334  0.1109 -0.5995
19145TIP3    H178926   2.680   6.625   4.679 -0.0515  0.5359 -1.5299
19145TIP3    H278927   2.598   6.566   4.567 -1.1086 -0.4111 -0.2931
19146TIP3   OH278928   1.155   2.792   1.536 -0.2078  0.2823 -0.0558
19146TIP3    H178929   1.086   2.858   1.537 -0.0620  0.4374  0.0273
19146TIP3    H278930   1.191   2.794   1.625  0.5852  0.9418 -0.3788
19147TIP3   OH278931   3.409   3.997   0.329  0.2746 -0.2825  0.2689
19147TIP3    H178932   3.383   3.988   0.237 -0.0569  2.5568 -0.0249
19147TIP3    H278933   3.341   3.951   0.378  0.9699 -2.6718 -0.8901
19148TIP3   OH278934   0.456   5.677   3.261 -0.0054  0.7221  0.1401
19148TIP3    H178935   0.381   5.711   3.213  0.3962  1.3619 -0.0401
19148TIP3    H278936   0.531   5.689   3.202  0.0662 -1.0939 -0.2241
19149TIP3   OH278937   3.947   0.881   0.068 -0.8550 -0.2221 -0.0355
19149TIP3    H178938   4.012   0.877  -0.002 -0.1934  0.9901  0.4796
19149TIP3    H278939   3.969   0.807   0.125 -1.5132 -1.3314 -1.1666
19150TIP3   OH278940   5.397   6.475   0.037  0.2517  0.5320  0.0280
19150TIP3    H178941   5.433   6.453   0.123 -0.7093  0.7772  0.5090
19150TIP3    H278942   5.389   6.570   0.037 -0.6139  0.4708  0.0387
19151TIP3   OH278943   0.643   1.868   2.446 -0.3972  0.0068 -0.5906
19151TIP3    H178944   0.676   1.779   2.459  1.2087  0.6695  0.0934
19151TIP3    H278945   0.573   1.878   2.510  0.5038 -0.2363  0.4514
19152TIP3   OH278946   6.046   5.396  11.934  0.1395 -0.2238  0.0510
19152TIP3    H178947   6.111   5.412  12.003  0.9699  0.4918 -0.8725
19152TIP3    H278948   5.969   5.445  11.961  0.5505  0.2713  0.3315
19153TIP3   OH278949   0.013   4.817   0.330  0.4225  0.4961 -0.6033
19153TIP3    H178950  -0.012   4.860   0.412 -2.9670 -0.8879 -0.7425
19153TIP3    H278951   0.053   4.735   0.358 -1.7261 -0.4887 -0.2057
19154TIP3   OH278952   6.436   0.479  16.499  0.6004 -0.2772  0.2442
19154TIP3    H178953   6.492   0.407  16.470 -0.2736 -0.5133 -0.9288
19154TIP3    H278954   6.366   0.436  16.549  1.4867  0.0267  1.8001
19155TIP3   OH278955   4.647   2.247  11.906  0.3766 -0.2242 -0.0300
19155TIP3    H178956   4.638   2.302  11.984 -0.9347  1.0869 -1.0555
19155TIP3    H278957   4.705   2.176  11.934 -0.6376 -0.2117  2.3459
19156TIP3   OH278958   6.634   2.932  16.229  0.3183  0.3780  0.5108
19156TIP3    H178959   6.575   2.929  16.304 -0.7413  1.1364 -0.2681
19156TIP3    H278960   6.607   2.859  16.173 -1.1544  1.7988 -0.7317
19157TIP3   OH278961   5.550   2.413   4.817 -0.3187  0.1058 -0.7220
19157TIP3    H178962   5.585   2.333   4.778  0.0566  0.0757 -0.3344
19157TIP3    H278963   5.527   2.469   4.743 -1.7530 -0.8509 -1.0190
19158TIP3   OH278964   2.731   3.730  11.929 -0.2441  0.1778 -0.3220
19158TIP3    H178965   2.803   3.691  11.978 -0.3010  1.6878  1.0318
19158TIP3    H278966   2.654   3.678  11.953  0.2057 -0.8687 -1.0717
19159TIP3   OH278967   6.285   2.275   2.095 -0.2153  0.2060 -0.4517
19159TIP3    H178968   6.301   2.294   2.187  1.9807  0.5307 -0.8377
19159TIP3    H278969   6.281   2.362   2.053  0.7577  0.0507 -0.9080
19160TIP3   OH278970   5.349   2.256  14.067  0.0813 -0.8211  0.0056
19160TIP3    H178971   5.299   2.337  14.052 -0.8829 -1.4750 -0.4242
19160TIP3    H278972   5.284   2.186  14.057  1.2288 -1.7448 -1.2481
19161TIP3   OH278973   6.350   6.655   4.639  0.2089  0.3532 -0.2744
19161TIP3    H178974   6.392   6.584   4.590 -0.1687  1.0099 -1.5914
19161TIP3    H278975   6.396   6.657   4.723  0.2650 -1.4078 -0.2286
19162TIP3   OH278976   2.228   1.172  12.052 -0.4468 -0.2361  0.3813
19162TIP3    H178977   2.266   1.139  12.134 -0.8110  0.2669  0.7584
19162TIP3    H278978   2.267   1.117  11.984  0.8854  0.2086  0.7605
19163TIP3   OH278979   1.949   0.904  12.210 -0.5355 -0.1486  0.2131
19163TIP3    H178980   1.934   0.875  12.300  1.8883  1.6776  1.3201
19163TIP3    H278981   1.898   0.843  12.157 -1.3813 -1.8324  2.7365
19164TIP3   OH278982   6.499   1.525   4.701  0.8542 -0.4347 -0.5561
19164TIP3    H178983   6.446   1.561   4.630 -1.2005  0.0488  1.1125
19164TIP3    H278984   6.570   1.588   4.713 -0.7897  1.3932  0.1031
19165TIP3   OH278985   2.669   2.510   4.703  0.7125  0.4696 -0.5109
19165TIP3    H178986   2.746   2.462   4.673 -0.7573 -2.3554 -0.1308
19165TIP3    H278987   2.602   2.492   4.637 -0.7549 -0.6457  1.1750
19166TIP3   OH278988   0.839   0.725  15.780  0.1389 -0.0888 -0.9372
19166TIP3    H178989   0.769   0.776  15.821 -0.2514  0.2512 -1.9968
19166TIP3    H278990   0.799   0.640  15.761  0.4238 -0.3691 -0.3042
19167TIP3   OH278991   2.839   6.783   4.125  0.1532  0.0768  0.0589
19167TIP3    H178992   2.823   6.688   4.126 -0.7793  0.2200  0.5926
19167TIP3    H278993   2.795   6.813   4.045 -1.7632  0.3777  1.1741
19168TIP3   OH278994   1.559   4.485   3.331 -0.2618 -0.3835 -0.3197
19168TIP3    H178995   1.568   4.535   3.249 -1.2860 -0.4404 -0.4768
19168TIP3    H278996   1.590   4.397   3.309 -0.2215 -0.3120 -0.5540
19169TIP3   OH278997   3.173   4.991   3.670  0.4576 -0.4219  0.2118
19169TIP3    H178998   3.206   4.969   3.757 -2.0887 -1.0754  1.1211
19169TIP3    H278999   3.115   4.918   3.648 -3.0731  2.0854  0.3684
19170TIP3   OH279000   1.017   2.615  11.741 -0.0001  0.1722  0.3828
19170TIP3    H179001   1.020   2.519  11.745 -0.0788  0.1972  1.6306
19170TIP3    H279002   1.011   2.635  11.648 -2.0129 -1.0931  0.1730
19171TIP3   OH279003   3.135   4.832   1.651  0.7289  0.3953 -0.5936
19171TIP3    H179004   3.115   4.739   1.654  1.7426  0.1459 -1.0515
19171TIP3    H279005   3.213   4.842   1.706 -0.5243  1.3211  1.1295
19172TIP3   OH279006   2.488   2.786   1.075  0.1094  0.6776  0.0037
19172TIP3    H179007   2.419   2.750   1.130 -0.5681  1.3864 -0.3680
19172TIP3    H279008   2.569   2.749   1.111 -0.5770 -1.8960 -0.8880
19173TIP3   OH279009   3.887   0.674   2.179  0.2437  0.1994 -0.3939
19173TIP3    H179010   3.945   0.686   2.103  1.1159 -0.3518  0.1659
19173TIP3    H279011   3.825   0.747   2.173 -1.2256 -1.1061 -2.9672
19174TIP3   OH279012   6.225   2.392   3.221 -0.8168 -0.1159  0.0434
19174TIP3    H179013   6.227   2.319   3.159  0.6773 -1.3843  1.4897
19174TIP3    H279014   6.316   2.403   3.248 -0.9618  2.4668 -0.2691
19175TIP3   OH279015   1.756   5.761   0.867 -0.0865 -0.0231 -0.4393
19175TIP3    H179016   1.827   5.803   0.915  0.4245 -0.1067 -1.1068
19175TIP3    H279017   1.678   5.812   0.890  0.1630  0.0035  0.3798
19176TIP3   OH279018   6.091   3.180  12.723 -0.1011  1.0007  1.1189
19176TIP3    H179019   6.163   3.208  12.666 -0.2732 -0.3017  0.2079
19176TIP3    H279020   6.133   3.128  12.791 -0.0357  1.4270  1.4044
19177TIP3   OH279021   1.117   6.188   1.021  0.3239 -0.0927 -0.5568
19177TIP3    H179022   1.053   6.127   0.985  0.2689  0.0070 -0.6295
19177TIP3    H279023   1.137   6.154   1.109 -0.9940  0.7205  0.0968
19178TIP3   OH279024   6.828   4.345  16.294  0.5624  0.2805 -0.7323
19178TIP3    H179025   6.779   4.427  16.301 -0.5027 -0.4385  1.7386
19178TIP3    H279026   6.843   4.334  16.201 -0.1029  2.7867 -1.2221
19179TIP3   OH279027   4.932   4.285   1.425 -0.5034 -0.0331 -0.0327
19179TIP3    H179028   4.917   4.317   1.514  0.1858 -1.2166  0.5247
19179TIP3    H279029   4.862   4.221   1.411  1.5381 -2.7325  1.1596
19180TIP3   OH279030   1.536   1.981   0.016 -0.3186  0.0828 -0.1298
19180TIP3    H179031   1.606   1.918   0.032 -0.8133 -0.1955  1.0313
19180TIP3    H279032   1.455   1.933   0.034 -0.6888  1.1698  1.2660
19181TIP3   OH279033   5.913   3.398  15.997 -0.0221  0.1809  0.3801
19181TIP3    H179034   5.999   3.369  16.030  0.3423 -0.2481 -0.8801
19181TIP3    H279035   5.913   3.492  16.013  0.7459  0.2091  0.2961
19182TIP3   OH279036   5.844   5.504   1.724  0.4430  0.6598  0.0077
19182TIP3    H179037   5.870   5.540   1.809 -0.0242 -0.3689  0.6152
19182TIP3    H279038   5.764   5.455   1.743  1.1535 -0.8580 -0.7186
19183TIP3   OH279039   2.505   2.625   4.881  0.3495 -0.8141  0.3682
19183TIP3    H179040   2.523   2.708   4.925  0.0244 -1.4763  1.8497
19183TIP3    H279041   2.591   2.594   4.852  0.5285 -0.1761  0.2114
19184TIP3   OH279042   4.707   4.359  13.786 -0.4119  0.1711  0.4768
19184TIP3    H179043   4.704   4.441  13.737 -0.4224 -0.4233 -0.5509
19184TIP3    H279044   4.647   4.301  13.740  0.9470 -0.9896  0.0700
19185TIP3   OH279045   4.478   6.223   3.217 -0.2490 -0.5361 -0.0035
19185TIP3    H179046   4.562   6.227   3.264  0.3613  3.1958 -1.0072
19185TIP3    H279047   4.418   6.273   3.272 -1.1664 -1.1625 -0.4271
19186TIP3   OH279048   5.885   2.978   0.694 -0.0138  0.0811  0.0700
19186TIP3    H179049   5.821   2.921   0.736  0.1725 -0.7563 -0.7672
19186TIP3    H279050   5.835   3.056   0.669 -0.7807 -0.6668 -0.7885
19187TIP3   OH279051   5.836   5.360   5.281  0.6820  0.7986  0.2312
19187TIP3    H179052   5.790   5.280   5.306 -0.1436  0.1028 -2.9804
19187TIP3    H279053   5.779   5.431   5.311 -0.7438  0.0221 -0.5106
19188TIP3   OH279054   0.969   1.888   4.102  0.4478 -0.2624 -0.6046
19188TIP3    H179055   0.971   1.846   4.016 -0.4766  0.2093 -0.8722
19188TIP3    H279056   0.879   1.921   4.110  0.3501 -0.8212  0.7941
19189TIP3   OH279057   1.007   0.634  14.402 -0.0041  0.0255  0.1253
19189TIP3    H179058   1.099   0.617  14.382  0.4034  0.6443  1.3257
19189TIP3    H279059   0.966   0.548  14.405  0.8053 -0.3500  0.7397
19190TIP3   OH279060   3.025   2.399   3.148  0.2140  0.0434  0.4181
19190TIP3    H179061   2.980   2.419   3.066  2.4003  2.4532 -0.3220
19190TIP3    H279062   3.043   2.305   3.143 -0.2100  0.0157 -1.6061
19191TIP3   OH279063   0.805   1.507  15.947  0.2110 -0.1107  0.5682
19191TIP3    H179064   0.826   1.496  16.040  0.2312  0.9099  0.6958
19191TIP3    H279065   0.874   1.564  15.914 -0.4090  0.4195  0.1806
19192TIP3   OH279066   4.577   2.939  13.129 -0.5023  0.1236  0.0568
19192TIP3    H179067   4.530   3.022  13.126  1.4377  1.2963  0.1374
19192TIP3    H279068   4.539   2.891  13.203 -0.9153  1.4239  0.7104
19193TIP3   OH279069   3.065   5.415  16.071 -0.7305  0.3298 -0.0243
19193TIP3    H179070   2.985   5.361  16.075 -1.7620  1.7432 -0.8519
19193TIP3    H279071   3.102   5.396  15.985 -0.1039 -0.3792  0.3871
19194TIP3   OH279072   2.076   1.727  17.072  0.2143 -0.0407 -0.0768
19194TIP3    H179073   2.038   1.639  17.080  0.8205 -0.3784 -0.7382
19194TIP3    H279074   2.080   1.742  16.978  1.7247 -0.0276 -0.0299
19195TIP3   OH279075   2.512   5.716  12.512  0.5366  0.3472 -0.0225
19195TIP3    H179076   2.518   5.634  12.464 -0.2319  1.1145 -1.4694
19195TIP3    H279077   2.435   5.760  12.476  1.0790  1.8206  0.5449
19196TIP3   OH279078   3.140   6.711   6.214  0.1834  0.3270  0.2720
19196TIP3    H179079   3.057   6.664   6.203  0.3923 -0.1209  0.5896
19196TIP3    H279080   3.200   6.670   6.152  0.4915 -0.1311  0.8657
19197TIP3   OH279081   4.334   1.721   5.812 -0.1032 -0.3664  0.1658
19197TIP3    H179082   4.241   1.699   5.817  0.0514 -0.8567  1.0784
19197TIP3    H279083   4.376   1.665   5.878  0.6758  0.7176  0.6248
19198TIP3   OH279084   4.105   5.894   2.329 -0.2530  0.2450  0.3780
19198TIP3    H179085   4.079   5.860   2.414 -1.6972 -0.5828 -0.3475
19198TIP3    H279086   4.091   5.821   2.268  3.0627 -0.0137 -0.2911
19199TIP3   OH279087   6.516   4.585  12.107 -0.2352 -0.4147 -0.0811
19199TIP3    H179088   6.475   4.671  12.107  0.1692 -0.2221  0.2386
19199TIP3    H279089   6.449   4.527  12.070 -1.0639 -0.2396  1.1123
19200TIP3   OH279090   4.917   0.553   6.715  0.3167 -0.3340 -0.3521
19200TIP3    H179091   4.915   0.460   6.739 -1.4268 -0.3483 -0.4007
19200TIP3    H279092   4.864   0.558   6.635 -1.2265  0.9559  0.7067
19201TIP3   OH279093   2.906   3.571  12.052  0.3726 -0.6266  0.6551
19201TIP3    H179094   2.905   3.553  12.146  0.8678  1.4725  1.1089
19201TIP3    H279095   2.977   3.634  12.040 -1.5529  1.4433 -0.6331
19202TIP3   OH279096   2.173   1.402  13.335 -0.6003 -0.2096 -0.1940
19202TIP3    H179097   2.100   1.415  13.275  0.3117  1.4872 -1.0139
19202TIP3    H279098   2.235   1.348  13.286 -1.0948 -1.2931  0.3447
19203TIP3   OH279099   3.315   6.387  10.053  0.2089 -0.0122  0.2052
19203TIP3    H179100   3.393   6.439  10.036  0.2421 -0.4623 -1.1434
19203TIP3    H279101   3.345   6.313  10.106  0.5273  0.2846  0.4363
19204TIP3   OH279102   3.140   1.154  17.170  0.0320 -0.3901  0.2016
19204TIP3    H179103   3.214   1.209  17.147  0.4479 -0.7462  0.6637
19204TIP3    H279104   3.178   1.081  17.219 -0.3536 -1.7330 -1.4084
19205TIP3   OH279105   6.664   3.455   5.839  0.0054 -0.3132  0.1183
19205TIP3    H179106   6.640   3.443   5.930 -0.6398 -0.5487 -0.0803
19205TIP3    H279107   6.585   3.489   5.797  0.5603  0.6958 -0.1726
19206TIP3   OH279108   0.655   0.204   0.324  0.5631 -0.1588 -0.2986
19206TIP3    H179109   0.610   0.135   0.372 -1.7030  0.5460 -1.2433
19206TIP3    H279110   0.675   0.270   0.390  1.8840 -1.2371  0.4402
19207TIP3   OH279111   1.713   1.365  14.942 -0.0500  0.2208 -0.5937
19207TIP3    H179112   1.661   1.370  14.861 -2.4753 -1.7172  0.7084
19207TIP3    H279113   1.729   1.271  14.954 -0.2049  0.4254  1.4361
19208TIP3   OH279114   4.342   6.343  15.366 -0.3908 -0.2238 -0.3281
19208TIP3    H179115   4.391   6.264  15.389 -0.5395 -0.7033 -1.5730
19208TIP3    H279116   4.408   6.408  15.343 -0.2974 -1.0187 -2.4827
19209TIP3   OH279117   2.988   5.866  14.718 -0.1130 -0.0068  0.0309
19209TIP3    H179118   3.078   5.869  14.749  0.7296 -0.5213 -2.1810
19209TIP3    H279119   2.991   5.906  14.632 -2.4624  1.9827  0.7559
19210TIP3   OH279120   3.424   2.761  12.634  0.1037  0.0428  0.6746
19210TIP3    H179121   3.448   2.848  12.666 -1.5116 -0.1910  2.7464
19210TIP3    H279122   3.506   2.724  12.601  0.6107  2.8198 -1.6510
19211TIP3   OH279123   4.974   3.950  12.025  0.3064 -0.4107  0.3636
19211TIP3    H179124   4.907   3.882  12.026  0.1643 -0.2928 -0.4210
19211TIP3    H279125   4.998   3.958  11.932  1.9958 -1.0225  0.7229
19212TIP3   OH279126   3.028   3.604   5.364 -0.1721 -0.0205  0.1275
19212TIP3    H179127   3.023   3.593   5.269 -0.1027 -0.4661  0.1750
19212TIP3    H279128   3.091   3.538   5.392  0.0068  0.2908  0.4523
19213TIP3   OH279129   3.322   3.695   0.536 -0.1779 -0.2641  0.2847
19213TIP3    H179130   3.242   3.643   0.548  0.7013 -1.6623  0.3273
19213TIP3    H279131   3.322   3.756   0.610 -0.6278 -1.0426  0.9524
19214TIP3   OH279132   4.067   6.832  17.191 -0.3173 -0.0655  0.4683
19214TIP3    H179133   4.118   6.811  17.270 -1.8947  1.1120  1.8712
19214TIP3    H279134   3.993   6.771  17.194 -0.1825 -0.2758 -0.3371
19215TIP3   OH279135   1.328   6.637  16.724 -0.0334 -0.5179 -0.7615
19215TIP3    H179136   1.352   6.706  16.662  0.1340  0.5365  0.4405
19215TIP3    H279137   1.399   6.573  16.717  1.4952  0.9541  0.3240
19216TIP3   OH279138   0.438   3.238   3.742 -0.1858  0.6743 -0.2461
19216TIP3    H179139   0.527   3.206   3.732 -1.0402 -1.6636 -1.1306
19216TIP3    H279140   0.420   3.231   3.836  0.3922  0.6486 -0.1330
19217TIP3   OH279141   1.265   2.172   3.117 -0.6191 -0.6066 -0.5210
19217TIP3    H179142   1.266   2.212   3.204  0.2109  1.2759 -1.3410
19217TIP3    H279143   1.298   2.241   3.059  0.1517 -2.2589 -2.1344
19218TIP3   OH279144   2.133   1.375  14.839 -0.4371  0.2932 -0.2147
19218TIP3    H179145   2.065   1.309  14.846 -0.4428  0.2796 -0.3802
19218TIP3    H279146   2.087   1.458  14.853 -0.2492  0.2008  1.0346
19219TIP3   OH279147   0.166   4.569  16.302 -0.2893  0.6906  0.1245
19219TIP3    H179148   0.224   4.513  16.251 -1.7093 -0.1191 -0.6585
19219TIP3    H279149   0.130   4.512  16.369 -0.1984  1.1870  0.6056
19220TIP3   OH279150   5.074   1.298  11.683 -0.0902 -0.0127 -0.4481
19220TIP3    H179151   5.068   1.207  11.709 -2.8145 -0.1674 -1.2749
19220TIP3    H279152   4.990   1.317  11.641  0.3277  2.9155 -0.2109
19221TIP3   OH279153   1.287   1.829   0.731 -0.2976 -0.0633 -0.4855
19221TIP3    H179154   1.285   1.906   0.788  1.1413  0.0295 -0.5252
19221TIP3    H279155   1.263   1.863   0.645 -0.5892  0.1471 -0.3270
19222TIP3   OH279156   0.302   3.776  11.966  0.0126 -0.0180  0.5908
19222TIP3    H179157   0.294   3.723  12.046  1.7025 -0.6433  0.3865
19222TIP3    H279158   0.292   3.866  11.997 -1.8716 -0.3609  1.0998
19223TIP3   OH279159   2.201   5.331   6.271 -0.0427 -0.1539  0.4721
19223TIP3    H179160   2.157   5.307   6.353 -1.8657  0.2014 -0.3723
19223TIP3    H279161   2.248   5.411   6.292 -0.4378 -0.1019  1.1896
19224TIP3   OH279162   3.602   6.622  13.168 -0.3145  0.0918  0.0454
19224TIP3    H179163   3.512   6.633  13.197 -0.7459 -2.1918 -0.2260
19224TIP3    H279164   3.655   6.645  13.245 -1.1956  0.0268  0.6846
19225TIP3   OH279165   2.094   5.329   2.872 -0.2749 -0.3322  0.2975
19225TIP3    H179166   2.159   5.309   2.939  1.3369  0.9270 -0.7839
19225TIP3    H279167   2.107   5.423   2.855 -0.8196 -0.5575 -1.5387
19226TIP3   OH279168   3.621   2.597  12.424 -0.4720 -0.2204 -0.4838
19226TIP3    H179169   3.589   2.518  12.381  1.9207 -0.4547 -2.0067
19226TIP3    H279170   3.610   2.666  12.359 -0.2470  0.2001 -0.0834
19227TIP3   OH279171   3.870   3.080   1.687  0.0996 -0.2657 -0.2948
19227TIP3    H179172   3.947   3.053   1.737  0.4725 -0.6897 -1.0798
19227TIP3    H279173   3.833   2.998   1.653 -0.6438 -0.0573 -0.0164
19228TIP3   OH279174   6.342   4.228   2.044 -0.2130 -0.1825  0.5797
19228TIP3    H179175   6.362   4.193   1.958  1.3488 -2.3445  1.7378
19228TIP3    H279176   6.248   4.246   2.041 -0.3399 -0.9651 -1.2981
19229TIP3   OH279177   6.457   6.806   1.210  0.7394  0.0837 -0.2552
19229TIP3    H179178   6.532   6.777   1.262 -1.5672 -1.3744  2.5157
19229TIP3    H279179   6.423   6.726   1.170 -0.6305  0.3001  0.4072
19230TIP3   OH279180   3.763   3.608   5.720 -0.1717 -0.0820 -0.4329
19230TIP3    H179181   3.706   3.579   5.791 -0.2285  1.0715  0.0193
19230TIP3    H279182   3.720   3.578   5.640  0.8080 -3.0190  0.0256
19231TIP3   OH279183   2.793   3.720   0.082 -0.5866 -0.2578 -0.4067
19231TIP3    H179184   2.719   3.686   0.031 -1.3350  2.3696 -1.1908
19231TIP3    H279185   2.757   3.796   0.128  1.3470  0.3286  0.2095
19232TIP3   OH279186   1.200   6.811   1.808  0.4936 -0.3595  0.0087
19232TIP3    H179187   1.214   6.792   1.715 -0.7332 -0.0595 -0.2621
19232TIP3    H279188   1.119   6.765   1.830  0.4400  0.0786  0.7680
19233TIP3   OH279189   2.753   3.816  12.309 -0.0723 -0.2097 -0.2480
19233TIP3    H179190   2.755   3.875  12.384  1.1959 -0.1713 -0.2820
19233TIP3    H279191   2.826   3.756  12.324  2.0713  1.5164 -2.7741
19234TIP3   OH279192   1.516   1.424  12.789  0.1228 -0.0601 -0.4905
19234TIP3    H179193   1.585   1.490  12.799  0.3019  0.0496 -2.1965
19234TIP3    H279194   1.448   1.451  12.850  1.4403 -0.0032  1.0222
19235TIP3   OH279195   3.455   3.043  13.193 -0.0137 -0.2265  0.3082
19235TIP3    H179196   3.424   2.960  13.227 -0.1797 -0.3848 -0.2150
19235TIP3    H279197   3.533   3.063  13.245  0.0858 -0.7576  0.3683
19236TIP3   OH279198   5.623   3.879   0.637 -0.0128 -0.0060  0.0225
19236TIP3    H179199   5.715   3.874   0.663 -0.1222  0.7662  0.6221
19236TIP3    H279200   5.596   3.788   0.624  1.3432 -0.1937 -2.0777
19237TIP3   OH279201   0.578   2.596   3.094 -0.5305  0.2890 -0.0899
19237TIP3    H179202   0.529   2.658   3.040  0.9226  0.2776 -1.5261
19237TIP3    H279203   0.560   2.622   3.184 -2.3795  0.8545 -0.5855
19238TIP3   OH279204   2.577   0.829  15.128 -0.0751  0.0100  0.2402
19238TIP3    H179205   2.660   0.825  15.174 -0.6246  3.9563  1.9102
19238TIP3    H279206   2.512   0.800  15.192 -0.2092 -1.5943 -0.5691
19239TIP3   OH279207   5.683   1.445   3.865 -0.4153 -0.2089 -0.4653
19239TIP3    H179208   5.678   1.517   3.927  1.4195 -0.0101 -0.4912
19239TIP3    H279209   5.687   1.488   3.779  2.1630 -0.2022 -0.4100
19240TIP3   OH279210   1.031   4.971  13.738  0.3103 -0.0531  0.2177
19240TIP3    H179211   1.023   4.883  13.775  0.2099 -1.2860 -2.5087
19240TIP3    H279212   1.068   4.957  13.651 -2.5405  2.2565 -1.5412
19241TIP3   OH279213   1.808   4.851   1.013 -0.6413 -0.3359 -0.1813
19241TIP3    H179214   1.831   4.784   1.078 -2.5213 -0.5981  0.2679
19241TIP3    H279215   1.814   4.934   1.061 -0.1842 -0.3507 -0.2085
19242TIP3   OH279216   2.617   3.098  15.086  0.3246 -0.3631  0.5401
19242TIP3    H179217   2.631   3.095  14.992  1.4000 -0.9850  0.7045
19242TIP3    H279218   2.588   3.187  15.104  1.5136  0.1884 -0.1963
19243TIP3   OH279219   3.962   4.098  10.550  0.0271  0.1417  0.3276
19243TIP3    H179220   3.890   4.102  10.613  0.3823  2.7299  0.6790
19243TIP3    H279221   3.918   4.088  10.465 -0.4752 -2.8407  0.8243
19244TIP3   OH279222   6.211   5.661   4.543 -0.4913 -0.6401  0.7782
19244TIP3    H179223   6.228   5.571   4.570 -0.2445 -0.3890  1.4661
19244TIP3    H279224   6.165   5.652   4.459  0.0038 -1.3889  0.5778
19245TIP3   OH279225   2.995   3.601   2.099 -0.1657  0.6293  0.1860
19245TIP3    H179226   2.930   3.581   2.166  0.7082  1.2647  1.2582
19245TIP3    H279227   3.066   3.538   2.114 -0.1624  0.4693 -0.4508
19246TIP3   OH279228   5.660   2.867   4.072 -0.3152  0.2340  0.4521
19246TIP3    H179229   5.621   2.911   3.996  0.0698  1.0751  0.7329
19246TIP3    H279230   5.734   2.922   4.097  0.1767 -0.5770  0.8208
19247TIP3   OH279231   3.634   5.898  15.534  0.0857 -0.6912  0.0530
19247TIP3    H179232   3.669   5.955  15.603  3.5027  0.2782 -2.1811
19247TIP3    H279233   3.634   5.954  15.456 -2.7937 -1.9819 -0.9983
19248TIP3   OH279234   2.474   1.641  15.181 -0.0910  0.7527  0.1031
19248TIP3    H179235   2.440   1.702  15.115  1.2129  2.6921  1.0900
19248TIP3    H279236   2.545   1.595  15.137  0.2224  1.4297 -0.1192
19249TIP3   OH279237   6.129   3.449  12.849  0.4819 -0.3767  0.3405
19249TIP3    H179238   6.076   3.372  12.826  0.9512 -0.6287  0.0705
19249TIP3    H279239   6.072   3.523  12.831  0.0734 -0.6571  0.4553
19250TIP3   OH279240   4.012   5.994  13.194  0.0652  0.6247 -0.0553
19250TIP3    H179241   4.073   5.941  13.245  2.1679  2.5770 -0.3939
19250TIP3    H279242   3.953   5.930  13.154  0.6700 -1.2134  1.8071
19251TIP3   OH279243   4.369   4.799  13.718 -0.5914 -1.0274  0.2790
19251TIP3    H179244   4.381   4.838  13.632 -0.5482 -1.3266  0.1497
19251TIP3    H279245   4.394   4.708  13.707 -0.7078 -1.0970  0.5776
19252TIP3   OH279246   1.763   3.104   2.764 -0.2547  0.0819 -0.1408
19252TIP3    H179247   1.803   3.080   2.680 -1.6254  1.2281 -1.1744
19252TIP3    H279248   1.711   3.182   2.744  0.5966  1.3456  2.1138
19253TIP3   OH279249   3.280   1.335  12.004 -0.0120  0.7943  0.5263
19253TIP3    H179250   3.195   1.339  12.048 -0.5396 -0.5361 -0.3060
19253TIP3    H279251   3.291   1.243  11.981  0.6364  1.2851 -1.3356
19254TIP3   OH279252   2.472   2.131  12.736 -0.3068 -0.8142 -0.5980
19254TIP3    H179253   2.500   2.110  12.825  0.1234 -1.3361 -0.8547
19254TIP3    H279254   2.498   2.055  12.684  0.7325  0.0909 -1.4416
19255TIP3   OH279255   5.389   4.383  12.035 -0.0549  0.4680  0.1794
19255TIP3    H179256   5.294   4.390  12.030  0.0079  2.9532  1.1285
19255TIP3    H279257   5.405   4.300  12.079 -1.8074  0.3394  0.6130
19256TIP3   OH279258   1.683   1.331   2.174  0.3288 -0.5701  0.0439
19256TIP3    H179259   1.677   1.255   2.116 -1.1976 -0.4760  0.0511
19256TIP3    H279260   1.769   1.321   2.216 -0.0847 -2.6454  0.5314
19257TIP3   OH279261   1.154   1.135  15.515  0.4546 -0.1467 -0.4949
19257TIP3    H179262   1.131   1.228  15.519 -1.0373 -0.5020 -0.2384
19257TIP3    H279263   1.087   1.092  15.568  0.6519 -1.4672 -1.2917
19258TIP3   OH279264   1.063   1.199  16.419  0.0988  0.6676  0.7304
19258TIP3    H179265   1.075   1.187  16.325  0.0192 -1.0870  0.9181
19258TIP3    H279266   1.144   1.240  16.448  2.3401 -3.1678  0.5944
19259TIP3   OH279267   1.596   4.432   2.642 -0.3994  0.1808  0.4896
19259TIP3    H179268   1.566   4.522   2.655 -2.5844 -0.4390  0.2502
19259TIP3    H279269   1.686   4.431   2.673 -0.7766  2.1198  1.7908
19260TIP3   OH279270   1.109   0.423   1.459 -0.3878 -0.1512 -0.7210
19260TIP3    H179271   1.019   0.454   1.453 -1.4612 -2.6127  1.1413
19260TIP3    H279272   1.103   0.328   1.452  1.8671 -0.5119  0.9048
19261TIP3   OH279273   1.709   0.892   3.787 -0.0725 -0.8150  0.1617
19261TIP3    H179274   1.635   0.843   3.751 -2.0149  0.5299  2.0449
19261TIP3    H279275   1.675   0.930   3.868  1.4561  2.9935 -0.7554
19262TIP3   OH279276   5.599   1.150   3.234 -0.2680 -0.4836 -0.7023
19262TIP3    H179277   5.625   1.215   3.299  0.4749 -3.2683  2.0638
19262TIP3    H279278   5.510   1.125   3.260 -0.6414 -0.3975 -1.8716
19263TIP3   OH279279   3.804   4.824  10.722  0.0079 -0.1531  0.0492
19263TIP3    H179280   3.876   4.788  10.773 -0.1486  0.4881  0.7372
19263TIP3    H279281   3.781   4.905  10.766 -2.4491 -1.2911  1.0668
19264TIP3   OH279282   3.618   1.762   1.455  0.1748  0.3177  0.0700
19264TIP3    H179283   3.579   1.686   1.498 -1.1735 -0.0619 -1.6812
19264TIP3    H279284   3.691   1.787   1.511 -0.4258 -1.1882  1.6070
19265TIP3   OH279285   4.408   1.788   2.473  0.4372  0.1733  0.5959
19265TIP3    H179286   4.381   1.750   2.556 -1.4814 -1.5647 -0.7459
19265TIP3    H279287   4.398   1.883   2.486  4.0681  0.3770  3.5633
19266TIP3   OH279288   6.243   3.784  15.057 -0.2033  0.1620  0.2981
19266TIP3    H179289   6.181   3.773  15.130 -0.8023 -0.1785 -0.2474
19266TIP3    H279290   6.210   3.861  15.009  0.8536  1.0957  1.0273
19267TIP3   OH279291   5.756   3.660  12.100 -0.9941  0.5011 -0.0395
19267TIP3    H179292   5.702   3.737  12.117 -0.3450  1.0517 -0.4497
19267TIP3    H279293   5.770   3.660  12.005  0.0249  0.5704  0.1026
19268TIP3   OH279294   6.411   6.688   0.015 -0.0448 -0.3164 -0.6975
19268TIP3    H179295   6.471   6.671   0.088 -2.7784 -1.1742  1.5471
19268TIP3    H279296   6.455   6.757  -0.036  2.1504  0.1453  1.5860
19269TIP3   OH279297   1.323   2.305   1.718 -0.0152  0.0930 -0.1175
19269TIP3    H179298   1.388   2.367   1.752  0.8399 -0.7984 -0.0935
19269TIP3    H279299   1.273   2.279   1.795 -1.2199  1.6858 -0.3145
19270TIP3   OH279300   3.745   3.148  14.532 -0.7755 -0.3883 -0.2671
19270TIP3    H179301   3.726   3.055  14.518  1.2216 -0.7532 -1.0291
19270TIP3    H279302   3.787   3.151  14.618 -0.1359 -0.3448 -0.5681
19271TIP3   OH279303   2.467   2.521   2.667 -0.7021 -0.1735  0.4051
19271TIP3    H179304   2.470   2.611   2.700 -2.2599  0.1621 -0.2964
19271TIP3    H279305   2.397   2.521   2.602  0.1917 -1.5812 -0.6208
19272TIP3   OH279306   1.515   0.368   3.306 -0.1077  0.4931 -0.0915
19272TIP3    H179307   1.431   0.350   3.350 -0.9416  0.5027 -1.6197
19272TIP3    H279308   1.498   0.349   3.214  1.1002  2.0878 -0.6785
19273TIP3   OH279309   2.213   2.698   4.826 -0.1477  0.4170 -0.3011
19273TIP3    H179310   2.170   2.672   4.745  1.7282  0.2546 -1.2911
19273TIP3    H279311   2.301   2.723   4.800  0.8331 -0.5953  1.7999
19274TIP3   OH279312   0.836   0.423   3.286  0.4890  0.6049  0.0605
19274TIP3    H179313   0.870   0.353   3.341 -0.8444 -0.1070  0.0119
19274TIP3    H279314   0.869   0.403   3.198  1.1914  0.7926  0.2673
19275TIP3   OH279315   2.971   1.671  16.033 -0.4066  0.1337 -0.0293
19275TIP3    H179316   2.879   1.674  16.058 -0.5493 -1.0981 -0.3250
19275TIP3    H279317   3.016   1.636  16.110 -0.5502 -1.6072 -0.6856
19276TIP3   OH279318   2.605   1.759   1.135  0.2185  0.7457  0.3746
19276TIP3    H179319   2.598   1.806   1.052 -3.3441 -0.4920 -0.1864
19276TIP3    H279320   2.650   1.678   1.113  1.2497  1.3572  0.1616
19277TIP3   OH279321   5.154   6.332  11.251  0.1221 -0.0535 -0.4410
19277TIP3    H179322   5.215   6.259  11.258 -1.3534 -1.3676 -0.7930
19277TIP3    H279323   5.069   6.291  11.239 -0.5975  1.7356 -1.9224
19278TIP3   OH279324   1.467   2.765  12.914 -0.4304 -0.0300  0.0392
19278TIP3    H179325   1.541   2.720  12.873  0.1025 -0.8657  1.8258
19278TIP3    H279326   1.507   2.837  12.963 -0.9462  0.3179 -0.0412
19279TIP3   OH279327   3.694   0.394   4.467 -0.2595  0.2266  0.0770
19279TIP3    H179328   3.782   0.422   4.444 -0.4341 -0.5292 -1.6555
19279TIP3    H279329   3.700   0.299   4.476 -0.5960  0.3155  1.5094
19280TIP3   OH279330   0.045   4.472   3.962  0.3693  0.0541  0.4064
19280TIP3    H179331   0.095   4.553   3.948  0.3244 -0.1635 -1.1962
19280TIP3    H279332   0.100   4.403   3.925 -0.8109 -0.2639 -0.8600
19281TIP3   OH279333   0.044   2.231   4.820  0.0134  0.0816  0.2591
19281TIP3    H179334   0.011   2.236   4.731 -1.0483  0.1579  0.6382
19281TIP3    H279335   0.035   2.139   4.845 -0.4326  0.2017  0.5517
19282TIP3   OH279336   3.588   5.655  15.220 -0.0076  0.6369  0.8596
19282TIP3    H179337   3.538   5.579  15.247 -0.1498  1.0314  1.7328
19282TIP3    H279338   3.541   5.690  15.145  1.0999 -1.2244 -0.7921
19283TIP3   OH279339   0.586   5.422  13.489  0.0068 -0.0466 -0.6294
19283TIP3    H179340   0.589   5.429  13.585 -0.2270  0.9199 -0.6846
19283TIP3    H279341   0.519   5.485  13.463 -0.0225 -0.4057 -1.4223
19284TIP3   OH279342   3.201   1.493   3.083 -0.1299 -0.2959 -0.1698
19284TIP3    H179343   3.261   1.439   3.032 -0.4548  0.0987 -0.9826
19284TIP3    H279344   3.247   1.509   3.166  0.9291  0.0680 -0.8075
19285TIP3   OH279345   5.323   4.615  16.241  0.3126 -0.2643 -0.0334
19285TIP3    H179346   5.365   4.664  16.170  1.0683 -1.1166 -0.1957
19285TIP3    H279347   5.233   4.601  16.211  0.4727 -0.1535 -0.5815
19286TIP3   OH279348   4.118   3.806  14.219 -0.0471 -0.0854  0.0868
19286TIP3    H179349   4.024   3.787  14.224 -0.5760  2.1459 -0.3054
19286TIP3    H279350   4.156   3.728  14.179 -1.9221 -0.5295 -0.9734
19287TIP3   OH279351   2.156   0.077  15.830 -0.0352  0.1596  0.3401
19287TIP3    H179352   2.233   0.043  15.876  0.0516  0.5011  0.4484
19287TIP3    H279353   2.186   0.093  15.741 -0.3022 -0.8655  0.0502
19288TIP3   OH279354   0.712   3.679  14.538 -0.1416  0.0564  0.3790
19288TIP3    H179355   0.626   3.719  14.548  0.2120  0.6105  1.3215
19288TIP3    H279356   0.739   3.700  14.449  0.2860  2.4376  1.0200
19289TIP3   OH279357   3.737   5.856   5.994  0.2617 -0.0461  0.1933
19289TIP3    H179358   3.677   5.845   5.920 -1.7967 -0.0933  1.7856
19289TIP3    H279359   3.709   5.791   6.058  1.4156  0.5855  1.3960
19290TIP3   OH279360   1.478   2.396  16.904 -0.2818 -0.0323  0.6213
19290TIP3    H179361   1.460   2.460  16.973  0.8836 -0.7911  1.6940
19290TIP3    H279362   1.550   2.434  16.854 -1.4026  0.7089 -0.4836
19291TIP3   OH279363   3.501   5.151   3.274  0.3288  0.2381  0.0459
19291TIP3    H179364   3.427   5.204   3.244  0.6173 -0.0423 -1.2079
19291TIP3    H279365   3.478   5.127   3.364 -1.4030 -0.3636 -0.5145
19292TIP3   OH279366   3.191   4.216   0.723  0.1466  0.1810 -0.0930
19292TIP3    H179367   3.247   4.287   0.692 -0.1921 -0.2211 -1.7552
19292TIP3    H279368   3.139   4.255   0.793  0.6713  1.2835 -0.2979
19293TIP3   OH279369   2.726   4.109   5.518 -0.6544 -0.0432 -0.7109
19293TIP3    H179370   2.700   4.032   5.569 -0.8185 -0.6710 -1.7116
19293TIP3    H279371   2.665   4.178   5.547 -2.4317 -1.0531 -1.8371
19294TIP3   OH279372   6.293   1.314   1.782 -0.2742 -0.1217 -0.3265
19294TIP3    H179373   6.320   1.227   1.813 -2.0010 -0.4012  0.5371
19294TIP3    H279374   6.363   1.373   1.810  0.5054 -1.1025 -0.1658
19295TIP3   OH279375   3.435   4.701  13.036  0.2543 -0.0351 -0.1567
19295TIP3    H179376   3.374   4.705  12.963  0.6939  0.9447 -0.4955
19295TIP3    H279377   3.437   4.609  13.062 -0.3614 -0.2887 -0.9912
19296TIP3   OH279378   2.628   2.669  11.149 -0.1897 -0.2186  0.1963
19296TIP3    H179379   2.656   2.588  11.193 -0.3816 -0.3400  0.0959
19296TIP3    H279380   2.574   2.639  11.076  1.5714 -0.1074 -1.2155
19297TIP3   OH279381   6.339   6.075  11.893 -0.2023  0.5207 -0.2724
19297TIP3    H179382   6.287   5.998  11.871  0.9737 -0.1789 -0.6488
19297TIP3    H279383   6.294   6.147  11.850 -1.6122  0.1526  0.5010
19298TIP3   OH279384   5.465   4.141   1.287  0.2068 -0.5151 -0.4318
19298TIP3    H179385   5.549   4.176   1.319 -0.8923 -0.2775  2.5514
19298TIP3    H279386   5.482   4.048   1.274  0.4325 -1.0725  2.8034
19299TIP3   OH279387   3.719   4.923   3.860 -0.2302 -0.1511 -0.0450
19299TIP3    H179388   3.753   5.012   3.868 -2.1621  0.7992 -1.3206
19299TIP3    H279389   3.796   4.867   3.858  1.0315  1.4662  0.9661
19300TIP3   OH279390   0.735   4.887  15.893 -0.4403 -0.2647  0.5247
19300TIP3    H179391   0.772   4.974  15.885 -0.7024 -0.0030  1.9158
19300TIP3    H279392   0.643   4.897  15.868  0.3432 -1.0151 -3.4515
19301TIP3   OH279393   3.924   1.987  10.884 -0.0946 -0.0425  0.2739
19301TIP3    H179394   3.876   1.911  10.853 -1.3531  0.5705  0.6783
19301TIP3    H279395   3.946   2.036  10.805  0.7857 -0.8388  0.0044
19302TIP3   OH279396   1.237   1.360  13.678 -0.5954  0.0776  0.0794
19302TIP3    H179397   1.269   1.356  13.768 -1.2150  0.2738  0.3090
19302TIP3    H279398   1.315   1.380  13.626  0.2352 -2.2768  0.2885
19303TIP3   OH279399   0.421   2.254   5.165 -0.3883 -0.4665 -0.2055
19303TIP3    H179400   0.438   2.280   5.256 -0.6725 -1.4817  0.1548
19303TIP3    H279401   0.401   2.160   5.171  1.6270 -1.0299 -1.5662
19304TIP3   OH279402   5.945   6.036  10.483 -0.1926 -0.0024 -0.4037
19304TIP3    H179403   5.978   6.103  10.424 -1.2515  1.4526  0.5959
19304TIP3    H279404   5.856   6.064  10.504  0.3222 -0.1572  2.2919
19305TIP3   OH279405   1.558   5.146   6.268  0.4177  0.1626 -0.4815
19305TIP3    H179406   1.481   5.184   6.227  0.4631  0.2035 -0.5283
19305TIP3    H279407   1.609   5.221   6.300 -0.7380  0.0830  1.7155
19306TIP3   OH279408   3.761   0.173   2.565  0.2897  0.1077 -0.4476
19306TIP3    H179409   3.832   0.224   2.605 -0.9098  0.3879  1.4857
19306TIP3    H279410   3.747   0.100   2.626 -1.2237  0.2016 -0.6400
19307TIP3   OH279411   4.367   0.315  14.009 -0.5388  0.7657  0.2778
19307TIP3    H179412   4.334   0.312  14.098 -1.7433 -0.3763 -0.1800
19307TIP3    H279413   4.388   0.224  13.987 -0.3282  1.0196 -0.6346
19308TIP3   OH279414   6.471   3.556  11.043  0.6681  0.4372  0.0895
19308TIP3    H179415   6.414   3.618  10.998 -0.1553 -1.1917 -1.2272
19308TIP3    H279416   6.559   3.574  11.010  0.7767  2.1730  1.2233
19309TIP3   OH279417   0.674   3.887   4.399  0.1363 -0.2992 -0.1883
19309TIP3    H179418   0.585   3.883   4.365  0.3252  0.6412 -0.8304
19309TIP3    H279419   0.724   3.831   4.339  0.2004  0.1765 -0.5834
19310TIP3   OH279420   3.937   1.628   3.904  0.2871  0.1334 -0.2709
19310TIP3    H179421   4.018   1.637   3.855 -0.5731  0.5126 -1.6837
19310TIP3    H279422   3.911   1.718   3.924 -1.4308  0.2484 -2.6870
19311TIP3   OH279423   5.266   2.304   3.560 -0.9519  0.4578  0.1042
19311TIP3    H179424   5.247   2.396   3.577  0.0609  0.4956  1.1424
19311TIP3    H279425   5.190   2.272   3.511 -1.8942  1.5190  0.8410
19312TIP3   OH279426   2.819   1.535  11.241 -0.6421 -0.3536  0.7786
19312TIP3    H179427   2.801   1.449  11.277  1.3218  0.1579  3.2325
19312TIP3    H279428   2.913   1.535  11.224 -0.9429  0.6370 -1.2554
19313TIP3   OH279429   6.013   2.766   4.182 -0.3614 -1.2328  0.7037
19313TIP3    H179430   5.969   2.850   4.193 -0.3485 -1.1464  0.0988
19313TIP3    H279431   5.963   2.721   4.115  0.1493 -1.3526  0.3968
19314TIP3   OH279432   4.127   4.991  13.711 -0.0792  0.3219  1.1898
19314TIP3    H179433   4.095   5.081  13.720  0.3957  0.4473  1.6727
19314TIP3    H279434   4.187   4.994  13.636 -0.6719  0.2314  0.7063
19315TIP3   OH279435   4.661   4.270  12.334  0.0941 -0.1829  0.1474
19315TIP3    H179436   4.658   4.240  12.243 -0.5351  0.8972 -0.2159
19315TIP3    H279437   4.578   4.316  12.346 -0.1987 -1.0268  1.5429
19316TIP3   OH279438   1.257   6.528  13.904 -0.2987  0.0188  0.0546
19316TIP3    H179439   1.182   6.546  13.848 -1.3450 -1.6701  0.8516
19316TIP3    H279440   1.285   6.440  13.879 -0.5805 -0.6334  1.9054
19317TIP3   OH279441   6.240   3.301   6.101  0.1350  0.3158  0.3443
19317TIP3    H179442   6.275   3.294   6.190 -1.5965 -0.9825  0.9810
19317TIP3    H279443   6.153   3.261   6.106 -0.0727  0.3523 -1.9090
19318TIP3   OH279444   5.340   3.522   1.058  0.0556 -0.6595  0.4848
19318TIP3    H179445   5.356   3.435   1.022 -0.8661 -2.2431  3.5417
19318TIP3    H279446   5.245   3.526   1.071  0.0231  1.0186 -0.0388
19319TIP3   OH279447   6.801   2.750  15.889 -0.0194  0.1427 -0.1582
19319TIP3    H179448   6.757   2.724  15.970 -0.8805  1.1474 -0.2694
19319TIP3    H279449   6.784   2.678  15.828  0.7330 -0.6742  0.5640
19320TIP3   OH279450   0.946   3.890   0.949 -0.3251 -0.0313 -0.2069
19320TIP3    H179451   1.025   3.839   0.964  0.0065  0.4213 -0.3997
19320TIP3    H279452   0.950   3.960   1.014  0.5010  1.2275 -1.5689
19321TIP3   OH279453   5.508   5.831   4.761  0.1010  0.1998  0.1625
19321TIP3    H179454   5.584   5.777   4.741 -1.6135 -2.7099  0.8916
19321TIP3    H279455   5.486   5.874   4.678  1.2568 -0.6190 -0.5916
19322TIP3   OH279456   5.090   5.468  15.328 -0.1348 -0.0327 -0.4987
19322TIP3    H179457   5.120   5.555  15.301 -0.2742 -0.1564 -1.0877
19322TIP3    H279458   5.165   5.411  15.311  0.0574  0.0198  0.1694
19323TIP3   OH279459   0.220   3.093   3.609  0.0037  0.1142  0.0662
19323TIP3    H179460   0.167   3.136   3.677 -0.1140  0.4791 -0.2490
19323TIP3    H279461   0.311   3.115   3.632 -0.0139 -0.0715  0.3120
19324TIP3   OH279462   2.947   2.717  14.040  0.0429  0.5879  0.1029
19324TIP3    H179463   2.903   2.801  14.025  0.3643  0.7299 -0.0642
19324TIP3    H279464   2.933   2.699  14.133 -1.0426  0.2389 -0.1085
19325TIP3   OH279465   6.371   6.740  15.674  0.3482 -0.1753 -0.1869
19325TIP3    H179466   6.288   6.737  15.626  0.8305  0.6498 -1.1292
19325TIP3    H279467   6.364   6.818  15.729  0.0746 -0.7274  0.5759
19326TIP3   OH279468   3.667   1.517   1.738  0.5863 -0.4809 -0.5931
19326TIP3    H179469   3.640   1.480   1.654 -0.3034  2.1628 -1.5903
19326TIP3    H279470   3.585   1.541   1.781  1.1032  0.0963  0.0937
19327TIP3   OH279471   5.171   4.690   0.404  0.4359  0.3436  0.3038
19327TIP3    H179472   5.197   4.777   0.433  1.5847 -0.1325  0.7327
19327TIP3    H279473   5.205   4.683   0.315  0.4626  0.2789  0.3191
19328TIP3   OH279474   2.427   2.949   1.438  0.1426  0.6435  0.4622
19328TIP3    H179475   2.515   2.983   1.420  0.5909 -0.2870  0.8378
19328TIP3    H279476   2.423   2.942   1.533  0.8510 -2.2594  0.3757
19329TIP3   OH279477   5.148   1.313  11.420  0.4263  0.0939  0.4209
19329TIP3    H179478   5.158   1.217  11.421 -0.5745 -0.0751 -1.5797
19329TIP3    H279479   5.110   1.333  11.506  1.4685 -1.1742  1.2273
19330TIP3   OH279480   0.326   4.012  16.827  0.1944 -0.5210 -0.1273
19330TIP3    H179481   0.321   4.088  16.885 -1.8927 -0.9987  0.3750
19330TIP3    H279482   0.405   3.965  16.856  0.3457  0.3519  0.9443
19331TIP3   OH279483   3.098   3.811  14.677 -0.0186  0.3049  0.3404
19331TIP3    H179484   3.143   3.867  14.614  1.6202  0.6953  1.7861
19331TIP3    H279485   3.061   3.740  14.624 -0.5632  1.7372 -1.2936
19332TIP3   OH279486   6.091   1.982  12.423  0.3520 -0.5136  0.1006
19332TIP3    H179487   6.098   2.012  12.513 -1.3150 -0.4523  0.2454
19332TIP3    H279488   6.099   1.887  12.428  1.0586 -0.4570  0.1953
19333TIP3   OH279489   6.448   5.489   1.968  0.0934 -0.1290  0.5413
19333TIP3    H179490   6.386   5.423   1.938 -1.0081  1.2229 -0.2538
19333TIP3    H279491   6.527   5.439   1.990 -1.0366 -1.8108  0.9514
19334TIP3   OH279492   2.568   1.091   5.595 -0.1885  0.2390  0.1551
19334TIP3    H179493   2.478   1.093   5.563 -0.7336 -2.2782  1.2275
19334TIP3    H279494   2.580   1.175   5.638 -1.0879  1.6865 -2.2117
19335TIP3   OH279495   3.220   2.270   2.627  0.7213  0.0577  0.5208
19335TIP3    H179496   3.278   2.335   2.667  0.4738  0.0139  0.9529
19335TIP3    H279497   3.251   2.186   2.661  1.5572 -0.1453 -0.6568
19336TIP3   OH279498   1.632   3.387   3.911 -0.1683  0.5938 -0.2931
19336TIP3    H179499   1.594   3.320   3.967  1.2936 -0.9558 -1.0704
19336TIP3    H279500   1.564   3.405   3.846 -0.7981  0.3286  0.2770
19337TIP3   OH279501   3.721   4.399  12.336  0.0820 -0.1853  0.6626
19337TIP3    H179502   3.735   4.322  12.280 -0.3148 -0.2390  0.6271
19337TIP3    H279503   3.764   4.377  12.418  0.9000  0.0031  0.2972
19338TIP3   OH279504   3.582   0.979  11.221  0.1920 -0.0763 -0.2629
19338TIP3    H179505   3.598   0.894  11.181  0.4426  0.1683 -0.6858
19338TIP3    H279506   3.517   1.020  11.164  1.4691  0.7803 -1.1545
19339TIP3   OH279507   4.173   1.899  13.037 -0.4403 -0.3632  0.7129
19339TIP3    H179508   4.159   1.806  13.054 -0.3109 -0.1707  2.0124
19339TIP3    H279509   4.267   1.908  13.023 -0.6139 -0.6041 -0.7760
19340TIP3   OH279510   0.288   1.160   0.327  0.2165 -0.4280 -0.2122
19340TIP3    H179511   0.253   1.249   0.330  1.3525  0.0399  0.0055
19340TIP3    H279512   0.377   1.169   0.361  0.1976 -1.7336  0.2307
19341TIP3   OH279513   6.438   3.671   0.723 -0.0209 -0.4302 -0.1634
19341TIP3    H179514   6.424   3.582   0.754 -2.2971 -0.5293 -1.2866
19341TIP3    H279515   6.471   3.661   0.634  0.3365 -0.1504 -0.0644
19342TIP3   OH279516   6.180   3.449  16.466 -0.3539 -0.0220 -0.0109
19342TIP3    H179517   6.141   3.533  16.442 -0.1548  0.3826  1.0140
19342TIP3    H279518   6.233   3.424  16.391  0.5837  1.3985  0.1499
19343TIP3   OH279519   2.130   0.811   0.553  0.3681 -0.7135 -0.1569
19343TIP3    H179520   2.136   0.894   0.599  1.3907 -1.2170  0.6544
19343TIP3    H279521   2.039   0.784   0.563  0.1162  0.1397 -0.1367
19344TIP3   OH279522   0.501   6.445  11.284 -0.3083 -0.5586 -0.2318
19344TIP3    H179523   0.552   6.368  11.259 -0.9565 -1.5786  1.4167
19344TIP3    H279524   0.412   6.425  11.255  0.0140  0.9812 -2.6124
19345TIP3   OH279525   6.310   5.408   4.308 -0.0011  0.8086 -0.0236
19345TIP3    H179526   6.357   5.490   4.322  1.9807 -0.5398  1.6637
19345TIP3    H279527   6.376   5.348   4.274 -1.4970 -0.0574 -1.5589
19346TIP3   OH279528   6.273   3.803   3.989 -0.1673  0.7200 -0.1861
19346TIP3    H179529   6.206   3.849   4.040  0.1926 -0.4020  1.3732
19346TIP3    H279530   6.344   3.789   4.051  0.6854  0.1101 -1.2761
19347TIP3   OH279531   0.862   6.294   3.498 -0.1176  0.3554 -0.3432
19347TIP3    H179532   0.916   6.370   3.475  4.0439 -1.5223  2.1293
19347TIP3    H279533   0.817   6.321   3.579  2.1622  0.0230  1.1283
19348TIP3   OH279534   2.610   1.158  10.571  0.1017 -0.1124 -0.3133
19348TIP3    H179535   2.677   1.121  10.629 -0.7170 -0.2710  0.5368
19348TIP3    H279536   2.549   1.086  10.556 -1.1585  0.6961  0.8322
19349TIP3   OH279537   3.029   2.769   0.836 -0.1224  0.3050  0.2005
19349TIP3    H179538   2.988   2.854   0.855  0.4300  0.5094  0.5102
19349TIP3    H279539   2.965   2.704   0.865 -0.3189  0.6215  0.4814
19350TIP3   OH279540   4.480   0.822   3.153  0.2094  0.5011 -0.0142
19350TIP3    H179541   4.486   0.904   3.103 -1.3317 -0.1076 -1.2906
19350TIP3    H279542   4.390   0.792   3.138  0.4083 -0.8736  1.3349
19351TIP3   OH279543   0.781   1.962   3.366  0.2339  0.0229  0.2807
19351TIP3    H179544   0.739   1.980   3.450  0.1764  0.4676  0.1594
19351TIP3    H279545   0.767   2.042   3.314  0.0815 -0.3286 -0.2270
19352TIP3   OH279546   3.320   1.054   3.030  0.9382 -0.0600  0.2337
19352TIP3    H179547   3.313   0.966   3.067 -0.8246  0.3318  0.9104
19352TIP3    H279548   3.411   1.080   3.046  2.0288 -2.4230 -1.6069
19353TIP3   OH279549   6.784   6.116   5.772 -0.0262 -0.1248  0.3279
19353TIP3    H179550   6.731   6.127   5.693  0.2755  1.0750  0.2835
19353TIP3    H279551   6.803   6.205   5.801 -0.1436 -0.5503  1.7738
19354TIP3   OH279552   1.947   3.019   6.011 -0.3746  0.5932  0.1884
19354TIP3    H179553   1.856   3.047   6.005 -0.3983  0.5620  0.4200
19354TIP3    H279554   1.997   3.100   6.017  0.0474  1.0175 -4.7952
19355TIP3   OH279555   5.462   4.239   4.108  0.2563  0.0022 -0.1324
19355TIP3    H179556   5.550   4.202   4.099 -0.3022 -1.2132 -0.9155
19355TIP3    H279557   5.457   4.269   4.199  1.1673 -0.7377  0.1738
19356TIP3   OH279558   2.434   5.699   0.192  0.1041  0.2940  0.4989
19356TIP3    H179559   2.342   5.685   0.215  0.0008  0.2927  0.0915
19356TIP3    H279560   2.483   5.661   0.265 -0.2119 -0.2815  0.4176
19357TIP3   OH279561   4.103   1.672  12.416 -0.3408 -0.2646 -0.2696
19357TIP3    H179562   4.059   1.737  12.471 -0.9094 -0.9509  0.0965
19357TIP3    H279563   4.151   1.617  12.477 -1.1685 -1.1800 -0.4286
19358TIP3   OH279564   4.725   4.848   5.462  0.9363 -0.2288  0.3845
19358TIP3    H179565   4.723   4.930   5.511  1.6468  0.2084 -0.3030
19358TIP3    H279566   4.633   4.821   5.459 -0.0891  2.8338 -3.1090
19359TIP3   OH279567   2.748   0.351   4.065  0.0089 -0.2375 -0.2743
19359TIP3    H179568   2.744   0.403   4.145  0.1401  0.1093 -0.4901
19359TIP3    H279569   2.750   0.260   4.095  1.9305 -0.0780  0.1969
19360TIP3   OH279570   3.820   0.949  13.675 -0.1174  0.1857  0.2342
19360TIP3    H179571   3.735   0.947  13.718 -0.4047 -1.1947 -0.3555
19360TIP3    H279572   3.824   1.035  13.633 -0.6234  0.7964  1.4032
19361TIP3   OH279573   4.058   2.031  11.542  0.5477  0.2331  1.2881
19361TIP3    H179574   3.984   1.973  11.527  0.0056  0.9723  1.0667
19361TIP3    H279575   4.032   2.114  11.504  0.4253  1.2554  3.4730
19362TIP3   OH279576   5.481   5.868   2.460  0.3533  0.1510  0.4115
19362TIP3    H179577   5.495   5.962   2.469 -2.0234  0.5639  0.3302
19362TIP3    H279578   5.399   5.851   2.507  1.3047 -2.1022  1.4396
19363TIP3   OH279579   1.091   5.777  15.066  0.3405 -0.0541 -0.3563
19363TIP3    H179580   1.108   5.844  15.000 -1.7379  1.1725  0.2345
19363TIP3    H279581   1.178   5.751  15.097  1.3099  3.4273  0.3881
19364TIP3   OH279582   3.952   6.148   0.585  0.7466  0.5503  0.4497
19364TIP3    H179583   3.883   6.159   0.520  1.0736  1.8155  0.2900
19364TIP3    H279584   3.909   6.102   0.657  0.3225 -0.6539 -0.5412
19365TIP3   OH279585   3.046   0.302  12.522  0.2965  0.5713 -0.3132
19365TIP3    H179586   3.128   0.253  12.523  0.0899  0.1889 -1.0535
19365TIP3    H279587   3.072   0.394  12.528  0.6305  0.4073  3.2844
19366TIP3   OH279588   4.354   3.515   5.274 -0.6071 -0.1946 -0.1692
19366TIP3    H179589   4.302   3.594   5.259 -0.3602 -0.1306 -0.6657
19366TIP3    H279590   4.412   3.538   5.346 -1.0093 -0.1481  0.1475
19367TIP3   OH279591   5.460   6.088   5.763  0.2820  0.4134  0.0518
19367TIP3    H179592   5.412   6.008   5.785  1.5215 -0.2067  0.6368
19367TIP3    H279593   5.450   6.143   5.841  1.3079 -0.1219  0.5804
19368TIP3   OH279594   1.486   2.251   4.186  0.4920  0.6936 -1.0412
19368TIP3    H179595   1.485   2.190   4.260 -1.8865  2.0412  0.1552
19368TIP3    H279596   1.466   2.197   4.110 -0.3170 -0.2306 -0.1938
19369TIP3   OH279597   0.682   4.995   4.475 -0.0006  0.1038 -0.3140
19369TIP3    H179598   0.715   4.911   4.509  1.6755  0.6543 -0.4986
19369TIP3    H279599   0.606   5.014   4.529  1.2171 -0.2114  1.6105
19370TIP3   OH279600   1.278   2.897  13.783  0.1906 -0.1210 -0.4835
19370TIP3    H179601   1.280   2.801  13.777  0.8704 -0.0935 -0.7741
19370TIP3    H279602   1.290   2.927  13.693 -1.0553  0.2394 -0.5472
19371TIP3   OH279603   1.976   3.582  13.663  0.2667 -0.2117 -0.0655
19371TIP3    H179604   2.036   3.596  13.736  1.2681  0.5457 -0.9829
19371TIP3    H279605   1.899   3.542  13.702 -0.1169  2.1009  1.7765
19372TIP3   OH279606   6.003   5.751   0.652  0.8251 -0.2428 -0.8027
19372TIP3    H179607   6.011   5.658   0.629  3.7037 -0.2124 -0.3274
19372TIP3    H279608   6.087   5.773   0.692 -0.5949  2.0310  1.2252
19373TIP3   OH279609   6.080   0.002   3.862  0.6024 -0.1103 -0.3218
19373TIP3    H179610   6.146   0.004   3.931 -0.3345  0.6987  0.5789
19373TIP3    H279611   6.048  -0.088   3.861  1.0419 -0.2680 -0.1191
19374TIP3   OH279612   1.655   5.473   3.369 -0.0053 -0.1435 -0.1051
19374TIP3    H179613   1.678   5.563   3.391 -0.9269  0.0249  0.2042
19374TIP3    H279614   1.562   5.466   3.389 -0.0712 -1.0077 -0.6455
19375TIP3   OH279615   2.908   6.049  14.066  0.0627 -0.2138  0.0945
19375TIP3    H179616   2.955   6.014  14.142 -1.3405  1.0207  1.5840
19375TIP3    H279617   2.940   6.139  14.057 -0.0325 -0.2394 -0.5936
19376TIP3   OH279618   0.019   1.966   1.998  0.2011  0.7741 -0.3490
19376TIP3    H179619   0.025   1.979   2.093  0.1750  1.1216 -0.3927
19376TIP3    H279620   0.015   1.871   1.987 -0.4810  0.7559  0.0402
19377TIP3   OH279621   6.551   0.410  11.824  0.4015  0.1923  0.2350
19377TIP3    H179622   6.573   0.323  11.790  0.8233  0.8116 -1.1018
19377TIP3    H279623   6.635   0.457  11.827  0.1973  0.5324  1.0689
19378TIP3   OH279624   2.353   5.829  12.275 -0.5018  0.4759 -0.3179
19378TIP3    H179625   2.332   5.866  12.189  1.0284 -0.0518 -0.9589
19378TIP3    H279626   2.396   5.746  12.255 -0.2867  0.2641  0.9646
19379TIP3   OH279627   3.982   0.203   5.251 -0.0289  0.5794 -0.1480
19379TIP3    H179628   3.996   0.109   5.240 -0.6912  0.4390  0.1496
19379TIP3    H279629   3.919   0.209   5.322 -1.4183  1.1717 -1.3849
19380TIP3   OH279630   6.038   0.088  16.274 -1.0397 -0.4698  0.0689
19380TIP3    H179631   5.967   0.050  16.325 -1.4261 -0.9049 -0.7737
19380TIP3    H279632   6.007   0.176  16.251 -0.3604  0.1946  1.5790
19381TIP3   OH279633   4.810   3.494  11.632 -0.5447 -0.5275 -0.0683
19381TIP3    H179634   4.764   3.499  11.549  0.5929  0.8972 -0.6512
19381TIP3    H279635   4.864   3.415  11.626  1.8592  1.1335 -1.9955
19382TIP3   OH279636   4.380   0.187  12.825 -0.4186  0.6050 -0.3188
19382TIP3    H179637   4.333   0.138  12.892 -0.9455  1.0249 -0.3755
19382TIP3    H279638   4.465   0.205  12.864 -0.2854 -0.1807 -0.2243
19383TIP3   OH279639   0.521   3.272  11.122  0.0694  0.3039  0.5189
19383TIP3    H179640   0.553   3.265  11.032  1.2771 -1.8077  1.0594
19383TIP3    H279641   0.426   3.275  11.113  0.1647  0.1110 -0.8260
19384TIP3   OH279642   4.610   3.164   2.999  0.4937 -0.0528  0.2976
19384TIP3    H179643   4.552   3.098   2.961  1.8744 -0.7585 -0.6710
19384TIP3    H279644   4.601   3.153   3.093 -1.3621  0.2697  0.2086
19385TIP3   OH279645   3.998   6.512  12.983 -0.1742 -0.9562  0.3143
19385TIP3    H179646   3.954   6.433  13.012 -2.3563  0.6745  1.7663
19385TIP3    H279647   4.000   6.569  13.060 -0.7561  1.2575 -1.1907
19386TIP3   OH279648   2.726   4.612  13.603  0.0102  0.2543 -0.4262
19386TIP3    H179649   2.820   4.626  13.619  0.5113 -2.5630 -0.3092
19386TIP3    H279650   2.721   4.583  13.512 -0.1949 -2.8877  0.4692
19387TIP3   OH279651   2.019   4.532   0.471 -0.1010 -0.3384 -0.7762
19387TIP3    H179652   1.943   4.496   0.424 -0.4185  0.1468 -0.6444
19387TIP3    H279653   2.077   4.564   0.403 -0.2468 -0.2561 -0.8615
19388TIP3   OH279654   0.211   5.062  12.667  0.3362  0.5304 -0.6979
19388TIP3    H179655   0.288   5.118  12.677 -1.6274  3.0923  1.9177
19388TIP3    H279656   0.140   5.123  12.647 -1.4805 -1.3946 -0.4084
19389TIP3   OH279657   1.756   3.642  14.307 -0.3390  0.3646  0.8864
19389TIP3    H179658   1.839   3.608  14.272 -1.7116 -0.4575 -1.8181
19389TIP3    H279659   1.738   3.719  14.254 -1.3861  0.4720  1.3832
19390TIP3   OH279660   1.939   5.303   4.789  0.0500 -0.2083 -0.1265
19390TIP3    H179661   1.926   5.233   4.853 -0.6583  0.0964  0.0762
19390TIP3    H279662   1.947   5.257   4.705 -3.0816 -0.4924 -0.4046
19391TIP3   OH279663   0.437   3.136   2.173 -0.3269 -0.1067  0.1088
19391TIP3    H179664   0.476   3.087   2.246  0.6131 -2.1647 -1.6464
19391TIP3    H279665   0.467   3.226   2.185  2.2314 -0.9691  0.6860
19392TIP3   OH279666   1.353   6.303  16.057 -0.1667  0.1250  0.2002
19392TIP3    H179667   1.434   6.321  16.008  0.8138 -1.8729  1.0019
19392TIP3    H279668   1.356   6.363  16.131  0.7461 -0.1321  0.3828
19393TIP3   OH279669   5.283   3.076  14.184  0.1837 -0.0367  0.0089
19393TIP3    H179670   5.204   3.118  14.217  0.3801  1.5817 -1.4399
19393TIP3    H279671   5.355   3.123  14.227  0.4233 -1.5580  1.3917
19394TIP3   OH279672   5.475   0.380   5.133  0.2114 -0.4330  0.2410
19394TIP3    H179673   5.487   0.293   5.096 -1.1826 -0.7991  0.5915
19394TIP3    H279674   5.383   0.382   5.160  0.1685  1.2140  0.0691
19395TIP3   OH279675   4.315   5.531   3.890  0.0790  0.1863 -0.2084
19395TIP3    H179676   4.300   5.568   3.977 -0.6622 -0.5459 -0.0124
19395TIP3    H279677   4.228   5.514   3.855  0.3364  1.2551 -1.4569
19396TIP3   OH279678   3.529   6.210   0.804 -0.0370  0.2414 -0.0387
19396TIP3    H179679   3.484   6.146   0.749  0.2405 -0.5021  0.5921
19396TIP3    H279680   3.467   6.283   0.810  0.2562  0.7049 -2.0003
19397TIP3   OH279681   3.401   3.554  13.527  0.3270  0.1772 -0.1196
19397TIP3    H179682   3.446   3.638  13.535  0.8499 -0.0482 -0.6873
19397TIP3    H279683   3.419   3.525  13.438  1.2668 -1.1749  0.4891
19398TIP3   OH279684   4.175   3.793  13.939  0.7672 -0.4252 -0.9058
19398TIP3    H179685   4.268   3.793  13.961  0.5715  0.0735 -0.0389
19398TIP3    H279686   4.136   3.858  13.998  0.0067  0.0146 -1.8515
19399TIP3   OH279687   2.349   0.780  15.353  0.0365 -0.5074  0.3496
19399TIP3    H179688   2.258   0.762  15.329  0.5734 -2.3441 -0.5800
19399TIP3    H279689   2.358   0.745  15.441 -0.9901  2.9116  1.9827
19400TIP3   OH279690   6.609   5.071   2.268  0.2544  0.5562  0.4109
19400TIP3    H179691   6.582   5.101   2.355 -0.6466 -0.9326  0.6819
19400TIP3    H279692   6.696   5.109   2.255  0.4207  0.7776  1.9790
19401TIP3   OH279693   6.791   5.218   4.956  0.3098 -0.0664  0.6607
19401TIP3    H179694   6.786   5.126   4.983  2.0801 -0.7180 -1.0198
19401TIP3    H279695   6.883   5.242   4.966  0.4738  0.5792 -1.6858
19402TIP3   OH279696   1.509   3.927  11.447  0.7017  0.4899  0.1361
19402TIP3    H179697   1.553   3.859  11.397  0.6776  0.7176 -0.1992
19402TIP3    H279698   1.500   4.000  11.386  0.2880  0.6186  0.3453
19403TIP3   OH279699   6.375   5.968  16.601 -0.4410 -0.0330  0.6143
19403TIP3    H179700   6.377   6.058  16.634  1.9864 -0.5499  2.1804
19403TIP3    H279701   6.463   5.953  16.566 -0.7859 -1.7797  0.3838
19404TIP3   OH279702   2.505   6.498   3.300 -0.0517 -0.5293  0.5750
19404TIP3    H179703   2.500   6.533   3.211 -0.9811  1.1884  1.2574
19404TIP3    H279704   2.596   6.473   3.311  0.4344  0.7556 -0.3075
19405TIP3   OH279705   6.794   3.180  11.767 -0.0153  0.7193  0.0314
19405TIP3    H179706   6.743   3.223  11.698  0.6419  0.7351 -0.4541
19405TIP3    H279707   6.804   3.248  11.834 -1.5533  0.3862  0.6360
19406TIP3   OH279708   1.758   5.543   4.982 -0.4732  0.4541 -0.3900
19406TIP3    H179709   1.735   5.606   4.914 -3.1147 -1.2192 -1.1944
19406TIP3    H279710   1.677   5.497   5.001  0.8485 -1.2048  1.7828
19407TIP3   OH279711   6.144   3.599  13.984  0.0441  0.1979 -0.7389
19407TIP3    H179712   6.239   3.592  13.987 -0.0515 -1.6337 -0.8133
19407TIP3    H279713   6.115   3.517  13.945 -1.7211 -0.7232  2.1857
19408TIP3   OH279714   2.401   5.886  13.110  0.4068 -0.4125 -0.1009
19408TIP3    H179715   2.382   5.793  13.102  0.2058 -0.5223  1.3144
19408TIP3    H279716   2.318   5.929  13.086  0.0932 -0.6588  0.5226
19409TIP3   OH279717   4.610   2.448  11.692  0.1767 -0.1948 -0.0202
19409TIP3    H179718   4.580   2.524  11.742 -2.7332 -0.3784 -1.2442
19409TIP3    H279719   4.633   2.383  11.757  1.2667  1.1852  1.0380
19410TIP3   OH279720   2.294   0.114  15.557 -0.3783  0.7055 -0.1807
19410TIP3    H179721   2.272   0.064  15.478 -0.7306 -1.1596  1.0382
19410TIP3    H279722   2.389   0.102  15.567 -0.5734 -0.4446  0.5303
19411TIP3   OH279723   5.859   6.547  16.191  0.5732  0.4544  0.1445
19411TIP3    H179724   5.943   6.544  16.237  0.3242 -0.4356  0.5741
19411TIP3    H279725   5.840   6.455  16.170  0.7202  0.8374 -1.8510
19412TIP3   OH279726   5.900   6.754  15.651 -0.5445 -0.3369  0.1314
19412TIP3    H179727   5.836   6.821  15.676 -0.8920 -1.5055  2.6782
19412TIP3    H279728   5.853   6.672  15.659  0.3001 -1.0291 -1.5157
19413TIP3   OH279729   3.697   3.276   3.461  0.2752 -0.8380  0.2913
19413TIP3    H179730   3.632   3.227   3.510 -0.2093 -0.4932  0.0007
19413TIP3    H279731   3.745   3.325   3.528 -0.6361 -0.0712  0.4099
19414TIP3   OH279732   5.971   1.328  11.275  0.0192  0.0219 -0.1075
19414TIP3    H179733   5.966   1.238  11.308  0.0075  0.0115 -0.1377
19414TIP3    H279734   6.010   1.377  11.347 -0.4394  0.0866  0.1033
19415TIP3   OH279735   3.822   6.367  10.568 -0.0152 -0.6467 -0.0675
19415TIP3    H179736   3.833   6.300  10.636  0.2343 -0.9301 -0.3822
19415TIP3    H279737   3.733   6.400  10.581 -0.8919 -2.4324 -1.1365
19416TIP3   OH279738   4.468   4.378  10.976  0.6265 -0.7278 -0.6473
19416TIP3    H179739   4.446   4.392  11.068  0.9573 -1.9286 -0.3712
19416TIP3    H279740   4.503   4.289  10.973 -1.2607 -1.4971 -2.2642
19417TIP3   OH279741   3.715   5.759   2.249  0.3387  0.5396  0.0811
19417TIP3    H179742   3.739   5.684   2.195  1.8997 -0.2421  1.7473
19417TIP3    H279743   3.773   5.829   2.220 -1.5362  1.3983 -1.9036
19418TIP3   OH279744   4.162   5.369  10.599 -0.8217 -0.0636 -0.2670
19418TIP3    H179745   4.200   5.456  10.609  0.1111 -0.4443 -0.4204
19418TIP3    H279746   4.107   5.376  10.521 -1.6078  0.6652  0.3223
19419TIP3   OH279747   4.805   0.790  17.053 -0.4346 -0.1274 -0.0296
19419TIP3    H179748   4.775   0.699  17.056  1.5195 -0.9113 -1.7163
19419TIP3    H279749   4.900   0.784  17.043 -0.0881  2.1518  1.0936
19420TIP3   OH279750   4.421   4.060   4.492 -0.6628  0.0008 -0.4189
19420TIP3    H179751   4.461   4.115   4.560  1.4240 -0.0824 -1.4717
19420TIP3    H279752   4.462   3.975   4.503 -0.3864 -0.0497 -1.6656
19421TIP3   OH279753   6.737   2.448   4.939  0.1886  0.1242  0.1276
19421TIP3    H179754   6.800   2.392   4.895 -0.2194  1.0263 -1.7000
19421TIP3    H279755   6.790   2.513   4.985  0.6032 -0.1846  0.0891
19422TIP3   OH279756   0.908   3.666  11.987 -0.4841 -0.3749 -0.3088
19422TIP3    H179757   0.878   3.600  12.050 -0.9549 -0.2879 -0.4395
19422TIP3    H279758   0.994   3.693  12.021 -1.2287  0.5223  0.9561
19423TIP3   OH279759   3.062   1.654  14.464  0.0276  0.0427  0.1511
19423TIP3    H179760   3.100   1.648  14.551  1.2285 -0.5088 -0.3891
19423TIP3    H279761   2.968   1.646  14.478  0.0970  1.2584  1.5101
19424TIP3   OH279762   2.160   0.485   4.373  0.8591 -0.4524  0.2624
19424TIP3    H179763   2.166   0.447   4.461 -1.5033 -0.1386  0.6244
19424TIP3    H279764   2.239   0.453   4.328  1.0214 -2.4439  1.7874
19425TIP3   OH279765   3.867   5.613   4.707  0.0168 -0.4087  0.1770
19425TIP3    H179766   3.945   5.580   4.662  0.3719  0.3424  0.2352
19425TIP3    H279767   3.807   5.538   4.708  0.1282 -0.5384 -1.2516
19426TIP3   OH279768   4.520   6.042  11.909  0.1509  0.2736 -0.5203
19426TIP3    H179769   4.562   6.113  11.958  0.7541  0.8727 -1.8396
19426TIP3    H279770   4.548   5.962  11.953 -0.7907  0.8360  1.1929
19427TIP3   OH279771   3.826   4.461   5.453 -0.7819  0.1734  0.2191
19427TIP3    H179772   3.783   4.388   5.496 -0.2640 -0.0265  0.4090
19427TIP3    H279773   3.920   4.445   5.466 -0.6628  0.9569  0.4049
19428TIP3   OH279774   5.468   2.118  11.552  0.4023  0.5049  0.1251
19428TIP3    H179775   5.463   2.057  11.625 -1.7358 -0.4363 -0.7421
19428TIP3    H279776   5.510   2.069  11.481  0.8975  0.8597  0.1613
19429TIP3   OH279777   6.585   6.235  11.032 -0.1175  0.1034 -0.1145
19429TIP3    H179778   6.502   6.270  11.001 -0.8087 -0.2978  1.2280
19429TIP3    H279779   6.640   6.312  11.047  1.2951  0.3160 -4.8141
19430TIP3   OH279780   3.087   0.592   1.123  0.2191 -0.7696  0.0142
19430TIP3    H179781   3.007   0.637   1.096  0.0036 -0.1687  1.5322
19430TIP3    H279782   3.152   0.619   1.058 -0.4465 -0.0143 -0.3606
19431TIP3   OH279783   5.279   4.285  13.584 -0.8031 -0.1353 -0.4177
19431TIP3    H179784   5.321   4.291  13.670 -0.0585  0.7116 -0.8215
19431TIP3    H279785   5.186   4.275  13.604 -0.5247 -1.0438  0.4884
19432TIP3   OH279786   1.566   6.267  10.603  0.1713 -0.2846  0.3766
19432TIP3    H179787   1.592   6.351  10.566 -0.9593 -0.6369 -1.3525
19432TIP3    H279788   1.643   6.212  10.594  0.3925  0.0930 -0.0687
19433TIP3   OH279789   4.403   2.156  12.884  0.7279 -0.5487  0.0116
19433TIP3    H179790   4.358   2.143  12.801  0.9377 -0.5318 -0.1049
19433TIP3    H279791   4.473   2.091  12.885  1.1341 -0.1198 -0.1189
19434TIP3   OH279792   4.321   4.093   2.404 -0.5850  0.0021  0.2520
19434TIP3    H179793   4.366   4.011   2.382  0.0270  0.2626  0.5203
19434TIP3    H279794   4.386   4.144   2.452 -0.9296  0.6915 -0.0007
19435TIP3   OH279795   5.775   2.734  16.512  0.3851 -0.2935  0.8038
19435TIP3    H179796   5.733   2.739  16.427 -1.0794 -1.2233  1.4262
19435TIP3    H279797   5.813   2.821  16.526  0.1244  0.0493 -0.5116
19436TIP3   OH279798   4.394   5.234   2.220  0.1011 -0.1729 -0.1054
19436TIP3    H179799   4.320   5.275   2.266 -0.4364 -1.3843  0.1736
19436TIP3    H279800   4.470   5.284   2.248 -0.6285  1.3223 -0.6546
19437TIP3   OH279801   4.363   0.314  16.890  0.0844 -0.5138 -0.2193
19437TIP3    H179802   4.457   0.301  16.876 -0.0942 -1.9936 -0.2453
19437TIP3    H279803   4.340   0.247  16.955 -0.9675 -0.2066 -0.2701
19438TIP3   OH279804   1.213   3.992   0.628 -0.0484 -0.4846  0.4975
19438TIP3    H179805   1.281   3.958   0.571 -1.2976 -1.8006 -0.2711
19438TIP3    H279806   1.131   3.959   0.591 -1.1650  1.4596  1.0896
19439TIP3   OH279807   2.813   2.340  16.296  0.1886  0.4547  0.3619
19439TIP3    H179808   2.739   2.400  16.292 -0.6689 -0.5787  0.3003
19439TIP3    H279809   2.820   2.317  16.388  1.7687  2.1190  0.7234
19440TIP3   OH279810   6.575   0.358   2.730 -0.2980 -0.5466 -0.3941
19440TIP3    H179811   6.564   0.330   2.821 -0.7084 -1.3629 -0.6812
19440TIP3    H279812   6.525   0.440   2.724  0.4608 -0.0257  0.3279
19441TIP3   OH279813   3.005   0.759   2.521 -0.1696  0.4269  0.1883
19441TIP3    H179814   3.008   0.757   2.617  2.7957 -0.6922  0.1999
19441TIP3    H279815   3.080   0.814   2.496 -1.1867  1.1013 -1.4998
19442TIP3   OH279816   0.246   6.677  15.878  0.0428  0.3172  0.5485
19442TIP3    H179817   0.202   6.634  15.952  0.6066  1.3145  1.4962
19442TIP3    H279818   0.288   6.606  15.830 -0.1101 -0.3270  1.3458
19443TIP3   OH279819   2.826   6.379  16.061 -0.4934  0.0653 -0.4194
19443TIP3    H179820   2.748   6.419  16.099 -0.4673  0.1444 -0.4492
19443TIP3    H279821   2.900   6.420  16.106 -0.4737 -0.2036 -0.2046
19444TIP3   OH279822   0.592   1.658  16.853  0.3522  0.5588  0.0229
19444TIP3    H179823   0.680   1.625  16.833 -0.8474 -1.9153 -1.7396
19444TIP3    H279824   0.600   1.753  16.846  2.9990  0.4508  0.5264
19445TIP3   OH279825   3.925   3.717   5.349  0.4105 -0.2205 -0.1890
19445TIP3    H179826   3.915   3.792   5.407 -1.4121  1.5021 -2.5666
19445TIP3    H279827   4.019   3.710   5.335  0.6373  1.4550  0.3032
19446TIP3   OH279828   2.430   3.682   5.000  0.0200 -0.1114  0.1302
19446TIP3    H179829   2.384   3.750   5.049 -0.9609 -0.4372 -0.3127
19446TIP3    H279830   2.416   3.602   5.051 -0.4208 -0.3224 -0.3090
19447TIP3   OH279831   5.450   2.312  11.096 -0.3545  0.6642 -0.3134
19447TIP3    H179832   5.396   2.244  11.138 -1.2113  1.7706  0.4319
19447TIP3    H279833   5.398   2.342  11.022 -0.7019  1.5956  0.2904
19448TIP3   OH279834   6.727   3.272  13.048 -0.5918 -0.1941 -0.1983
19448TIP3    H179835   6.636   3.295  13.027 -0.5762  0.1929  0.1549
19448TIP3    H279836   6.748   3.201  12.986 -0.8335  0.3277 -0.8916
19449TIP3   OH279837   1.431   5.185   3.597  0.1520 -0.1782 -0.4685
19449TIP3    H179838   1.422   5.275   3.567 -0.2288 -0.4749 -1.2704
19449TIP3    H279839   1.356   5.139   3.559  1.2188 -1.1942 -1.4282
19450TIP3   OH279840   2.706   1.025  14.425  0.1275 -0.1386  0.1889
19450TIP3    H179841   2.640   1.053  14.489  1.3647  1.9552  0.6275
19450TIP3    H279842   2.737   1.106  14.386  2.1609 -1.0995 -0.2879
19451TIP3   OH279843   2.026   3.652  15.604 -0.1346 -0.2877 -0.1059
19451TIP3    H179844   2.001   3.632  15.694 -0.2026  0.7788  0.1310
19451TIP3    H279845   1.946   3.687  15.564 -0.1124 -0.7838 -0.5962
19452TIP3   OH279846   6.259   3.498   2.111  0.0440 -0.2456  0.1309
19452TIP3    H179847   6.224   3.584   2.089 -3.5676 -0.9056  2.3657
19452TIP3    H279848   6.326   3.515   2.177 -0.0787  0.8914 -0.0206
19453TIP3   OH279849   1.913   2.222   0.011 -0.5450  0.6730  0.0375
19453TIP3    H179850   1.920   2.291   0.076 -1.3630  0.4351  0.3967
19453TIP3    H279851   1.836   2.245  -0.041 -0.8530  0.0214  0.1886
19454TIP3   OH279852   1.459   3.106   4.742  0.1063 -0.1080  0.4706
19454TIP3    H179853   1.468   3.148   4.828 -0.9721  0.6173  0.2583
19454TIP3    H279854   1.525   3.037   4.741  3.1833  2.6397  0.1641
19455TIP3   OH279855   0.874   1.051  10.969  0.3579  0.0407 -0.1396
19455TIP3    H179856   0.812   0.984  10.939  1.3234 -0.8304 -0.2355
19455TIP3    H279857   0.960   1.011  10.959  0.8338  0.0508  2.8428
19456TIP3   OH279858   3.316   2.265  12.720 -0.1817 -1.1518  0.0430
19456TIP3    H179859   3.228   2.233  12.737 -0.3898  0.4764  2.7123
19456TIP3    H279860   3.305   2.359  12.705  1.0775 -0.8490  0.8160
19457TIP3   OH279861   4.838   0.900  11.522  0.3679  0.7174 -0.3462
19457TIP3    H179862   4.759   0.952  11.505 -0.4720 -0.9645 -1.9629
19457TIP3    H279863   4.894   0.917  11.446  1.0934  1.0179  0.2442
19458TIP3   OH279864   2.880   6.254   2.520 -0.7609  0.9402  0.3169
19458TIP3    H179865   2.904   6.294   2.437 -1.2780  0.5767 -0.0117
19458TIP3    H279866   2.949   6.190   2.536 -0.7731  0.8637  0.0658
19459TIP3   OH279867   6.247   5.474   5.533  0.7277  0.9463 -0.2182
19459TIP3    H179868   6.298   5.398   5.506  0.0603 -0.4062  2.0320
19459TIP3    H279869   6.297   5.513   5.604 -0.1925  1.0587  0.3840
19460TIP3   OH279870   2.274   4.212   2.682 -0.6079  0.1172  0.4518
19460TIP3    H179871   2.269   4.159   2.602  0.7501  0.3336  0.1963
19460TIP3    H279872   2.365   4.241   2.685 -0.7541  0.4821  1.8514
19461TIP3   OH279873   0.743   1.661   4.336 -0.1248  0.0928 -0.2893
19461TIP3    H179874   0.672   1.725   4.335 -0.4036 -0.1978  0.4372
19461TIP3    H279875   0.794   1.683   4.414  0.4711  0.1689 -0.6894
19462TIP3   OH279876   0.281   3.934   6.503  0.4838 -0.1427 -0.0545
19462TIP3    H179877   0.265   3.924   6.597  0.3091 -0.4462 -0.1132
19462TIP3    H279878   0.246   3.854   6.465 -1.1736  0.7896 -0.5836
19463TIP3   OH279879   0.437   3.796   1.814  0.0810  0.4862 -0.0209
19463TIP3    H179880   0.427   3.891   1.817  0.3298  0.5202 -0.2591
19463TIP3    H279881   0.357   3.765   1.770 -0.2595  0.5379  0.5487
19464TIP3   OH279882   1.851   2.221  11.281 -0.1852 -0.4869 -0.1759
19464TIP3    H179883   1.791   2.296  11.284  1.5324  0.9679 -0.0854
19464TIP3    H279884   1.859   2.194  11.373 -0.4976 -0.5201 -0.1575
19465TIP3   OH279885   3.387   3.847   2.850  1.0952 -0.7075 -0.5784
19465TIP3    H179886   3.437   3.852   2.768  0.6776  1.1908 -0.7551
19465TIP3    H279887   3.295   3.850   2.823  0.9511 -0.2359 -0.0528
19466TIP3   OH279888   4.311   2.332  14.609  0.2445  0.2813  1.0517
19466TIP3    H179889   4.322   2.241  14.582 -1.5386 -0.3371  2.2814
19466TIP3    H279890   4.326   2.332  14.703  1.0242  1.4478  0.9632
19467TIP3   OH279891   0.371   0.943   4.426  0.8222  0.0134  0.4294
19467TIP3    H179892   0.423   0.979   4.354 -1.0663  0.0509 -1.0261
19467TIP3    H279893   0.298   1.005   4.436  0.8009 -0.2259  2.1038
19468TIP3   OH279894   6.770   4.464  11.857 -0.7483  0.2076  0.1633
19468TIP3    H179895   6.711   4.405  11.905 -1.1719  0.6633  0.2090
19468TIP3    H279896   6.802   4.525  11.923 -1.0330  0.5998 -0.0567
19469TIP3   OH279897   6.570   6.341   1.877 -0.3455  0.1036  0.9928
19469TIP3    H179898   6.488   6.354   1.830 -0.0651  1.9184  0.9171
19469TIP3    H279899   6.602   6.429   1.894  2.7045 -0.4667 -0.9779
19470TIP3   OH279900   4.230   5.959  15.143 -0.0194 -0.5686 -0.2033
19470TIP3    H179901   4.182   5.876  15.133  1.5217 -1.4507 -0.7093
19470TIP3    H279902   4.204   6.011  15.067 -0.3673 -0.9408 -0.3416
19471TIP3   OH279903   4.772   0.205   1.568  0.9752  0.1739 -0.4181
19471TIP3    H179904   4.698   0.216   1.628  0.7248  0.6364 -0.8041
19471TIP3    H279905   4.764   0.115   1.536  1.1535 -0.1008  0.2881
19472TIP3   OH279906   2.007   0.130  16.804  0.1698 -0.3178 -0.3117
19472TIP3    H179907   2.022   0.194  16.873  0.9332 -0.4173 -0.3787
19472TIP3    H279908   2.060   0.054  16.829 -0.5903 -0.8608 -0.3224
19473TIP3   OH279909   3.999   1.282   2.069  0.3294 -0.0296 -0.4751
19473TIP3    H179910   4.069   1.331   2.112  0.8584 -1.0937 -0.0799
19473TIP3    H279911   3.946   1.349   2.025 -0.1744  1.1336  1.7125
19474TIP3   OH279912   6.520   1.444   3.672  0.0167 -0.0844  0.1837
19474TIP3    H179913   6.610   1.415   3.680 -0.6265 -2.3179 -0.1221
19474TIP3    H279914   6.514   1.520   3.731  2.0398  0.0565  0.2705
19475TIP3   OH279915   0.530   1.458   1.605 -0.1957  0.1549  0.3581
19475TIP3    H179916   0.488   1.380   1.642 -2.7969  2.0835  1.8509
19475TIP3    H279917   0.500   1.461   1.514  0.0792 -0.6517  0.2302
19476TIP3   OH279918   5.397   1.649   2.598  0.0056 -0.4888  0.1218
19476TIP3    H179919   5.425   1.719   2.657 -0.4763  0.1357 -0.3719
19476TIP3    H279920   5.434   1.569   2.636 -0.5762 -0.1551  1.4753
19477TIP3   OH279921   2.342   5.035  17.097 -0.3467  0.1695  0.1873
19477TIP3    H179922   2.404   5.029  17.023 -0.5419 -0.9257  0.1016
19477TIP3    H279923   2.305   5.123  17.089  1.0395  0.7848  0.1132
19478TIP3   OH279924   3.315   0.177   3.636  0.1351 -0.2481  0.0278
19478TIP3    H179925   3.338   0.229   3.714 -0.1840 -0.8588  0.5330
19478TIP3    H279926   3.377   0.104   3.638 -0.2966 -0.6095  0.0614
19479TIP3   OH279927   5.360   4.296  13.849 -0.4582  0.4816  0.4076
19479TIP3    H179928   5.454   4.309  13.860 -0.1824  1.3969 -2.2443
19479TIP3    H279929   5.320   4.348  13.919  0.9877  1.0130  0.8695
19480TIP3   OH279930   4.256   0.435  14.841 -0.9227 -0.1939 -0.2618
19480TIP3    H179931   4.214   0.374  14.902  1.1070  1.1019  2.6163
19480TIP3    H279932   4.237   0.521  14.877  1.2213  0.5746 -0.8657
19481TIP3   OH279933   0.283   3.489  16.141 -0.4940  0.0868 -0.6019
19481TIP3    H179934   0.188   3.481  16.133 -0.6062  0.7375  0.0205
19481TIP3    H279935   0.318   3.429  16.074 -1.3534  2.0105 -2.9225
19482TIP3   OH279936   2.635   3.996  11.451 -0.5528 -0.1540 -0.0209
19482TIP3    H179937   2.599   4.003  11.362  0.3441  0.1369 -0.3717
19482TIP3    H279938   2.685   3.914  11.449  0.8884  0.6913 -0.3315
19483TIP3   OH279939   3.217   4.904   5.163 -0.2058  0.1733  0.6453
19483TIP3    H179940   3.158   4.837   5.198  2.1003 -1.2641  2.0576
19483TIP3    H279941   3.276   4.856   5.104  1.3733  0.9320  1.5333
19484TIP3   OH279942   0.764   6.537   1.964  0.1667 -0.0441  0.3924
19484TIP3    H179943   0.673   6.523   1.935 -0.0005  1.1996  0.2831
19484TIP3    H279944   0.755   6.584   2.047  0.7123  1.4362 -0.3553
19485TIP3   OH279945   1.410   0.293  15.059  0.0425  0.0440  0.0402
19485TIP3    H179946   1.336   0.339  15.098  0.4959  2.9796 -2.2673
19485TIP3    H279947   1.374   0.209  15.031 -2.0373  0.7951  0.3122
19486TIP3   OH279948   3.080   6.650  11.561  0.2153  0.8767 -0.3053
19486TIP3    H179949   3.161   6.675  11.606 -0.5216  1.8216  0.5392
19486TIP3    H279950   3.107   6.639  11.469  1.7749 -1.2743  0.3448
19487TIP3   OH279951   4.489   4.196  17.044 -0.3099  0.1451  0.0096
19487TIP3    H179952   4.476   4.275  17.095  0.9759  0.3719  0.0119
19487TIP3    H279953   4.584   4.182  17.044 -0.2907 -0.0440 -2.0012
19488TIP3   OH279954   6.091   6.106  16.643  0.7625 -0.2317  0.5126
19488TIP3    H179955   6.177   6.094  16.683  1.8112  2.7123 -0.5060
19488TIP3    H279956   6.052   6.179  16.691 -0.7459 -0.8369  0.2660
19489TIP3   OH279957   1.852   2.700   3.142 -0.2312  0.6076 -0.0979
19489TIP3    H179958   1.815   2.715   3.229 -1.7835  2.3686 -0.9937
19489TIP3    H279959   1.814   2.769   3.087 -0.0392 -1.0079 -2.4115
19490TIP3   OH279960   2.703   0.750   1.798 -0.4128 -0.6946  0.2490
19490TIP3    H179961   2.765   0.719   1.864 -0.5617 -3.3436 -0.6919
19490TIP3    H279962   2.623   0.700   1.815 -0.8350 -0.5621 -1.1877
19491TIP3   OH279963   3.890   5.104   0.243  0.3514  1.0261 -0.5031
19491TIP3    H179964   3.903   5.014   0.212 -0.5494  0.4715  0.6352
19491TIP3    H279965   3.834   5.095   0.320  0.3741  2.5622 -0.2685
19492TIP3   OH279966   2.708   1.224  11.975  0.3891  0.2572 -0.1947
19492TIP3    H179967   2.753   1.156  12.026  1.7995  0.0585 -1.6224
19492TIP3    H279968   2.682   1.289  12.040  2.4657  0.1996  0.7844
19493TIP3   OH279969   1.855   0.403   4.512 -0.0314 -0.3375 -0.2687
19493TIP3    H179970   1.787   0.337   4.524 -2.4726  2.0241 -0.2764
19493TIP3    H279971   1.923   0.358   4.461 -2.5645 -2.2398 -2.2435
19494TIP3   OH279972   2.203   1.050  14.960 -0.1537  0.1155 -0.4274
19494TIP3    H179973   2.243   0.969  14.930  0.1402 -0.0432  0.3718
19494TIP3    H279974   2.276   1.112  14.966  0.2467 -0.4988  2.1800
19495TIP3   OH279975   6.545   5.513   4.507  0.3000  0.3227 -0.1374
19495TIP3    H179976   6.612   5.478   4.566 -1.0365 -0.7467  0.8080
19495TIP3    H279977   6.565   5.607   4.502  1.6693  0.0815  0.3588
19496TIP3   OH279978   6.651   0.866  13.497 -0.5434 -0.0825  0.1588
19496TIP3    H179979   6.644   0.930  13.568 -0.6454  0.1273 -0.0421
19496TIP3    H279980   6.745   0.854  13.485 -0.5096 -0.9516  1.0845
19497TIP3   OH279981   1.597   0.448   5.447  0.2037 -0.0652 -0.4795
19497TIP3    H179982   1.636   0.401   5.521 -0.9650  0.3527  0.4317
19497TIP3    H279983   1.666   0.510   5.420  0.3579  0.3774  0.8327
19498TIP3   OH279984   1.841   4.809  12.499  0.3839  0.3381 -0.7572
19498TIP3    H179985   1.896   4.747  12.547 -1.4644 -1.4589 -0.7825
19498TIP3    H279986   1.777   4.753  12.454 -2.0811  2.3134  0.0785
19499TIP3   OH279987   3.936   4.457  12.775  0.4698  0.3073  0.0521
19499TIP3    H179988   3.998   4.474  12.704  0.4510  0.8867  0.1692
19499TIP3    H279989   3.991   4.444  12.852  0.5879 -1.9355 -0.3319
19500TIP3   OH279990   2.880   2.441  17.137 -0.3507 -0.3915 -0.2713
19500TIP3    H179991   2.802   2.414  17.186  0.6980 -1.5229  0.8455
19500TIP3    H279992   2.846   2.495  17.066 -2.2177 -1.4615 -0.2523
19501TIP3   OH279993   4.075   3.894  16.816  0.0250  0.5603  0.1099
19501TIP3    H179994   4.038   3.838  16.885  1.3726 -0.9023 -0.3129
19501TIP3    H279995   4.149   3.937  16.858 -0.1750  0.9800  0.0370
19502TIP3   OH279996   4.858   5.412   0.756 -0.0756 -0.1497 -0.1898
19502TIP3    H179997   4.817   5.420   0.842 -0.4382 -0.6997 -0.3066
19502TIP3    H279998   4.797   5.359   0.705 -0.9403  1.9893 -1.4973
19503TIP3   OH279999   2.701   5.221   5.547 -0.2125 -0.2304  0.0910
19503TIP3    H180000   2.792   5.207   5.519 -0.4715 -0.7153 -0.5274
19503TIP3    H280001   2.649   5.174   5.482 -0.8729 -0.5453  0.8358
19504TIP3   OH280002   2.978   2.480  12.450  0.0096  0.5415  0.6430
19504TIP3    H180003   2.974   2.560  12.502  0.5599  1.1626 -0.2496
19504TIP3    H280004   2.902   2.429  12.479  0.3953  0.7798  2.1803
19505TIP3   OH280005   5.289   6.339  15.975  0.1316 -0.1433  0.2855
19505TIP3    H180006   5.363   6.381  16.018  0.7033  0.7874 -1.5141
19505TIP3    H280007   5.307   6.245  15.981  0.7687  0.0149  1.0126
19506TIP3   OH280008   1.008   2.055   0.991  0.0355 -0.1021  0.9593
19506TIP3    H180009   1.022   2.149   1.005 -1.5610  0.0366  1.7467
19506TIP3    H280010   0.917   2.040   1.014 -0.3562 -1.4743 -1.2052
19507TIP3   OH280011   6.385   4.984   5.300  0.3830  0.6581  0.6304
19507TIP3    H180012   6.390   4.951   5.390 -2.0326 -0.1247  0.5617
19507TIP3    H280013   6.464   4.951   5.257  0.3233 -1.1565  1.8101
19508TIP3   OH280014   6.667   2.528  12.496  0.1630 -0.3061 -0.1842
19508TIP3    H180015   6.588   2.554  12.543 -0.8795  0.5858 -2.3135
19508TIP3    H280016   6.680   2.436  12.520 -1.5403 -0.4805  0.2128
19509TIP3   OH280017   6.796   3.870  14.292  0.2479 -0.0370 -0.4560
19509TIP3    H180018   6.742   3.923  14.350 -0.3640  1.7759 -2.5330
19509TIP3    H280019   6.801   3.785  14.335  1.1641  1.5677  2.9951
19510TIP3   OH280020   3.764   3.738  16.734 -0.1284  0.1394  0.5416
19510TIP3    H180021   3.740   3.830  16.739  0.1369  0.2885 -0.6091
19510TIP3    H280022   3.839   3.736  16.675  0.0541 -0.7843  0.7905
19511TIP3   OH280023   6.623   0.646   5.157  0.1683 -0.3106  0.0020
19511TIP3    H180024   6.705   0.692   5.173  0.9138 -0.4564 -2.9295
19511TIP3    H280025   6.565   0.676   5.227  1.6082  2.5273  0.1179
19512TIP3   OH280026   6.687   4.106   6.182  0.0913  0.0087 -0.1240
19512TIP3    H180027   6.640   4.025   6.167 -0.8308  0.3972  0.5856
19512TIP3    H280028   6.773   4.079   6.216 -0.2335 -0.6675  0.1676
19513TIP3   OH280029   5.398   2.293  16.723 -0.7472  0.6932  0.3533
19513TIP3    H180030   5.423   2.362  16.784  1.2767  0.0883  0.2807
19513TIP3    H280031   5.470   2.229  16.728 -1.6464 -0.4796 -0.9608
19514TIP3   OH280032   3.273   5.349   1.208  0.0217  1.0574  0.3188
19514TIP3    H180033   3.181   5.325   1.198  0.4505  0.1042 -1.6506
19514TIP3    H280034   3.307   5.286   1.272 -0.1937 -0.0084 -0.5941
19515TIP3   OH280035   3.846   2.087   5.342 -0.3551 -0.0244 -0.0343
19515TIP3    H180036   3.883   2.102   5.254  1.4551  0.1635  0.7160
19515TIP3    H280037   3.869   1.996   5.362 -2.6682 -0.7827 -0.5889
19516TIP3   OH280038   0.060   4.438  16.037  0.1888 -0.4285 -0.5131
19516TIP3    H180039   0.059   4.464  15.945 -1.3042 -0.2605 -0.4733
19516TIP3    H280040   0.151   4.412  16.054  0.8712  1.0950 -1.5910
19517TIP3   OH280041   5.935   5.840  16.268  0.0906  0.0334  0.0312
19517TIP3    H180042   6.020   5.796  16.275  0.0117  0.0630  1.2876
19517TIP3    H280043   5.938   5.910  16.332 -1.1914 -0.4905  0.7045
19518TIP3   OH280044   4.576   6.153   2.257  0.1003 -0.2179 -0.7122
19518TIP3    H180045   4.494   6.144   2.307  0.3746  0.7763 -0.0297
19518TIP3    H280046   4.644   6.148   2.324  0.5162  0.4108 -1.0817
19519TIP3   OH280047   5.140   6.452   1.612  0.4927  0.3356 -0.6455
19519TIP3    H180048   5.221   6.434   1.660  0.8037  1.7170 -0.6281
19519TIP3    H280049   5.164   6.517   1.547 -0.3780 -0.0383 -1.3680
19520TIP3   OH280050   0.771   1.558  11.436 -0.3166  0.1476  0.3450
19520TIP3    H180051   0.699   1.498  11.456 -0.4711  0.1658 -0.1540
19520TIP3    H280052   0.814   1.573  11.520  0.4204 -1.5509  0.3183
19521TIP3   OH280053   2.193   3.647  12.802  1.0947  0.4298  0.1983
19521TIP3    H180054   2.195   3.739  12.775  1.0945  0.0812 -1.0748
19521TIP3    H280055   2.275   3.610  12.769 -0.4350 -0.8277 -2.5605
19522TIP3   OH280056   5.082   5.501  11.796 -0.2772 -0.0905  0.4468
19522TIP3    H180057   5.085   5.459  11.710 -0.7638 -1.7403  1.2052
19522TIP3    H280058   5.074   5.595  11.776  0.3418 -0.3659 -1.2926
19523TIP3   OH280059   0.512   0.880  15.145 -0.0126 -0.2774 -0.8833
19523TIP3    H180060   0.536   0.841  15.229 -1.9119 -1.8511 -0.9891
19523TIP3    H280061   0.421   0.910  15.157  0.6316  2.1730 -1.5265
19524TIP3   OH280062   1.125   0.043   0.207 -0.0979  0.2246  0.3934
19524TIP3    H180063   1.132   0.044   0.302  1.1678  0.6674  0.3191
19524TIP3    H280064   1.162  -0.041   0.181  2.8793  1.4865  0.1423
19525TIP3   OH280065   0.513   4.831   4.067 -0.3530  0.1732  0.0234
19525TIP3    H180066   0.498   4.748   4.021  0.5325  0.0012  0.0198
19525TIP3    H280067   0.429   4.852   4.107 -0.6150 -0.6797 -0.0544
19526TIP3   OH280068   4.209   1.433   2.204  0.1698 -0.6374 -0.0107
19526TIP3    H180069   4.296   1.395   2.201  0.1693 -0.7470  1.1320
19526TIP3    H280070   4.202   1.471   2.291 -1.0904 -1.0410  0.0833
19527TIP3   OH280071   4.457   6.391  12.515  0.2959  0.1362  0.0380
19527TIP3    H180072   4.502   6.362  12.436  0.3036  0.7234 -0.1813
19527TIP3    H280073   4.389   6.451  12.483 -0.2620 -0.2807  0.4083
19528TIP3   OH280074   0.408   4.320  13.088 -0.6896 -0.3198 -0.1226
19528TIP3    H180075   0.473   4.343  13.154  0.5949  1.1357 -1.7838
19528TIP3    H280076   0.411   4.224  13.083  1.4455 -0.2833 -0.2354
19529TIP3   OH280077   1.449   2.141   2.189  0.8543  0.3121  0.1677
19529TIP3    H180078   1.488   2.071   2.242 -0.5313 -1.6159 -1.2106
19529TIP3    H280079   1.475   2.121   2.099  0.0007  1.2682 -0.3199
19530TIP3   OH280080   2.436   4.974   4.965 -0.6457 -0.9742 -0.0585
19530TIP3    H180081   2.407   4.890   5.001  1.2143 -1.3029  0.8190
19530TIP3    H280082   2.377   5.038   5.005 -0.3467 -1.6127  1.5045
19531TIP3   OH280083   4.631   2.909  11.990  0.1018  0.0172 -0.4057
19531TIP3    H180084   4.626   2.814  12.003  1.1315  0.0158  0.0691
19531TIP3    H280085   4.695   2.920  11.920  1.2501  0.4144  0.6648
19532TIP3   OH280086   2.436   6.744   2.991  0.7376 -0.5615 -0.1861
19532TIP3    H180087   2.522   6.703   2.999  0.9058 -0.1901 -0.0673
19532TIP3    H280088   2.452   6.824   2.941  0.8208  0.5738  1.5886
19533TIP3   OH280089   5.340   2.345   1.753  0.4058 -0.0278 -0.4379
19533TIP3    H180090   5.272   2.335   1.686 -2.7985 -0.1577  2.5338
19533TIP3    H280091   5.374   2.433   1.740 -0.7371  0.2551 -1.7077
19534TIP3   OH280092   6.375   3.693   0.063  0.1210 -0.2880 -0.1917
19534TIP3    H180093   6.340   3.782   0.057  2.7510  1.1452  2.6483
19534TIP3    H280094   6.453   3.694   0.007  0.4609 -0.6183  0.2652
19535TIP3   OH280095   4.290   6.688  16.498 -0.0381 -0.3553 -0.4290
19535TIP3    H180096   4.234   6.751  16.542  0.8127 -0.3923  0.7557
19535TIP3    H280097   4.255   6.603  16.521  0.0642 -0.3601 -0.2903
19536TIP3   OH280098   6.437   1.919  13.980  0.1877  0.4161 -0.0684
19536TIP3    H180099   6.451   1.961  13.895  0.5361 -0.7470 -0.6177
19536TIP3    H280100   6.489   1.971  14.041  0.6393  0.7527 -0.7252
19537TIP3   OH280101   1.514   4.021   5.227 -0.0570 -0.4191  0.5516
19537TIP3    H180102   1.608   4.010   5.212 -0.4384 -1.4413 -1.5440
19537TIP3    H280103   1.501   3.994   5.318  1.7493  0.4086  1.1075
19538TIP3   OH280104   2.589   1.559  13.045  0.6718  0.5826 -0.1044
19538TIP3    H180105   2.571   1.506  13.123  1.2949  0.4369 -0.0580
19538TIP3    H280106   2.522   1.627  13.047 -1.1947 -1.1200 -1.0435
19539TIP3   OH280107   0.787   1.764   6.707 -0.5078 -0.0319 -0.7417
19539TIP3    H180108   0.789   1.856   6.682 -0.1729  0.0617 -0.3849
19539TIP3    H280109   0.718   1.726   6.653 -2.6887  1.0177  1.1213
19540TIP3   OH280110   2.598   4.965  11.291 -0.4725  0.3298  0.3616
19540TIP3    H180111   2.541   4.998  11.222 -0.1999 -0.5236 -0.2841
19540TIP3    H280112   2.654   5.039  11.314  1.3033 -0.0957 -2.2506
19541TIP3   OH280113   4.743   1.143   3.823  0.4971 -0.3820 -0.2580
19541TIP3    H180114   4.677   1.149   3.892  1.0860 -0.1557  0.3031
19541TIP3    H280115   4.707   1.081   3.760 -0.4510  0.0875 -0.1949
19542TIP3   OH280116   4.055   1.603   2.015  0.1855  0.0542  0.6252
19542TIP3    H180117   4.116   1.540   2.056  0.0625  0.5642  1.6296
19542TIP3    H280118   3.969   1.566   2.032  0.1898 -0.8976 -1.1843
19543TIP3   OH280119   1.600   5.774  14.037 -0.0823 -0.3452  0.6225
19543TIP3    H180120   1.556   5.830  13.973  0.9461  0.0796  0.2766
19543TIP3    H280121   1.544   5.778  14.115 -0.6558  0.1706  0.1889
19544TIP3   OH280122   2.182   6.425  13.138  0.6413  0.5925 -0.6221
19544TIP3    H180123   2.099   6.431  13.185  1.0633 -1.6089  0.5256
19544TIP3    H280124   2.158   6.429  13.045 -1.0356 -1.9703 -0.3848
19545TIP3   OH280125   4.973   2.989  13.977  0.6958 -0.3494 -0.2673
19545TIP3    H180126   4.924   3.045  13.917  2.0456  0.3100 -0.7926
19545TIP3    H280127   4.935   3.006  14.063 -0.5419 -0.4901 -0.7680
19546TIP3   OH280128   3.948   4.344  13.565  0.2702  0.0874 -0.2181
19546TIP3    H180129   4.021   4.318  13.621  0.2788  0.0536 -0.2449
19546TIP3    H280130   3.885   4.383  13.624  0.0505 -0.4302 -0.1053
19547TIP3   OH280131   3.850   3.367  17.002 -0.1006 -0.5616  0.4648
19547TIP3    H180132   3.847   3.293  16.941  1.2361 -0.8293  0.6819
19547TIP3    H280133   3.823   3.330  17.086 -0.0407 -0.6641  0.4394
19548TIP3   OH280134   2.547   5.925   2.873  0.0980 -0.1125 -0.1533
19548TIP3    H180135   2.455   5.896   2.874 -0.2159  0.7785  1.8946
19548TIP3    H280136   2.548   6.004   2.927  2.0882 -0.1063 -0.1280
19549TIP3   OH280137   1.720   6.354  12.115 -0.1676  0.3811 -0.1839
19549TIP3    H180138   1.654   6.286  12.128  0.6802 -0.4146  0.0339
19549TIP3    H280139   1.803   6.312  12.138  0.2826  1.7280  0.7383
19550TIP3   OH280140   3.693   1.843   5.901  0.6757  0.3186 -0.5362
19550TIP3    H180141   3.650   1.880   5.979  0.8572  0.0857 -0.3241
19550TIP3    H280142   3.770   1.898   5.888  0.8689  0.1011 -0.3055
19551TIP3   OH280143   6.209   3.866   0.820  0.2388 -0.3383 -0.0960
19551TIP3    H180144   6.240   3.805   0.753  0.5251 -0.6760  0.3364
19551TIP3    H280145   6.219   3.819   0.903 -0.5449 -0.0954  0.1486
19552TIP3   OH280146   6.144   2.419   1.359  0.1273  0.1561 -1.1411
19552TIP3    H180147   6.162   2.330   1.330  0.7952  0.0430 -0.4252
19552TIP3    H280148   6.168   2.474   1.285  1.3510 -0.1548 -0.9909
19553TIP3   OH280149   0.495   5.452  17.015 -0.5538 -0.4243 -0.0558
19553TIP3    H180150   0.507   5.409  17.100 -0.1371 -1.5460 -0.6571
19553TIP3    H280151   0.417   5.506  17.026  0.5582  0.9475  1.6142
19554TIP3   OH280152   0.173   5.633   3.695 -0.2484 -0.1356 -0.2201
19554TIP3    H180153   0.237   5.603   3.760 -0.7441  0.3386  0.4947
19554TIP3    H280154   0.227   5.668   3.624  0.2899  0.0546  0.2736
19555TIP3   OH280155   1.705   5.366   6.327  0.1872  0.5358 -0.7610
19555TIP3    H180156   1.732   5.443   6.277  1.1881  1.0257  0.4642
19555TIP3    H280157   1.639   5.400   6.388  0.9364  0.5321  0.0675
19556TIP3   OH280158   0.421   4.956   2.351  0.0380 -0.3917  0.3910
19556TIP3    H180159   0.476   4.934   2.427  0.7685  2.1310  0.6721
19556TIP3    H280160   0.481   4.996   2.289 -0.3827 -3.1153 -1.9987
19557TIP3   OH280161   0.328   1.284  16.138  0.3137  0.4303  0.0821
19557TIP3    H180162   0.255   1.223  16.126 -0.3303  1.1368  0.3248
19557TIP3    H280163   0.347   1.280  16.232  0.1668  0.7039  0.1273
19558TIP3   OH280164   6.800   1.010  11.897 -0.1141  0.3236  0.2839
19558TIP3    H180165   6.746   1.084  11.926  1.7568  1.6257  0.6366
19558TIP3    H280166   6.779   1.001  11.804 -0.0876  1.5842  0.1336
19559TIP3   OH280167   0.165   6.159   2.294 -0.3000  0.0772  0.3053
19559TIP3    H180168   0.086   6.209   2.271  0.0064  0.3215 -0.2485
19559TIP3    H280169   0.159   6.080   2.240  1.2481  1.4012 -1.9890
19560TIP3   OH280170   1.931   6.141   1.733 -0.3499  0.3491 -0.4553
19560TIP3    H180171   1.904   6.050   1.743  2.2892 -0.4613  0.0174
19560TIP3    H280172   1.910   6.162   1.642  2.9130 -2.2813 -2.0196
19561TIP3   OH280173   2.264   0.224   3.354 -0.0602  0.6911  0.2003
19561TIP3    H180174   2.293   0.238   3.444  2.2733  0.6465 -0.4934
19561TIP3    H280175   2.318   0.152   3.323 -1.8478 -0.2713 -0.8250
19562TIP3   OH280176   6.114   6.050  16.946  0.4421  0.0430 -0.0979
19562TIP3    H180177   6.178   6.023  17.010 -1.2884 -2.5433  0.6932
19562TIP3    H280178   6.093   5.970  16.897  0.1421  1.4801 -2.4911
19563TIP3   OH280179   4.800   5.310  12.142  0.3991 -0.0435  0.2568
19563TIP3    H180180   4.876   5.356  12.109  0.7227  0.9703  2.2401
19563TIP3    H280181   4.796   5.229  12.091  0.7443  1.4119 -2.2422
19564TIP3   OH280182   3.194   5.395   5.333  0.4922  0.3235  0.4501
19564TIP3    H180183   3.248   5.332   5.381  0.7899 -1.4998 -2.1017
19564TIP3    H280184   3.141   5.341   5.274 -1.9109  2.2767  0.6957
19565TIP3   OH280185   0.158   5.379  11.458  0.3231 -0.1034  0.1214
19565TIP3    H180186   0.225   5.381  11.390  1.1692  1.2848  0.9448
19565TIP3    H280187   0.187   5.311  11.518  1.3190  0.8500  0.7553
19566TIP3   OH280188   6.720   4.663   5.552  0.3951  0.4453 -0.4613
19566TIP3    H180189   6.734   4.571   5.575  0.0623 -0.1867 -2.5758
19566TIP3    H280190   6.671   4.699   5.626 -0.3355 -1.3395 -0.0244
19567TIP3   OH280191   6.761   1.808  15.451 -0.6710  0.2046  0.7168
19567TIP3    H180192   6.675   1.767  15.437 -0.2771 -0.1061 -1.0165
19567TIP3    H280193   6.789   1.834  15.364  0.7817  0.7666  1.3299
19568TIP3   OH280194   1.625   6.738  13.189  0.5916  0.3612  0.3196
19568TIP3    H180195   1.721   6.742  13.189  0.6135 -0.0651  0.4594
19568TIP3    H280196   1.604   6.689  13.268  0.2323  0.9317  0.5841
19569TIP3   OH280197   4.909   0.197  11.902  0.0382 -0.2350 -0.4239
19569TIP3    H180198   4.868   0.152  11.976  2.4059  0.9311  1.7357
19569TIP3    H280199   4.954   0.127  11.854 -0.6582 -0.8491 -0.2112
19570TIP3   OH280200   0.845   0.829  13.062  0.1684 -0.1763 -0.3774
19570TIP3    H180201   0.796   0.910  13.051  0.1333 -0.2460 -0.7347
19570TIP3    H280202   0.864   0.825  13.156  0.7972  0.6069 -0.4626
19571TIP3   OH280203   1.393   4.504   4.657 -0.5407  0.1667  0.2658
19571TIP3    H180204   1.387   4.524   4.563 -1.0929  2.7695  0.7961
19571TIP3    H280205   1.309   4.531   4.693  0.5278  1.5345  1.8723
19572TIP3   OH280206   0.407   2.083  15.849  0.4414 -0.5679  0.3636
19572TIP3    H180207   0.474   2.137  15.807 -1.1658  1.8331  0.7414
19572TIP3    H280208   0.349   2.056  15.777  0.1558 -0.1563  0.4390
19573TIP3   OH280209   5.771   2.151  12.585 -0.3511 -0.1464 -0.5887
19573TIP3    H180210   5.838   2.218  12.581 -2.5732  2.3773  0.8703
19573TIP3    H280211   5.708   2.176  12.517 -2.2134  0.5667  1.2853
19574TIP3   OH280212   5.804   6.332  15.187 -0.0013  0.0845 -0.0771
19574TIP3    H180213   5.776   6.335  15.096 -0.9010 -0.7821  0.1540
19574TIP3    H280214   5.738   6.381  15.235 -0.2729 -0.5864  0.2615
19575TIP3   OH280215   0.970   2.938   5.835  0.1835 -0.7346 -0.1443
19575TIP3    H180216   0.883   2.964   5.806 -0.1023 -0.8930  0.5700
19575TIP3    H280217   0.976   2.845   5.814  0.3892 -0.6064 -0.6843
19576TIP3   OH280218   0.078   2.539  10.993  0.2697 -0.5356  0.4376
19576TIP3    H180219   0.105   2.450  11.017 -1.8062 -0.6645  2.6072
19576TIP3    H280220   0.092   2.590  11.073  0.3082  0.8513 -0.4322
19577TIP3   OH280221   1.245   0.628   0.779  0.4133  0.0992 -0.2613
19577TIP3    H180222   1.270   0.711   0.739  1.6506 -0.3272 -0.4165
19577TIP3    H280223   1.285   0.630   0.866  1.3969 -0.7908 -0.6777
19578TIP3   OH280224   3.061   3.433   1.700 -0.2723 -0.1566  0.1199
19578TIP3    H180225   3.154   3.418   1.717 -0.0208  0.8769 -0.2599
19578TIP3    H280226   3.026   3.465   1.783 -0.2290 -0.3113  0.1967
19579TIP3   OH280227   2.419   0.708  14.140  0.5360 -0.1427  0.3370
19579TIP3    H180228   2.494   0.764  14.162 -0.1043  0.9994 -0.3139
19579TIP3    H280229   2.415   0.710  14.044  1.2840 -2.3782  0.2015
19580TIP3   OH280230   0.136   4.683   5.530 -0.5401  0.1528  0.4768
19580TIP3    H180231   0.045   4.713   5.530 -1.6165 -2.7250  1.5454
19580TIP3    H280232   0.134   4.601   5.480  1.5652  0.2414  0.1876
19581TIP3   OH280233   5.513   2.422   1.230 -0.3368 -0.9407 -0.2608
19581TIP3    H180234   5.522   2.516   1.221  1.7983 -1.1897 -1.2240
19581TIP3    H280235   5.531   2.404   1.322  1.6978 -0.5989 -0.5508
19582TIP3   OH280236   1.394   4.961  11.429  0.1611 -0.1352 -0.1297
19582TIP3    H180237   1.328   5.029  11.414 -1.3504 -1.5349 -0.1766
19582TIP3    H280238   1.348   4.894  11.480  1.5336 -1.1903 -0.2171
19583TIP3   OH280239   4.371   0.951  12.249 -0.2050  0.3712 -0.4324
19583TIP3    H180240   4.408   1.003  12.321 -0.8754  0.5205 -0.1805
19583TIP3    H280241   4.327   0.878  12.293  0.5879 -0.3197 -0.7756
19584TIP3   OH280242   3.233   5.655  15.132 -0.0457  0.0106 -0.2111
19584TIP3    H180243   3.271   5.605  15.059  0.8358 -2.3890  1.7407
19584TIP3    H280244   3.157   5.603  15.160 -1.0450  1.4729 -0.0643
19585TIP3   OH280245   5.859   3.603   4.788 -0.3800  0.3080 -0.8147
19585TIP3    H180246   5.764   3.595   4.790 -0.3964  0.0914 -2.0447
19585TIP3    H280247   5.880   3.660   4.862 -1.4558  0.3311 -0.5169
19586TIP3   OH280248   5.709   0.967  13.806 -0.1408 -0.2719  0.1636
19586TIP3    H180249   5.799   0.986  13.780  0.4307 -1.2961  1.3190
19586TIP3    H280250   5.696   0.875  13.785 -0.7739 -0.2461  0.4083
19587TIP3   OH280251   1.774   2.634   5.717  0.0355 -0.3105  0.2703
19587TIP3    H180252   1.844   2.595   5.769 -1.0222  0.3114  2.2661
19587TIP3    H280253   1.817   2.701   5.664  1.0899 -0.6853  0.6370
19588TIP3   OH280254   5.572   0.878   1.497 -0.1727  0.0172 -0.2260
19588TIP3    H180255   5.658   0.903   1.531  0.9008 -0.0460 -2.7322
19588TIP3    H280256   5.529   0.961   1.476 -0.8964  0.0625  1.3010
19589TIP3   OH280257   3.675   4.060   4.135  0.5865  0.3748  0.5149
19589TIP3    H180258   3.745   4.002   4.105  0.6124  0.4052  0.5170
19589TIP3    H280259   3.606   4.050   4.070  1.2553  1.6538 -0.4329
19590TIP3   OH280260   0.768   4.617   3.154  0.1727  0.4399 -0.4527
19590TIP3    H180261   0.851   4.657   3.179  0.6225  0.3859 -1.7792
19590TIP3    H280262   0.730   4.678   3.091 -0.3047 -0.0278 -0.6221
19591TIP3   OH280263   0.615   3.807  11.313  0.3519 -0.0506  0.3153
19591TIP3    H180264   0.634   3.743  11.382  1.3626  0.1273  0.2122
19591TIP3    H280265   0.684   3.873  11.322 -1.2595  1.5977  1.0904
19592TIP3   OH280266   4.073   4.153  16.053 -0.0572  0.1110 -0.4651
19592TIP3    H180267   4.119   4.178  15.972 -0.1369 -0.1896 -0.6054
19592TIP3    H280268   4.017   4.080  16.026  0.1085 -0.1579 -0.0785
19593TIP3   OH280269   1.963   0.965   5.316 -0.0291 -0.4866 -0.1313
19593TIP3    H180270   1.884   1.018   5.309 -0.1952 -0.5758  0.8432
19593TIP3    H280271   1.944   0.887   5.263 -1.7958 -1.8643  2.3121
19594TIP3   OH280272   2.341   6.500   2.229  0.4427 -0.3611  0.3958
19594TIP3    H180273   2.316   6.519   2.139  1.0733  0.1888  0.3336
19594TIP3    H280274   2.436   6.498   2.228  0.5717  2.1428  1.5385
19595TIP3   OH280275   3.562   3.837  12.171 -0.3856 -0.0154 -0.1108
19595TIP3    H180276   3.585   3.754  12.213  0.1906 -0.6067 -1.5206
19595TIP3    H280277   3.491   3.814  12.112 -0.1377  0.4674 -0.6016
19596TIP3   OH280278   1.388   1.334  16.060 -0.4841 -0.2083 -0.5674
19596TIP3    H180279   1.303   1.305  16.092 -0.2933 -0.0017  0.1310
19596TIP3    H280280   1.393   1.426  16.083 -0.1587 -0.1647 -0.8019
19597TIP3   OH280281   3.057   6.642   1.817 -0.2737  0.3582 -0.1104
19597TIP3    H180282   2.970   6.642   1.776 -0.1721  0.1270 -0.3276
19597TIP3    H280283   3.041   6.674   1.906 -0.5346  0.6192 -0.2494
19598TIP3   OH280284   3.019   2.108   4.365  0.6847 -0.1021 -0.4538
19598TIP3    H180285   3.083   2.164   4.409 -0.9850  0.1029  1.8923
19598TIP3    H280286   2.974   2.167   4.305 -1.2904  1.3756  2.2306
19599TIP3   OH280287   5.088   5.142   4.513  0.1992  0.0857  1.1916
19599TIP3    H180288   5.002   5.161   4.477  0.0691 -0.6430  1.0879
19599TIP3    H280289   5.073   5.125   4.606  0.1208 -0.7009  1.0431
19600TIP3   OH280290   6.189   3.002  12.909  0.1714 -0.3035  0.9392
19600TIP3    H180291   6.161   2.915  12.936  0.8582 -0.0803  2.5374
19600TIP3    H280292   6.285   2.996  12.906  0.1540 -0.1568 -1.0795
19601TIP3   OH280293   0.252   6.386   5.413  0.0362 -0.2804  0.0145
19601TIP3    H180294   0.254   6.457   5.477 -1.3267 -0.8445  0.7083
19601TIP3    H280295   0.163   6.387   5.378  0.5662 -0.3948 -1.4407
19602TIP3   OH280296   1.977   4.283  14.249 -0.4917  0.3315  0.2076
19602TIP3    H180297   1.957   4.303  14.158 -0.4135  0.0725  0.1316
19602TIP3    H280298   2.071   4.262  14.249 -0.4807  0.3780  0.3540
19603TIP3   OH280299   3.836   2.812   2.367 -1.0344  0.2508 -0.5783
19603TIP3    H180300   3.812   2.746   2.432 -2.8782  1.7793  0.4183
19603TIP3    H280301   3.896   2.871   2.414 -3.2867  2.0367  0.2817
19604TIP3   OH280302   1.943   1.750   0.381 -0.5282  0.2334 -0.4211
19604TIP3    H180303   2.031   1.743   0.417 -0.7255  0.4444  0.1239
19604TIP3    H280304   1.953   1.804   0.303 -0.4799  2.1226  0.8389
19605TIP3   OH280305   1.243   6.616  15.953  0.0498 -0.0374 -0.1430
19605TIP3    H180306   1.280   6.528  15.957 -0.0723 -0.1763 -1.5213
19605TIP3    H280307   1.319   6.674  15.959  0.0952 -0.2161  1.1453
19606TIP3   OH280308   3.653   2.251   5.045  0.5145  0.6901 -0.1021
19606TIP3    H180309   3.744   2.220   5.053 -0.0237 -1.2375 -0.9862
19606TIP3    H280310   3.620   2.247   5.135  0.6183 -0.9275 -0.1059
19607TIP3   OH280311   0.991   5.571  14.334  0.3040 -0.2527  0.0217
19607TIP3    H180312   1.063   5.517  14.365  1.1254  0.7939 -0.0088
19607TIP3    H280313   0.951   5.606  14.413  0.3699 -0.1590  0.0145
19608TIP3   OH280314   0.377   3.071  15.238  0.4365 -0.8947  0.0497
19608TIP3    H180315   0.422   2.989  15.260 -0.3344 -1.0620  1.1023
19608TIP3    H280316   0.325   3.050  15.161 -1.0901 -1.9432  1.2791
19609TIP3   OH280317   3.492   1.966  15.911  0.4573 -0.0055 -0.1178
19609TIP3    H180318   3.463   1.894  15.967 -1.8400  1.8888  1.3642
19609TIP3    H280319   3.548   2.019  15.968  1.4056 -0.1457 -0.9068
19610TIP3   OH280320   2.298   4.492   5.415  0.6853  0.1638  0.2732
19610TIP3    H180321   2.372   4.505   5.356  0.5512  0.0146  0.0699
19610TIP3    H280322   2.249   4.574   5.409 -0.2014 -0.4189 -1.0677
19611TIP3   OH280323   4.190   6.113  13.818 -0.8252  0.2784 -0.5533
19611TIP3    H180324   4.222   6.171  13.886  0.9331  0.7979 -1.7715
19611TIP3    H280325   4.240   6.032  13.829 -0.3147  0.4640 -1.3642
19612TIP3   OH280326   6.291   4.262  15.417 -0.6387 -0.1641  0.1868
19612TIP3    H180327   6.226   4.222  15.474 -1.1973 -0.4120 -0.6124
19612TIP3    H280328   6.280   4.219  15.332 -0.0623  0.4444 -0.2146
19613TIP3   OH280329   5.223   5.597   1.303 -0.1385  0.4418 -0.1290
19613TIP3    H180330   5.129   5.583   1.314 -0.2498  1.8622  1.0826
19613TIP3    H280331   5.247   5.652   1.377  1.1518  2.2890 -1.8322
19614TIP3   OH280332   4.100   5.290   1.664 -0.1394  0.5819 -0.3970
19614TIP3    H180333   4.065   5.306   1.577 -1.6049  0.0441  0.0684
19614TIP3    H280334   4.086   5.373   1.711  0.3417  0.7622 -0.5685
19615TIP3   OH280335   3.362   0.239   1.756 -0.3334 -0.2810 -0.5091
19615TIP3    H180336   3.435   0.299   1.737 -1.1648  0.0254 -3.1708
19615TIP3    H280337   3.377   0.165   1.697 -1.6098 -0.7197 -0.3071
19616TIP3   OH280338   5.128   1.138  15.197 -0.0776  0.2255  0.0614
19616TIP3    H180339   5.070   1.109  15.267  1.3989  1.4218  1.8640
19616TIP3    H280340   5.161   1.223  15.227  2.1695 -0.1527 -1.1431
19617TIP3   OH280341   2.266   2.036   1.951  0.0031  0.1167 -0.3992
19617TIP3    H180342   2.258   2.131   1.958 -1.1379  0.3049 -2.9139
19617TIP3    H280343   2.214   2.014   1.874 -1.4648 -2.8257  1.2591
19618TIP3   OH280344   0.110   3.993  14.588  0.2059 -0.7390  0.9322
19618TIP3    H180345   0.032   4.009  14.642 -1.1419 -0.4595 -0.9633
19618TIP3    H280346   0.101   4.055  14.515  0.5496 -2.7917 -0.9581
19619TIP3   OH280347   5.806   1.086  16.959 -0.8440 -0.0314  0.1735
19619TIP3    H180348   5.859   1.159  16.989 -0.0069 -0.9032  0.8729
19619TIP3    H280349   5.720   1.124  16.942 -0.4342  1.1013  0.5612
19620TIP3   OH280350   5.472   1.597   5.471  0.0264 -0.0502  0.7637
19620TIP3    H180351   5.421   1.517   5.481  1.1784 -0.7755  1.0659
19620TIP3    H280352   5.411   1.660   5.433 -0.4965 -1.5219 -0.9490
19621TIP3   OH280353   1.530   0.680   4.244  0.8841  0.2982 -0.1776
19621TIP3    H180354   1.540   0.606   4.185 -0.6283  0.4321 -0.6512
19621TIP3    H280355   1.566   0.650   4.327  0.1329 -1.0437 -0.3122
19622TIP3   OH280356   2.461   3.541  12.769 -0.0358 -0.0184 -0.2858
19622TIP3    H180357   2.466   3.459  12.818  0.5346  1.4179  2.2079
19622TIP3    H280358   2.518   3.602  12.817 -0.6695  1.9458 -1.8676
19623TIP3   OH280359   1.219   3.574  13.697 -0.0905  0.0196 -0.4085
19623TIP3    H180360   1.293   3.632  13.714 -1.3731  1.6878 -0.2654
19623TIP3    H280361   1.154   3.630  13.654 -1.7833 -1.0268  0.6711
19624TIP3   OH280362   0.666   6.250  10.940 -0.8282  1.0978  0.7718
19624TIP3    H180363   0.583   6.219  10.904  0.7439 -1.3031 -1.0951
19624TIP3    H280364   0.679   6.199  11.019 -0.9257  1.1892  0.8473
19625TIP3   OH280365   3.613   3.862   5.084  0.3271  0.3474  0.0931
19625TIP3    H180366   3.638   3.776   5.052  2.2648  0.5445  0.9200
19625TIP3    H280367   3.612   3.853   5.180  1.5946  1.4676  0.2391
19626TIP3   OH280368   3.933   0.168  12.423 -0.0048  0.5286 -0.0400
19626TIP3    H180369   4.007   0.110  12.437 -0.0843 -0.1668 -2.1090
19626TIP3    H280370   3.971   0.249  12.390 -0.1360  0.0954 -1.3129
19627TIP3   OH280371   5.721   1.409  16.820 -0.2957 -0.2101  0.1484
19627TIP3    H180372   5.781   1.394  16.893  0.7120 -1.5624 -0.9200
19627TIP3    H280373   5.650   1.347  16.833 -0.4805  0.0419  0.3555
19628TIP3   OH280374   3.432   0.610   1.587 -0.0405 -0.1401  0.5410
19628TIP3    H180375   3.522   0.634   1.610 -0.5944  0.5367  2.1817
19628TIP3    H280376   3.400   0.681   1.532 -0.2121  0.7123  1.6870
19629TIP3   OH280377   6.298   5.023  16.609 -0.5664  0.0985  0.1041
19629TIP3    H180378   6.253   5.031  16.525 -0.1375  2.1030  0.0125
19629TIP3    H280379   6.324   5.112  16.631  1.5739 -0.7027  1.1526
19630TIP3   OH280380   0.343   0.851  10.796  0.4056  0.1815  0.3462
19630TIP3    H180381   0.396   0.777  10.825 -0.1747 -0.1418  0.5996
19630TIP3    H280382   0.315   0.827  10.708  0.1595  0.0683  0.4551
19631TIP3   OH280383   0.104   4.584   2.291 -0.3911 -0.7108  0.3442
19631TIP3    H180384   0.094   4.603   2.197 -0.4819 -1.2380  0.2440
19631TIP3    H280385   0.015   4.576   2.324 -0.3681 -0.0078  0.5892
19632TIP3   OH280386   6.780   1.932  14.503  0.2158  0.0995 -0.0855
19632TIP3    H180387   6.816   1.893  14.582 -0.6024  0.1442  0.3169
19632TIP3    H280388   6.809   1.874  14.432  1.5310  0.4357  0.1436
19633TIP3   OH280389   5.670   0.856   3.245  0.3878  0.4844  0.1284
19633TIP3    H180390   5.613   0.902   3.184 -0.5746 -0.6802  0.1234
19633TIP3    H280391   5.729   0.924   3.279 -1.1567  1.7757  0.3217
19634TIP3   OH280392   0.107   0.834  15.899  0.0458 -0.0850  0.3884
19634TIP3    H180393   0.052   0.761  15.927 -0.3795 -0.4574 -1.3210
19634TIP3    H280394   0.172   0.843  15.970  0.1030 -2.1022  0.6603
19635TIP3   OH280395   2.965   5.920   4.487  0.0747 -0.4166  0.0238
19635TIP3    H180396   2.997   5.955   4.404  0.4084  3.6575  1.6307
19635TIP3    H280397   3.008   5.835   4.496  3.5758  0.9423 -1.9582
19636TIP3   OH280398   3.600   0.490   3.604 -0.1191 -0.5790 -0.2980
19636TIP3    H180399   3.593   0.494   3.509  0.5059  3.9341 -0.3604
19636TIP3    H280400   3.541   0.559   3.636  1.1563 -0.6093  2.4610
19637TIP3   OH280401   3.890   5.653  13.842 -0.0131  0.3264  0.3412
19637TIP3    H180402   3.797   5.631  13.851 -0.0457  0.5137  0.4730
19637TIP3    H280403   3.917   5.611  13.760 -0.2712  0.4682  0.1815
19638TIP3   OH280404   3.806   4.684   1.057  0.3453  0.3878  0.0640
19638TIP3    H180405   3.866   4.638   1.000  0.5861  0.5912  0.1518
19638TIP3    H280406   3.762   4.748   1.000  0.9789  0.9648  0.2120
19639TIP3   OH280407   2.361   3.651   0.141 -0.1963 -0.1613 -0.1566
19639TIP3    H180408   2.315   3.733   0.159  0.9258  0.5640 -0.5170
19639TIP3    H280409   2.441   3.656   0.192  0.4437 -0.4911 -1.0953
19640TIP3   OH280410   4.042   1.637   2.510 -0.2111 -0.5618  0.4787
19640TIP3    H180411   4.052   1.544   2.530  0.2987 -0.2397  1.8213
19640TIP3    H280412   4.126   1.676   2.535  0.0348  0.0887 -1.2344
19641TIP3   OH280413   0.847   3.603  11.296  0.0694  0.0915 -0.5840
19641TIP3    H180414   0.861   3.563  11.381 -0.0604 -0.2430 -0.7193
19641TIP3    H280415   0.763   3.568  11.266  0.1243  0.1906 -0.8568
19642TIP3   OH280416   1.499   5.586   4.033 -0.3626  0.4181 -0.3267
19642TIP3    H180417   1.428   5.610   3.973 -0.2849 -1.0692 -1.0502
19642TIP3    H280418   1.548   5.518   3.986 -0.2627 -0.7365  1.3641
19643TIP3   OH280419   3.543   0.518  11.936 -0.1054 -0.1773 -0.1032
19643TIP3    H180420   3.586   0.532  11.852 -0.6709 -0.6937 -0.4816
19643TIP3    H280421   3.450   0.508  11.915 -0.2361 -0.4270  0.5677
19644TIP3   OH280422   2.001   2.665   1.685 -0.3533  0.3999 -0.3232
19644TIP3    H180423   1.962   2.583   1.655  0.3137  0.3206 -1.0102
19644TIP3    H280424   2.082   2.673   1.634  1.4808 -0.3234  2.2933
19645TIP3   OH280425   4.514   3.565  14.127  0.3311 -0.1832 -0.5008
19645TIP3    H180426   4.564   3.490  14.159 -0.2793  0.3984  2.0677
19645TIP3    H280427   4.422   3.537  14.134  0.0868  0.7992  0.6441
19646TIP3   OH280428   0.791   1.613   2.580 -0.3587 -0.1335  0.3340
19646TIP3    H180429   0.886   1.608   2.577 -0.1812  2.4200 -0.9285
19646TIP3    H280430   0.769   1.608   2.673  1.1223  0.6033  0.7516
19647TIP3   OH280431   5.691   6.647   3.062  0.1272 -0.1501 -0.2021
19647TIP3    H180432   5.632   6.632   3.136  0.4652  1.1380  0.3554
19647TIP3    H280433   5.667   6.733   3.028  1.2577  0.1216 -0.3598
19648TIP3   OH280434   5.140   2.080  12.984 -0.2860  0.3804  0.6514
19648TIP3    H180435   5.209   2.096  13.047  1.0464  0.3712 -0.7353
19648TIP3    H280436   5.154   2.146  12.915  0.0551 -1.2997 -0.9762
19649TIP3   OH280437   1.875   3.081   3.028 -0.9872 -0.3769 -0.5756
19649TIP3    H180438   1.846   3.146   3.092  1.5605  0.5850 -0.3144
19649TIP3    H280439   1.855   3.121   2.943  1.5694  1.3614 -0.4516
19650TIP3   OH280440   4.116   5.807   2.838 -0.0114  0.5098  0.1694
19650TIP3    H180441   4.109   5.712   2.834 -0.8889  0.5639  0.2820
19650TIP3    H280442   4.085   5.829   2.926  1.0859  0.8309  0.4901
19651TIP3   OH280443   0.016   6.225  13.268 -0.6485 -0.0333 -0.5097
19651TIP3    H180444   0.042   6.280  13.342 -1.0464  2.3286 -1.9900
19651TIP3    H280445  -0.078   6.213  13.280 -0.2768 -2.0503  0.7852
19652TIP3   OH280446   6.257   5.537   0.102 -0.4665  0.4464 -0.0935
19652TIP3    H180447   6.351   5.553   0.099 -0.2196  0.2601  3.0553
19652TIP3    H280448   6.217   5.624   0.107 -0.3580  0.4881  0.0362
19653TIP3   OH280449   3.813   1.744  11.204 -0.7419  0.1191  0.1590
19653TIP3    H180450   3.856   1.708  11.126 -0.3090  0.6261  0.1590
19653TIP3    H280451   3.723   1.711  11.199 -0.0916 -1.9627  0.7798
19654TIP3   OH280452   4.271   5.312  14.614 -0.1899 -0.9526 -0.1058
19654TIP3    H180453   4.220   5.307  14.534 -0.7985  0.3402  0.1775
19654TIP3    H280454   4.242   5.237  14.666  0.5372 -2.0547 -1.2591
19655TIP3   OH280455   2.780   5.980  16.814 -0.6024  0.7983 -0.4213
19655TIP3    H180456   2.748   6.065  16.784  2.0420  2.0667 -0.0016
19655TIP3    H280457   2.834   6.001  16.890  0.3138 -1.2170 -0.4580
19656TIP3   OH280458   0.906   0.222   3.457  0.3201 -0.1169 -0.4468
19656TIP3    H180459   0.974   0.154   3.466  1.5958  1.1076 -0.5176
19656TIP3    H280460   0.842   0.200   3.525  0.8326 -1.2562 -0.3079
19657TIP3   OH280461   0.316   2.561   4.675 -0.3278  0.7164  0.0693
19657TIP3    H180462   0.252   2.526   4.612  0.9604  1.7068 -1.8962
19657TIP3    H280463   0.329   2.651   4.648  1.0619  0.8674  1.1429
19658TIP3   OH280464   1.809   2.109  10.679  0.1909 -0.3688 -0.6825
19658TIP3    H180465   1.778   2.115  10.769 -1.3106 -0.6115 -1.1532
19658TIP3    H280466   1.830   2.199  10.655  0.7744 -0.3294 -0.0385
19659TIP3   OH280467   4.978   4.854   1.439  0.4126 -0.2907 -0.4046
19659TIP3    H180468   5.022   4.769   1.431 -1.4398 -1.4314  0.8511
19659TIP3    H280469   4.954   4.877   1.349  1.6924 -0.6365 -0.8567
19660TIP3   OH280470   6.506   0.419   3.512  0.7486  0.1775 -0.1227
19660TIP3    H180471   6.586   0.461   3.544  1.2423 -1.8509  1.4996
19660TIP3    H280472   6.437   0.450   3.572  0.5019  1.0084 -0.8089
19661TIP3   OH280473   3.537   5.439   2.377  0.2030  0.2558  0.0210
19661TIP3    H180474   3.529   5.530   2.406  1.1345  0.6367 -0.8288
19661TIP3    H280475   3.628   5.415   2.399  0.5248  0.1406 -1.3463
19662TIP3   OH280476   5.629   1.820   3.626 -0.3034 -0.5045  0.4024
19662TIP3    H180477   5.713   1.855   3.653  0.5585 -1.7562 -0.5421
19662TIP3    H280478   5.605   1.873   3.549 -1.1310  0.8323  1.5445
19663TIP3   OH280479   0.348   4.981  15.177 -0.1205  0.0678  0.8597
19663TIP3    H180480   0.440   4.963  15.158 -0.2700 -0.1050  0.2492
19663TIP3    H280481   0.311   5.007  15.092 -0.6560  0.0226  1.0738
19664TIP3   OH280482   2.382   2.214   4.079  0.5541  0.5204  0.1990
19664TIP3    H180483   2.370   2.282   4.013 -0.6584  1.4794  1.3598
19664TIP3    H280484   2.294   2.180   4.095  0.8069  0.3765  1.3725
19665TIP3   OH280485   2.398   0.312  15.336  0.4274 -0.9896  0.4840
19665TIP3    H180486   2.379   0.238  15.278  0.4274  0.8720 -2.0662
19665TIP3    H280487   2.312   0.346  15.361  0.2703  0.5857 -1.8197
19666TIP3   OH280488   4.601   5.791  17.125  0.5607  0.3290 -0.2135
19666TIP3    H180489   4.616   5.754  17.212  1.0385 -1.2793 -0.9414
19666TIP3    H280490   4.656   5.869  17.123 -1.0263  1.6250  1.6262
19667TIP3   OH280491   1.866   3.837  16.250  0.4619  0.2905  0.5528
19667TIP3    H180492   1.857   3.891  16.328 -0.7632 -0.3186  0.8598
19667TIP3    H280493   1.820   3.886  16.182  0.3595  0.1775  0.5414
19668TIP3   OH280494   5.121   4.122   4.792  0.2645  0.0683  0.4454
19668TIP3    H180495   5.043   4.066   4.788 -1.8332  2.8139 -2.1625
19668TIP3    H280496   5.090   4.203   4.834  2.9203 -0.1812  3.1975
19669TIP3   OH280497   0.728   4.033   2.018 -0.5040 -0.1637 -0.1934
19669TIP3    H180498   0.800   4.066   1.963 -0.1314  0.7581  0.8139
19669TIP3    H280499   0.771   3.974   2.080 -0.5665  0.4897  0.4939
19670TIP3   OH280500   3.307   5.669  13.060  0.0128 -0.1089 -0.0392
19670TIP3    H180501   3.237   5.684  13.123  0.7546  1.0020  0.5514
19670TIP3    H280502   3.262   5.650  12.977 -0.9678 -0.9326  0.6613
19671TIP3   OH280503   4.829   3.871  10.519 -0.1939 -0.0269  0.4363
19671TIP3    H180504   4.751   3.863  10.464  0.2990 -0.8941 -0.1871
19671TIP3    H280505   4.892   3.811  10.478  0.8824  0.8491  0.7717
19672TIP3   OH280506   0.552   1.087   2.848 -0.5717 -0.1941 -0.1990
19672TIP3    H180507   0.548   1.167   2.899 -0.5857 -0.5032  0.2863
19672TIP3    H280508   0.598   1.112   2.768 -0.5849  0.2966 -0.0564
19673TIP3   OH280509   3.952   4.043  11.069  0.2016 -0.4536  0.5423
19673TIP3    H180510   3.914   3.987  11.001 -1.9033  0.9036  0.5329
19673TIP3    H280511   3.987   4.118  11.021 -1.2345  0.4811  0.9199
19674TIP3   OH280512   1.347   5.557  13.725 -0.3756  1.0732 -0.7345
19674TIP3    H180513   1.400   5.507  13.787 -0.3272 -0.6165 -2.0700
19674TIP3    H280514   1.410   5.584  13.658 -0.6895  1.6612 -0.7991
19675TIP3   OH280515   4.747   1.554   0.909  0.1520  0.5953 -0.3110
19675TIP3    H180516   4.719   1.621   0.847 -1.0437  1.0677  0.6760
19675TIP3    H280517   4.676   1.489   0.908 -0.9663  1.6432  2.0049
19676TIP3   OH280518   1.254   2.108   1.222 -0.3423 -0.9635 -0.1448
19676TIP3    H180519   1.327   2.133   1.165 -0.3086 -3.9088 -1.5878
19676TIP3    H280520   1.283   2.131   1.310  1.4136 -0.1316 -0.8917
19677TIP3   OH280521   2.885   2.818   1.531 -0.1422  0.2081 -0.3441
19677TIP3    H180522   2.862   2.877   1.603 -1.3197 -0.5456 -0.0681
19677TIP3    H280523   2.905   2.876   1.458 -0.5869  0.9686  0.1246
19678TIP3   OH280524   6.306   3.249  12.539  0.0577 -0.6996  0.1336
19678TIP3    H180525   6.374   3.302  12.498 -0.2780  0.3890  0.9254
19678TIP3    H280526   6.241   3.234  12.470  0.7760 -1.1767 -0.4418
19679TIP3   OH280527   4.903   1.127   0.850 -0.2585 -0.5464  0.1281
19679TIP3    H180528   4.870   1.046   0.891 -0.4802 -0.5883 -0.1297
19679TIP3    H280529   4.825   1.178   0.831 -0.0846  0.0004  0.8352
19680TIP3   OH280530   0.904   1.305   2.698  0.5138 -0.1125  0.1099
19680TIP3    H180531   0.872   1.243   2.764  0.0279  0.8015  0.7406
19680TIP3    H280532   0.891   1.391   2.737 -0.9292  0.5381 -1.6685
19681TIP3   OH280533   0.016   1.669  11.500 -0.4592  0.1454  0.7062
19681TIP3    H180534  -0.070   1.670  11.458 -0.8701 -1.7636  1.4004
19681TIP3    H280535  -0.003   1.657  11.593  0.5769 -0.8892  0.7964
19682TIP3   OH280536   1.673   5.347   4.036  0.0345 -0.1119  0.4132
19682TIP3    H180537   1.687   5.263   4.080 -0.1836  0.8832  2.4620
19682TIP3    H280538   1.751   5.358   3.981  0.0256 -1.6783  0.0377
19683TIP3   OH280539   5.139   2.562  16.200 -0.2233  0.7359 -0.1910
19683TIP3    H180540   5.099   2.489  16.152  1.0421  0.4194 -0.8200
19683TIP3    H280541   5.065   2.612  16.234 -1.1341 -1.1290  0.7118
19684TIP3   OH280542   0.737   4.057   5.113  0.1886 -0.1515 -0.4018
19684TIP3    H180543   0.820   4.092   5.144  0.5759 -1.8450  0.5721
19684TIP3    H280544   0.757   4.015   5.030  0.3854 -0.8403 -0.0113
19685TIP3   OH280545   1.480   6.222  13.060  0.2880 -0.4185 -0.1281
19685TIP3    H180546   1.542   6.272  13.113  2.1732  0.2125 -2.7330
19685TIP3    H280547   1.397   6.268  13.070  0.5250 -0.3735  2.2317
19686TIP3   OH280548   0.926   0.517  13.520  0.2539 -0.2568  0.5315
19686TIP3    H180549   1.013   0.487  13.548  0.6987 -0.6225 -1.1145
19686TIP3    H280550   0.924   0.498  13.426 -0.7244  1.8800  0.0711
19687TIP3   OH280551   0.618   4.613  16.612  0.1779  0.6603 -0.0904
19687TIP3    H180552   0.611   4.692  16.667  2.7182  1.2514 -0.5221
19687TIP3    H280553   0.615   4.646  16.522  0.8037  0.2151 -0.2746
19688TIP3   OH280554   5.215   5.815   2.092  0.0473 -0.4976  0.6678
19688TIP3    H180555   5.224   5.858   2.007 -0.1288  0.7442  1.2493
19688TIP3    H280556   5.282   5.747   2.092  1.9809  1.3171  0.6232
19689TIP3   OH280557   6.744   4.472   2.052 -0.5203  0.1724  0.1191
19689TIP3    H180558   6.673   4.444   1.994 -0.0293 -1.2513  0.1609
19689TIP3    H280559   6.706   4.541   2.106 -2.4353 -1.7456  1.3678
19690TIP3   OH280560   0.992   2.710   3.740 -0.2949  0.3005 -0.3185
19690TIP3    H180561   0.996   2.715   3.644 -0.8951 -2.4032 -0.5855
19690TIP3    H280562   1.057   2.644   3.763 -0.9359  0.1110  1.0346
19691TIP3   OH280563   6.126   6.811   5.844  0.1655 -0.3696  0.1606
19691TIP3    H180564   6.196   6.862   5.803 -1.7663  1.8611 -0.5939
19691TIP3    H280565   6.087   6.871   5.908 -1.5077 -1.2499  0.0335
19692TIP3   OH280566   4.995   6.085  12.195  0.1565  0.0845  0.0316
19692TIP3    H180567   5.072   6.088  12.250 -0.1809  0.9170  0.4763
19692TIP3    H280568   4.925   6.053  12.252  0.5080 -2.4720 -0.8227
19693TIP3   OH280569   4.860   6.079   4.537 -0.0530 -0.0567 -0.0595
19693TIP3    H180570   4.775   6.048   4.570 -0.5028  1.0410 -0.1674
19693TIP3    H280571   4.849   6.173   4.527  1.4428  0.2201  0.6949
19694TIP3   OH280572   3.198   1.249  13.822 -0.2955  0.6333  0.2127
19694TIP3    H180573   3.162   1.312  13.760  2.2998  1.7193 -0.3116
19694TIP3    H280574   3.266   1.203  13.774 -0.2763 -0.6681  1.4037
19695TIP3   OH280575   5.490   0.025   0.517 -0.5165  0.2185  0.0052
19695TIP3    H180576   5.476   0.021   0.423  0.3134  2.8864 -0.3084
19695TIP3    H280577   5.579  -0.008   0.530 -0.4526  0.3120 -0.2012
19696TIP3   OH280578   4.676   1.292  11.264  0.1556 -0.1923 -0.7216
19696TIP3    H180579   4.709   1.225  11.324  1.3731  0.5996 -0.4556
19696TIP3    H280580   4.658   1.367  11.321  4.1379  1.6470 -1.4780
19697TIP3   OH280581   1.845   2.940   4.510  0.0116  0.4748  0.6350
19697TIP3    H180582   1.771   2.991   4.543 -0.6323 -1.3254  2.1909
19697TIP3    H280583   1.806   2.861   4.473  0.9521  1.1664 -2.0826
19698TIP3   OH280584   6.463   3.459   4.771 -0.0143  0.0335 -0.1233
19698TIP3    H180585   6.469   3.394   4.841  1.9212  0.7104  0.3829
19698TIP3    H280586   6.467   3.543   4.815 -0.0824  0.4872 -0.9552
19699TIP3   OH280587   3.792   2.910   6.302  0.0851 -0.3671 -0.0251
19699TIP3    H180588   3.764   2.977   6.239 -0.1992  0.2207  0.7070
19699TIP3    H280589   3.885   2.897   6.284  0.4149  1.0382  0.5276
19700TIP3   OH280590   0.674   2.698   4.731 -0.1741 -0.5073 -0.0453
19700TIP3    H180591   0.749   2.639   4.717  0.2231  0.0241 -0.2097
19700TIP3    H280592   0.703   2.758   4.799  0.2082  0.7695 -1.2785
19701TIP3   OH280593   0.645   2.766  14.565 -0.1000 -0.9817 -0.0234
19701TIP3    H180594   0.662   2.690  14.620 -0.7645 -0.3779  1.0708
19701TIP3    H280595   0.707   2.832  14.596 -0.0526 -0.8319 -0.4347
19702TIP3   OH280596   1.205   5.249  16.742 -0.6132  0.2764 -0.4832
19702TIP3    H180597   1.249   5.318  16.792  1.0344  0.2034 -1.7731
19702TIP3    H280598   1.115   5.249  16.776 -0.1976  1.8719  0.7411
19703TIP3   OH280599   0.308   4.604  11.165  1.0532  0.3743 -0.0119
19703TIP3    H180600   0.283   4.518  11.132  2.8412  0.0683 -0.6882
19703TIP3    H280601   0.328   4.654  11.086  1.3437  0.9744  0.4344
19704TIP3   OH280602   6.543   5.482  16.156  0.0628  0.4177 -0.1565
19704TIP3    H180603   6.506   5.395  16.141  1.0399  0.0173 -0.3805
19704TIP3    H280604   6.634   5.465  16.179 -0.0185  1.3388  0.9099
19705TIP3   OH280605   0.639   0.402  10.353  0.3747 -0.6889 -0.6988
19705TIP3    H180606   0.596   0.341  10.413  0.1485 -2.5759 -2.6541
19705TIP3    H280607   0.733   0.388  10.368  0.3160 -0.5644 -0.2188
19706TIP3   OH280608   5.709   0.578  15.095 -0.3677  0.7226  0.0893
19706TIP3    H180609   5.769   0.620  15.157 -1.4557  1.6364  0.5765
19706TIP3    H280610   5.673   0.650  15.044 -2.9772  0.6170  1.5583
19707TIP3   OH280611   2.826   5.006   4.039  0.1974 -0.2007 -0.4526
19707TIP3    H180612   2.855   5.006   3.948  0.2727  1.1367 -0.4401
19707TIP3    H280613   2.887   5.063   4.084 -0.9172  0.6112  0.0762
19708TIP3   OH280614   2.881   4.644   5.555  0.3634 -0.2611 -0.4483
19708TIP3    H180615   2.813   4.591   5.595  0.8098 -1.7416 -1.5362
19708TIP3    H280616   2.836   4.722   5.523 -0.3371 -0.0079  1.0564
19709TIP3   OH280617   5.293   3.537   5.067  0.0264 -0.1018 -0.2906
19709TIP3    H180618   5.203   3.569   5.059  0.4359  1.1474 -0.2287
19709TIP3    H280619   5.340   3.609   5.111  0.6842 -1.4237  1.2600
19710TIP3   OH280620   4.566   0.642   5.193 -0.4047  0.3921 -0.2016
19710TIP3    H180621   4.504   0.679   5.256 -0.6595 -0.6623  0.1897
19710TIP3    H280622   4.651   0.650   5.237 -0.4466  0.5989 -0.1584
19711TIP3   OH280623   6.400   5.918  16.115  0.1503 -0.8695  0.1479
19711TIP3    H180624   6.469   5.929  16.049  1.1694 -1.6175  1.0594
19711TIP3    H280625   6.363   6.006  16.126  0.8699 -0.4783 -0.4525
19712TIP3   OH280626   6.498   2.722  11.947  0.1901 -0.7710 -0.1876
19712TIP3    H180627   6.567   2.784  11.925  1.1118 -1.7402 -0.1316
19712TIP3    H280628   6.518   2.694  12.037 -1.4932  0.4873  0.6430
19713TIP3   OH280629   3.088   1.157  13.491 -0.0499  0.4340  0.2604
19713TIP3    H180630   3.166   1.130  13.539 -0.0135  0.6597  0.3285
19713TIP3    H280631   3.065   1.081  13.437 -0.6013 -0.1413  1.2800
19714TIP3   OH280632   0.006   6.662   6.416 -0.4047 -0.5978 -0.3354
19714TIP3    H180633   0.019   6.573   6.448  0.2409 -1.6067 -3.1098
19714TIP3    H280634  -0.089   6.675   6.419 -0.7316 -2.2507 -1.9135
19715TIP3   OH280635   2.937   3.740   0.368  0.4818  0.0257 -0.3149
19715TIP3    H180636   3.015   3.794   0.351 -0.8269  2.2284  0.2792
19715TIP3    H280637   2.901   3.722   0.281  1.9249 -1.5424 -0.6438
19716TIP3   OH280638   1.929   3.475   3.143  0.6032 -0.3784 -0.3042
19716TIP3    H180639   1.860   3.414   3.170 -0.4642  0.1427 -1.6804
19716TIP3    H280640   2.010   3.436   3.175 -0.2026 -1.6846  0.2361
19717TIP3   OH280641   0.286   4.170   1.097 -0.0014  0.0336  0.1644
19717TIP3    H180642   0.232   4.149   1.173 -1.7921  3.5577  0.1107
19717TIP3    H280643   0.369   4.200   1.133 -0.1365 -0.1460  0.6225
19718TIP3   OH280644   1.496   3.560  12.672  0.3122 -0.4150 -0.1360
19718TIP3    H180645   1.466   3.586  12.759  0.0271 -0.9807 -0.0600
19718TIP3    H280646   1.570   3.501  12.689  0.3253 -0.4378 -0.2747
19719TIP3   OH280647   6.476   0.113   1.926  0.2178 -0.0648 -0.1142
19719TIP3    H180648   6.523   0.040   1.968  0.5199  0.4916  0.5386
19719TIP3    H280649   6.393   0.119   1.973  1.2451  1.6530  1.6375
19720TIP3   OH280650   6.250   3.584   6.060  0.1165  0.0357 -0.3519
19720TIP3    H180651   6.262   3.489   6.060  0.2768  0.0520  0.5665
19720TIP3    H280652   6.161   3.598   6.091  0.2190  0.1998 -0.1286
19721TIP3   OH280653   6.213   2.601   1.166  0.3409  0.2630  0.0828
19721TIP3    H180654   6.280   2.633   1.227  1.4603  0.1327 -1.0302
19721TIP3    H280655   6.263   2.571   1.090 -0.8980 -1.2503 -0.1672
19722TIP3   OH280656   5.943   5.699  13.137 -0.3207 -0.1016 -0.1790
19722TIP3    H180657   5.864   5.714  13.189  0.2915 -0.3592  0.8431
19722TIP3    H280658   6.009   5.755  13.177  0.0282  0.0892 -1.0120
19723TIP3   OH280659   1.131   4.619  15.946  0.5274  0.2780 -0.3594
19723TIP3    H180660   1.087   4.536  15.925 -1.6094  0.9011  1.2889
19723TIP3    H280661   1.061   4.683  15.949  1.5693  1.4504  1.9237
19724TIP3   OH280662   4.291   6.100   6.064 -0.2658 -0.0541 -0.1671
19724TIP3    H180663   4.292   6.005   6.052  0.5970 -0.2092  0.9960
19724TIP3    H280664   4.297   6.135   5.975 -0.3696 -1.0838 -0.6000
19725TIP3   OH280665   1.188   1.214  15.226 -0.6538  0.7863 -0.0690
19725TIP3    H180666   1.155   1.170  15.304 -2.2229 -0.2228 -1.2451
19725TIP3    H280667   1.162   1.305  15.237  2.1651  1.4678  2.1407
19726TIP3   OH280668   0.903   3.882  13.000  0.7051  0.1432  0.0628
19726TIP3    H180669   0.996   3.865  12.988  0.6833 -0.8484  1.1375
19726TIP3    H280670   0.887   3.867  13.093 -1.1380 -2.9412 -0.6074
19727TIP3   OH280671   0.549   4.069  16.468 -0.2616 -0.5615  0.0095
19727TIP3    H180672   0.551   4.157  16.430  1.6312 -1.6187 -2.7172
19727TIP3    H280673   0.473   4.027  16.428  0.0198 -0.7664 -0.3177
19728TIP3   OH280674   3.590   2.390  16.577 -0.1488  0.2713  0.4126
19728TIP3    H180675   3.628   2.425  16.657  0.3339  0.0632  0.2791
19728TIP3    H280676   3.551   2.307  16.603 -0.2687  0.3536  0.4944
19729TIP3   OH280677   0.996   4.867  15.994 -0.5116  0.1852 -0.5284
19729TIP3    H180678   0.997   4.891  16.087 -0.7892  0.1861 -0.5270
19729TIP3    H280679   0.910   4.893  15.963 -0.3059  0.4674 -0.8651
19730TIP3   OH280680   2.959   5.514  11.986  0.3530  0.1999 -0.5358
19730TIP3    H180681   3.019   5.572  12.032  1.2059 -0.2275 -1.0827
19730TIP3    H280682   2.877   5.518  12.037  0.0460  2.6170 -1.1335
19731TIP3   OH280683   3.904   1.592  16.844  0.1159 -0.3841 -0.0127
19731TIP3    H180684   3.968   1.661  16.828  0.8644 -1.1073 -0.1885
19731TIP3    H280685   3.940   1.515  16.801 -0.1992 -1.1514  1.0377
19732TIP3   OH280686   0.781   5.198   5.490  0.5898  0.0884 -0.1629
19732TIP3    H180687   0.763   5.193   5.396 -0.7852 -0.1180  0.0944
19732TIP3    H280688   0.837   5.276   5.499 -1.2483  1.5731 -0.8981
19733TIP3   OH280689   6.012   5.860  14.458 -0.0762  0.2574  0.1207
19733TIP3    H180690   5.976   5.830  14.374  2.4464  1.1991 -1.4199
19733TIP3    H280691   6.096   5.814  14.466 -1.1544 -1.4441  3.2650
19734TIP3   OH280692   6.211   2.094  11.514 -0.1056 -0.3632  0.2016
19734TIP3    H180693   6.147   2.156  11.480  0.7290 -0.6313 -2.0066
19734TIP3    H280694   6.296   2.129  11.488  0.4919 -1.4770  0.5630
19735TIP3   OH280695   3.523   1.628  12.429  0.3412 -0.2808 -0.4678
19735TIP3    H180696   3.606   1.620  12.382 -0.2238 -0.8317 -1.3988
19735TIP3    H280697   3.497   1.538  12.447  1.1843 -0.0801  2.1252
19736TIP3   OH280698   6.130   0.771  16.399 -0.2710  0.3855  0.3743
19736TIP3    H180699   6.225   0.770  16.388 -0.1706  0.9042  1.1454
19736TIP3    H280700   6.096   0.750  16.312  0.5425  0.3972  0.0437
19737TIP3   OH280701   3.166   1.199  15.767  0.1917 -0.3770  0.8921
19737TIP3    H180702   3.214   1.226  15.689  0.3448 -1.4082  0.6081
19737TIP3    H280703   3.226   1.214  15.839  0.2552  0.0634  0.7507
19738TIP3   OH280704   5.122   4.555  14.968 -0.3311 -0.2956 -0.3423
19738TIP3    H180705   5.142   4.636  15.015 -0.3697 -1.6152  2.1524
19738TIP3    H280706   5.041   4.573  14.921 -0.0573  1.2616 -0.2621
19739TIP3   OH280707   5.164   1.904  13.382  0.4732 -0.1152 -0.2184
19739TIP3    H180708   5.120   1.864  13.457  0.7798  0.8252  0.4861
19739TIP3    H280709   5.127   1.992  13.376  0.1058 -0.3387 -1.4815
19740TIP3   OH280710   1.732   3.290   3.169  0.0507 -0.1687  0.5346
19740TIP3    H180711   1.642   3.313   3.145  0.4132  0.2549 -0.5039
19740TIP3    H280712   1.725   3.248   3.255 -0.9690  1.1435  1.1204
19741TIP3   OH280713   3.209   5.195  11.465 -0.2653 -0.6650 -0.1036
19741TIP3    H180714   3.166   5.238  11.538 -0.8719 -0.8812 -0.3226
19741TIP3    H280715   3.168   5.108  11.461  0.8333 -1.2201  0.2465
19742TIP3   OH280716   4.463   6.580   3.152  0.1751  0.2202 -0.6340
19742TIP3    H180717   4.506   6.652   3.107  1.3731  1.1726  1.9057
19742TIP3    H280718   4.455   6.608   3.243 -1.8979 -1.7276 -0.0995
19743TIP3   OH280719   6.084   0.335  14.432  0.2116  0.0394  0.2172
19743TIP3    H180720   6.153   0.302  14.375 -0.2322 -2.2372  0.8739
19743TIP3    H280721   6.027   0.259  14.446 -1.8939  1.6016  0.4580
19744TIP3   OH280722   2.719   0.229   0.723 -0.2656 -0.2606  0.0771
19744TIP3    H180723   2.652   0.166   0.696  0.4065 -0.7758 -0.4470
19744TIP3    H280724   2.678   0.315   0.713 -0.4619 -0.5050 -1.3867
19745TIP3   OH280725   1.813   0.764  15.353 -0.4970 -0.2134 -0.1847
19745TIP3    H180726   1.830   0.681  15.397 -0.5320  0.2515  0.7280
19745TIP3    H280727   1.718   0.774  15.356 -0.5790 -0.6288 -1.2153
19746TIP3   OH280728   0.784   1.980   0.517 -0.2556  0.3103 -0.0706
19746TIP3    H180729   0.810   1.902   0.567 -1.4651 -1.1117 -1.5481
19746TIP3    H280730   0.780   2.050   0.582  1.9664 -0.5713  1.1208
19747TIP3   OH280731   0.367   0.627  11.190  0.4398  0.2876  0.1275
19747TIP3    H180732   0.292   0.670  11.232 -0.8065 -1.0798 -0.5972
19747TIP3    H280733   0.438   0.638  11.253 -0.5288  1.0804  1.1435
19748TIP3   OH280734   0.582   5.108   0.201 -0.3057 -0.2996  0.0811
19748TIP3    H180735   0.565   5.078   0.111 -0.5873 -0.7116  0.2708
19748TIP3    H280736   0.538   5.045   0.256 -3.2796  1.9031  0.4599
19749TIP3   OH280737   4.763   1.778  13.598  0.4062 -0.0410  0.6405
19749TIP3    H180738   4.766   1.831  13.517  0.3233  0.0993  0.7283
19749TIP3    H280739   4.728   1.838  13.664 -3.3803 -1.2046 -0.0467
19750TIP3   OH280740   6.541   0.896   4.949  0.2206 -0.1763 -0.3183
19750TIP3    H180741   6.554   0.916   4.857  3.8458  2.4597  0.4913
19750TIP3    H280742   6.592   0.816   4.964  1.4035  0.5373 -0.3364
19751TIP3   OH280743   2.855   5.733   0.920 -0.4620 -0.9528  0.8768
19751TIP3    H180744   2.877   5.693   0.836 -2.6036 -1.0911  0.3181
19751TIP3    H280745   2.919   5.803   0.931  0.3777 -1.4766 -0.4563
19752TIP3   OH280746   6.516   5.091  15.388 -0.0243  0.0501  0.5084
19752TIP3    H180747   6.541   5.179  15.361  0.8478  0.4039  2.3095
19752TIP3    H280748   6.469   5.055  15.312 -2.7599  2.9655  0.6178
19753TIP3   OH280749   2.042   3.635   0.147 -0.5019  0.3100  0.0016
19753TIP3    H180750   2.005   3.673   0.227  0.1423  2.4685 -0.6551
19753TIP3    H280751   2.077   3.710   0.099  0.6378 -1.1281 -1.5296
19754TIP3   OH280752   6.387   5.981   2.990 -0.1383 -0.2817  0.5276
19754TIP3    H180753   6.326   6.001   2.919  2.5505  2.5323 -1.2188
19754TIP3    H280754   6.348   5.905   3.033 -3.3397 -0.4501 -2.2024
19755TIP3   OH280755   5.531   1.073  13.581 -0.4199 -0.8703  0.3455
19755TIP3    H180756   5.618   1.078  13.542 -1.0289  1.3107 -0.8868
19755TIP3    H280757   5.508   0.980  13.575  0.7545 -1.0957 -1.7621
19756TIP3   OH280758   5.289   6.242   5.123 -0.2546 -0.0637  0.4874
19756TIP3    H180759   5.353   6.306   5.092 -1.5182  0.6553 -0.8046
19756TIP3    H280760   5.206   6.290   5.125 -0.9415 -1.2284  1.1079
19757TIP3   OH280761   1.481   3.041  12.951 -0.4079 -0.2925 -0.0234
19757TIP3    H180762   1.564   3.089  12.956 -0.3655 -0.3192 -0.4845
19757TIP3    H280763   1.463   3.016  13.042  0.5799 -1.1378 -0.0406
19758TIP3   OH280764   2.355   1.629  14.016 -0.4860  0.5149  0.4314
19758TIP3    H180765   2.411   1.552  14.022  0.7199  1.4068  0.9165
19758TIP3    H280766   2.274   1.596  13.977 -0.9245 -1.4749  2.7645
19759TIP3   OH280767   1.139   2.376   6.306 -0.0925 -0.1698  0.7943
19759TIP3    H180768   1.100   2.445   6.253  0.3863 -0.9247 -0.5952
19759TIP3    H280769   1.208   2.419   6.356 -0.7888  0.6275  1.0825
19760TIP3   OH280770   4.521   6.339   5.604 -0.0448  0.1557 -0.1823
19760TIP3    H180771   4.565   6.258   5.630  1.7948  1.0552 -0.2943
19760TIP3    H280772   4.566   6.408   5.653 -0.9896  1.2041 -0.7312
19761TIP3   OH280773   4.213   4.209  10.286  0.1716  0.3390 -0.3760
19761TIP3    H180774   4.157   4.151  10.338  1.3171  0.5522  1.1499
19761TIP3    H280775   4.152   4.270  10.244 -0.7914  0.2431  0.8308
19762TIP3   OH280776   2.338   0.491  13.781  0.1413 -0.6311  0.3193
19762TIP3    H180777   2.251   0.527  13.769  0.5646  0.1719 -0.5395
19762TIP3    H280778   2.347   0.479  13.875 -1.0291 -1.0977  0.3874
19763TIP3   OH280779   3.440   0.653  14.196  0.3074 -0.4678 -0.4813
19763TIP3    H180780   3.365   0.673  14.140 -0.1322  0.5523  0.4539
19763TIP3    H280781   3.514   0.648  14.135 -0.4688 -1.2970 -1.3838
19764TIP3   OH280782   0.878   1.461  14.437 -0.3412  0.2912 -0.0996
19764TIP3    H180783   0.854   1.375  14.472 -1.6698  1.1049  1.0857
19764TIP3    H280784   0.795   1.506  14.423  0.3338  2.2262  1.5343
19765TIP3   OH280785   5.691   6.013  13.825  0.6778 -0.0331 -0.3158
19765TIP3    H180786   5.718   6.104  13.828  0.6061  0.2685 -3.9482
19765TIP3    H280787   5.595   6.017  13.825  0.6747 -0.1091 -0.3885
19766TIP3   OH280788   1.669   6.282   5.522  0.2314 -0.3726  0.0709
19766TIP3    H180789   1.680   6.314   5.612 -0.1084 -1.6980  0.6189
19766TIP3    H280790   1.671   6.186   5.531  2.5801 -0.5668 -1.6296
19767TIP3   OH280791   3.511   3.203   0.028 -0.1401 -0.4649  0.4777
19767TIP3    H180792   3.473   3.188   0.114  1.3396 -0.3200  1.1824
19767TIP3    H280793   3.579   3.269   0.042  0.8737 -1.2389 -0.5796
19768TIP3   OH280794   6.272   3.534   4.220 -0.0081  0.1290 -0.4157
19768TIP3    H180795   6.322   3.598   4.271 -0.3486  0.6882 -0.7752
19768TIP3    H280796   6.210   3.498   4.283  0.8997 -0.6533  0.0663
19769TIP3   OH280797   5.162   1.330   0.155 -0.0617 -0.1043 -0.1578
19769TIP3    H180798   5.112   1.389   0.212 -1.1684 -1.4095  0.2860
19769TIP3    H280799   5.213   1.276   0.215 -0.5522 -0.8839 -0.4160
19770TIP3   OH280800   4.921   0.992  15.790  0.2073 -0.3002 -0.3363
19770TIP3    H180801   4.881   0.999  15.876  1.5002 -0.5981  0.3215
19770TIP3    H280802   5.013   0.973  15.808  0.3344 -1.2411 -1.7870
19771TIP3   OH280803   5.178   3.100   2.879 -0.1628 -0.7398 -0.7970
19771TIP3    H180804   5.186   3.007   2.900 -0.1464 -0.5414  0.1437
19771TIP3    H280805   5.182   3.144   2.964 -0.7610  0.0807 -1.1763
19772TIP3   OH280806   5.473   4.320   2.420 -0.0061  0.4568  0.2235
19772TIP3    H180807   5.425   4.343   2.341  0.5694 -1.0385 -0.5983
19772TIP3    H280808   5.405   4.313   2.488 -0.5929  1.0344 -0.2879
19773TIP3   OH280809   1.832   3.405  11.280 -0.2789  0.6002  0.2377
19773TIP3    H180810   1.801   3.447  11.199 -1.6482 -2.6047 -1.0730
19773TIP3    H280811   1.761   3.345  11.304  1.5693 -1.0750  1.8458
19774TIP3   OH280812   5.051   1.720  16.039  0.1327  0.2113 -0.3536
19774TIP3    H180813   5.053   1.731  16.134 -0.4118 -0.1669 -0.2919
19774TIP3    H280814   5.097   1.797  16.005  0.7037  0.1371  0.2276
19775TIP3   OH280815   3.564   4.652  14.725 -1.0148 -0.5033  0.1760
19775TIP3    H180816   3.514   4.578  14.758 -0.3465 -2.0914 -2.1411
19775TIP3    H280817   3.534   4.664  14.635  0.4582  0.5869 -0.2115
19776TIP3   OH280818   2.281   6.389   0.188 -0.6641 -0.2278  0.4090
19776TIP3    H180819   2.328   6.387   0.272 -2.8727 -0.2492  1.7232
19776TIP3    H280820   2.235   6.472   0.188  1.0348  0.8413 -1.9011
19777TIP3   OH280821   4.881   3.323  17.192  0.3509 -0.1977  0.2547
19777TIP3    H180822   4.926   3.286  17.267  1.4909  0.9530  0.1824
19777TIP3    H280823   4.949   3.334  17.125 -0.0943  1.1554 -0.0216
19778TIP3   OH280824   4.501   4.112  10.956  0.5020 -0.0269 -0.2573
19778TIP3    H180825   4.520   4.141  10.867 -1.0417  2.9663  0.2691
19778TIP3    H280826   4.526   4.019  10.956  1.5885  0.1208 -3.4410
19779TIP3   OH280827   2.688   4.717  16.091  0.1928  0.2897 -0.4536
19779TIP3    H180828   2.737   4.786  16.047 -0.7574  1.3106  0.0249
19779TIP3    H280829   2.630   4.764  16.151  1.2975 -1.0183  1.7722
19780TIP3   OH280830   0.028   0.742  16.364  0.0377  0.5890 -0.0453
19780TIP3    H180831  -0.036   0.686  16.408  0.8067  0.2358  0.6462
19780TIP3    H280832   0.094   0.760  16.431  0.2280  1.6514 -0.4980
19781TIP3   OH280833   4.420   3.439   1.889 -0.1187 -0.4629 -0.1298
19781TIP3    H180834   4.504   3.483   1.885  0.8542 -2.2827 -3.2046
19781TIP3    H280835   4.390   3.435   1.798 -4.1062  0.9865  0.9032
19782TIP3   OH280836   0.125   1.360   6.312 -0.3217 -0.0363  0.1774
19782TIP3    H180837   0.110   1.440   6.363 -2.3511 -0.0221 -0.3555
19782TIP3    H280838   0.076   1.293   6.359  1.4697 -1.0394  0.6854
19783TIP3   OH280839   5.194   6.728  11.214  0.4502 -0.6435 -0.0810
19783TIP3    H180840   5.183   6.823  11.214 -0.0094 -0.6774  0.9404
19783TIP3    H280841   5.169   6.702  11.303 -0.7069 -1.8634 -0.7365
19784TIP3   OH280842   4.540   2.346  11.438 -0.1544  0.1859 -0.2139
19784TIP3    H180843   4.457   2.395  11.436 -1.3878 -1.7609  0.2777
19784TIP3    H280844   4.579   2.368  11.522 -0.2355  0.9882 -0.3770
19785TIP3   OH280845   0.441   2.423   5.394  0.2272 -0.0363  0.0529
19785TIP3    H180846   0.449   2.504   5.344  2.2987  0.1919  0.6538
19785TIP3    H280847   0.447   2.450   5.486  0.1008 -0.7890  0.2911
19786TIP3   OH280848   0.183   6.354  14.489  0.5291  0.0493 -0.1993
19786TIP3    H180849   0.253   6.417  14.501 -0.7384  1.1845  1.8491
19786TIP3    H280850   0.206   6.281  14.547  0.2677  0.2328  0.1439
19787TIP3   OH280851   6.756   2.183   4.492 -0.0682  0.5441  0.3508
19787TIP3    H180852   6.722   2.157   4.406 -1.7383 -1.4590  1.5190
19787TIP3    H280853   6.709   2.263   4.514 -1.3738 -0.1881  0.3435
19788TIP3   OH280854   4.861   6.589   0.455 -0.0590 -0.1535 -0.2003
19788TIP3    H180855   4.894   6.679   0.453 -2.0965  0.6726  0.0764
19788TIP3    H280856   4.904   6.549   0.530 -0.0623  1.0167  0.4519
19789TIP3   OH280857   5.777   6.072   3.034 -0.3676  0.1542 -0.2242
19789TIP3    H180858   5.812   6.043   3.118 -1.3176 -0.1112  0.0962
19789TIP3    H280859   5.847   6.124   2.995  0.6448 -0.9439  0.0713
19790TIP3   OH280860   3.505   5.509   1.708 -0.3269 -0.4000  0.5164
19790TIP3    H180861   3.500   5.471   1.621  0.6519  1.1409 -0.2489
19790TIP3    H280862   3.556   5.446   1.759 -0.7197 -1.2061 -0.0560
19791TIP3   OH280863   2.271   1.023   6.526 -0.3666  0.5552 -0.0219
19791TIP3    H180864   2.301   1.040   6.436 -1.6481  0.2377 -0.5327
19791TIP3    H280865   2.332   1.072   6.581  2.5605 -1.8880 -0.8234
19792TIP3   OH280866   5.457   2.785  16.402 -0.8709  0.0603 -0.0185
19792TIP3    H180867   5.539   2.834  16.396 -0.0446 -1.2298  0.4099
19792TIP3    H280868   5.440   2.777  16.495 -0.3650 -1.4428 -0.0273
19793TIP3   OH280869   4.750   0.717   3.026 -0.0146  0.1245 -0.2296
19793TIP3    H180870   4.706   0.800   3.046  0.8463  0.9630 -1.6442
19793TIP3    H280871   4.821   0.711   3.090  0.7531  1.1776 -0.9545
19794TIP3   OH280872   4.484   6.166   4.253 -0.6620 -0.1384 -0.3920
19794TIP3    H180873   4.501   6.230   4.322 -0.2807 -0.7149  0.0575
19794TIP3    H280874   4.431   6.214   4.189 -0.4187  0.6138 -0.0499
19795TIP3   OH280875   0.363   6.416   4.004  0.3502  0.2921  0.0106
19795TIP3    H180876   0.329   6.392   4.091  0.6724  0.3324  0.1495
19795TIP3    H280877   0.406   6.336   3.973 -0.2024  0.1255 -0.3277
19796TIP3   OH280878   5.971   6.211   4.102 -0.3094 -0.1934 -0.0474
19796TIP3    H180879   6.017   6.162   4.169  0.6711  0.5862 -0.1271
19796TIP3    H280880   5.946   6.145   4.037 -0.7642 -0.8636  0.7836
19797TIP3   OH280881   4.879   4.068   4.842  0.1541 -0.2339  0.6441
19797TIP3    H180882   4.864   4.162   4.847  0.2136 -0.2282  0.7264
19797TIP3    H280883   4.805   4.029   4.890 -1.3597 -0.3667 -1.6194
19798TIP3   OH280884   5.363   0.950   2.388 -0.5038  0.5797 -0.4524
19798TIP3    H180885   5.445   0.900   2.384 -1.9983 -2.2361  0.9474
19798TIP3    H280886   5.352   0.970   2.481 -1.3120  1.1303 -0.6579
19799TIP3   OH280887   6.545   3.744  14.856  0.1884 -0.0313  0.0324
19799TIP3    H180888   6.564   3.761  14.949  1.1894 -1.2469  0.0740
19799TIP3    H280889   6.506   3.656  14.856  2.6252 -1.1800 -0.9234
19800TIP3   OH280890   3.584   4.964   2.656  0.2856  0.0365  0.8227
19800TIP3    H180891   3.584   4.902   2.582 -0.5169  1.6275 -0.6007
19800TIP3    H280892   3.625   4.916   2.728 -0.7070 -2.3005 -0.0607
19801TIP3   OH280893   1.552   1.593   1.197  0.0526  0.1052 -0.1962
19801TIP3    H180894   1.646   1.582   1.213 -0.2625  0.7153  2.4451
19801TIP3    H280895   1.548   1.656   1.125  1.6398 -0.9231 -1.2571
19802TIP3   OH280896   5.026   4.204   3.285  0.2687 -0.6428 -0.2118
19802TIP3    H180897   5.077   4.273   3.244 -0.0279 -0.2596  0.0564
19802TIP3    H280898   5.028   4.224   3.378 -0.7964 -0.3249 -0.2452
19803TIP3   OH280899   4.981   2.894   0.690  0.1433 -0.6233  0.7391
19803TIP3    H180900   4.944   2.807   0.677  0.9043 -0.6839 -1.6612
19803TIP3    H280901   4.931   2.950   0.631  1.0669  0.1103  0.6222
19804TIP3   OH280902   3.918   1.803  13.440  0.0161  0.3395 -0.3162
19804TIP3    H180903   3.930   1.724  13.492  2.3788  0.2527 -0.8850
19804TIP3    H280904   3.950   1.874  13.496 -3.3523  1.1886  0.7381
19805TIP3   OH280905   5.284   2.561  15.117 -0.8782  0.3898  0.4767
19805TIP3    H180906   5.239   2.588  15.198 -1.1380 -1.1904  0.9019
19805TIP3    H280907   5.213   2.541  15.056 -0.6915  0.9254  0.0788
19806TIP3   OH280908   5.164   0.930   0.984 -0.2930 -0.0669 -0.3021
19806TIP3    H180909   5.095   0.974   1.032  0.0083 -1.6719  1.7909
19806TIP3    H280910   5.244   0.949   1.034  0.2434 -0.7938 -0.8487
19807TIP3   OH280911   6.063   2.298  11.357 -0.3582  0.9633 -0.4846
19807TIP3    H180912   6.102   2.287  11.270  0.1105 -1.2078 -0.0685
19807TIP3    H280913   5.969   2.303  11.341 -0.2550  0.8754 -1.1493
19808TIP3   OH280914   0.963   4.376   1.408 -0.3205  0.1876 -0.1915
19808TIP3    H180915   0.964   4.458   1.456  0.2914  0.2770 -0.3496
19808TIP3    H280916   1.044   4.377   1.356 -0.8320 -0.0230 -1.0148
19809TIP3   OH280917   0.623   4.952   3.524  0.2800 -0.0663  0.7290
19809TIP3    H180918   0.638   4.986   3.435 -0.8661 -1.6593 -0.1155
19809TIP3    H280919   0.581   5.025   3.570  2.4877  1.4050  0.5592
19810TIP3   OH280920   0.734   6.277  15.084 -0.0538 -0.0244  0.5012
19810TIP3    H180921   0.744   6.214  15.156 -0.8457  1.4500  1.9710
19810TIP3    H280922   0.748   6.362  15.125  2.8248  0.7714 -1.7829
19811TIP3   OH280923   5.774   4.802   0.171  0.6213 -0.0197 -0.5315
19811TIP3    H180924   5.769   4.707   0.166 -0.0375  0.0364 -1.0693
19811TIP3    H280925   5.685   4.830   0.194  0.3174  0.5613 -2.2477
19812TIP3   OH280926   5.622   5.990   0.614 -0.8904  0.2930 -0.3114
19812TIP3    H180927   5.572   5.917   0.651  0.3677 -0.7506 -0.6229
19812TIP3    H280928   5.590   6.067   0.661 -2.6271 -0.3517 -0.3442
19813TIP3   OH280929   4.296   5.771   1.961 -0.5147  0.6831 -0.1355
19813TIP3    H180930   4.269   5.785   1.870  0.3450  1.8587 -0.2323
19813TIP3    H280931   4.378   5.819   1.970 -0.4492  0.3754  1.2027
19814TIP3   OH280932   0.015   1.156   6.134  0.1471  0.3045 -0.6531
19814TIP3    H180933   0.104   1.156   6.099  0.3169 -1.5138 -0.3132
19814TIP3    H280934   0.006   1.072   6.178 -0.9511  1.4025  1.4182
19815TIP3   OH280935   6.572   5.994   5.947 -0.3107 -0.1816  0.0502
19815TIP3    H180936   6.651   6.019   5.898  0.4526  0.3816  1.4944
19815TIP3    H280937   6.502   6.047   5.908  0.2316  0.0767 -0.5883
19816TIP3   OH280938   3.491   3.537  16.504 -0.0157 -0.4026 -0.5213
19816TIP3    H180939   3.441   3.474  16.556 -0.0466 -0.0728 -0.1481
19816TIP3    H280940   3.576   3.495  16.490  0.0846 -0.3870  0.0152
19817TIP3   OH280941   2.523   3.382   3.030  0.4502 -0.0227 -0.1301
19817TIP3    H180942   2.618   3.369   3.028  0.4894  0.3388 -1.0989
19817TIP3    H280943   2.510   3.455   3.090  0.9969  1.4767 -1.7534
19818TIP3   OH280944   3.015   0.215   1.800 -0.4074 -0.3197  0.1833
19818TIP3    H180945   3.081   0.177   1.742 -1.5193 -1.3731 -0.4427
19818TIP3    H280946   2.942   0.237   1.742 -0.8384  0.2843  0.9358
19819TIP3   OH280947   0.044   0.667   2.715 -0.2689 -0.5254  0.1828
19819TIP3    H180948   0.016   0.579   2.691  0.3929 -0.8965  0.7080
19819TIP3    H280949   0.101   0.695   2.643 -1.3473 -0.0679 -0.5207
19820TIP3   OH280950   2.803   5.708   3.867  0.5753 -0.6669 -0.2688
19820TIP3    H180951   2.887   5.689   3.825  0.2605 -2.4525 -0.1582
19820TIP3    H280952   2.796   5.644   3.938 -0.6814 -0.2505  0.0084
19821TIP3   OH280953   3.374   3.769  12.007 -0.3851  0.6541 -0.1421
19821TIP3    H180954   3.303   3.808  11.956 -0.0925 -0.8217 -1.7830
19821TIP3    H280955   3.334   3.691  12.047  0.3716 -0.4583 -1.4692
19822TIP3   OH280956   6.667   2.513   0.942  0.3972 -0.4230  0.3807
19822TIP3    H180957   6.738   2.567   0.906  0.8182 -0.8626  0.5490
19822TIP3    H280958   6.640   2.458   0.868 -0.6565  0.6247 -0.0663
19823TIP3   OH280959   4.005   0.064  16.922  0.2766  0.2942  0.6521
19823TIP3    H180960   3.985   0.046  17.014 -1.1820  1.4198  0.6077
19823TIP3    H280961   4.087   0.018  16.905  0.8999  0.5655  2.6832
19824TIP3   OH280962   3.309   6.739  12.181 -0.4578 -0.0924  0.0694
19824TIP3    H180963   3.270   6.811  12.231  0.7561 -0.7596  2.0817
19824TIP3    H280964   3.317   6.773  12.092 -1.0542  1.7990  0.6968
19825TIP3   OH280965   5.286   1.678  13.273  0.3412 -0.3652  0.5714
19825TIP3    H180966   5.241   1.759  13.299 -1.3587 -1.0697 -0.0369
19825TIP3    H280967   5.377   1.692  13.298 -0.2492  1.0298  2.1050
19826TIP3   OH280968   0.857   3.564   2.880 -0.1530  0.2998 -0.0638
19826TIP3    H180969   0.807   3.559   2.961  0.8168  1.5060  0.6576
19826TIP3    H280970   0.897   3.477   2.870 -1.0557 -0.1552  0.2145
19827TIP3   OH280971   2.889   3.224  17.080  0.8035 -0.2866 -0.4172
19827TIP3    H180972   2.836   3.260  17.009  0.2662 -0.1409  0.0542
19827TIP3    H280973   2.906   3.298  17.138  0.2163 -0.6468  0.2355
19828TIP3   OH280974   6.455   3.048   0.170 -0.2134 -0.2085  0.4054
19828TIP3    H180975   6.547   3.046   0.141 -0.6006 -0.0321 -0.9052
19828TIP3    H280976   6.406   3.076   0.092 -1.4828 -1.2419  0.7883
19829TIP3   OH280977   1.643   4.609   2.936 -0.0508 -0.0384 -0.4862
19829TIP3    H180978   1.677   4.678   2.993 -1.5315  2.5322 -2.4707
19829TIP3    H280979   1.719   4.579   2.887  0.3161  1.7466 -1.0751
19830TIP3   OH280980   5.754   4.080  12.832 -0.4504 -0.4068 -0.0033
19830TIP3    H180981   5.681   4.090  12.771  1.4203  0.7084 -2.2025
19830TIP3    H280982   5.777   3.988  12.827 -1.1540 -0.5944  0.0696
19831TIP3   OH280983   6.495   6.291   5.938 -0.1281 -0.4317 -0.4673
19831TIP3    H180984   6.401   6.313   5.935  0.0051  0.4316  0.7969
19831TIP3    H280985   6.516   6.263   5.849 -1.7922 -1.5130 -0.5615
19832TIP3   OH280986   2.544   1.438  11.665  0.3278  0.0687  0.2648
19832TIP3    H180987   2.494   1.356  11.665  1.5281 -0.6904 -0.0458
19832TIP3    H280988   2.614   1.424  11.729  0.3800  0.9509  0.4053
19833TIP3   OH280989   2.048   0.450   5.643 -0.0848  0.1049  0.3282
19833TIP3    H180990   1.965   0.462   5.596 -0.3102  2.0038  1.0922
19833TIP3    H280991   2.113   0.495   5.589  0.1153  0.1219  0.5808
19834TIP3   OH280992   4.986   4.815   0.915 -0.5707 -0.1689  0.6452
19834TIP3    H180993   5.050   4.869   0.868 -1.5274  0.8517  0.4801
19834TIP3    H280994   5.013   4.822   1.007 -0.2468 -0.0088  0.5415
19835TIP3   OH280995   5.217   2.790  12.676 -0.2680 -0.5835 -0.2126
19835TIP3    H180996   5.232   2.836  12.593  0.9711 -1.6147 -0.5874
19835TIP3    H280997   5.249   2.850  12.743 -2.0023  0.6050 -0.3562
19836TIP3   OH280998   5.812   2.171  11.247  0.2373  0.0676  0.1904
19836TIP3    H180999   5.819   2.102  11.181  2.3427 -0.2127  0.6276
19836TIP3    H281000   5.783   2.126  11.326 -1.0323  0.1854 -0.1843
19837TIP3   OH281001   5.448   5.528  13.289  0.0073  0.3363  0.3577
19837TIP3    H181002   5.442   5.450  13.345 -2.2158  0.8586  0.9711
19837TIP3    H281003   5.475   5.598  13.348  3.2959 -0.0986 -0.4442
19838TIP3   OH281004   5.121   2.618  15.317 -0.0294 -0.1429  0.8782
19838TIP3    H181005   5.139   2.688  15.380  0.3110 -0.3543  1.0172
19838TIP3    H281006   5.034   2.587  15.340 -0.0163 -0.0363  1.0728
19839TIP3   OH281007   6.662   1.118  14.167  0.2018 -0.3696  0.7905
19839TIP3    H181008   6.736   1.130  14.227  1.7138  0.4685 -1.1085
19839TIP3    H281009   6.697   1.145  14.082 -2.1870 -0.4202 -0.2649
19840TIP3   OH281010   4.336   3.415   3.477 -1.0003  0.4498  0.2428
19840TIP3    H181011   4.353   3.359   3.553 -1.4933  0.8080  0.6210
19840TIP3    H281012   4.422   3.445   3.450 -0.7066 -0.6799 -0.1081
19841TIP3   OH281013   0.933   4.175   4.633  0.0170 -0.2979  0.1269
19841TIP3    H181014   1.003   4.149   4.693  0.4035  1.2029  0.3779
19841TIP3    H281015   0.856   4.128   4.664  0.8224 -1.7099  0.0639
19842TIP3   OH281016   1.448   5.503  14.283 -0.0501 -0.6188 -0.0977
19842TIP3    H181017   1.367   5.453  14.285  0.4433 -1.4099  1.4595
19842TIP3    H281018   1.516   5.438  14.302  0.6795  0.5059  1.2583
19843TIP3   OH281019   6.750   4.307   5.537 -0.0667 -0.3731 -0.3193
19843TIP3    H181020   6.720   4.302   5.446 -1.6757  1.1759  0.0602
19843TIP3    H281021   6.844   4.328   5.530 -0.2704  0.2044 -1.6263
19844TIP3   OH281022   5.167   3.171   1.117 -0.4430 -0.9242  0.0917
19844TIP3    H181023   5.073   3.170   1.133 -0.0585 -0.8495  2.9077
19844TIP3    H281024   5.203   3.227   1.186  1.6042 -0.0625 -1.5455
19845TIP3   OH281025   1.043   5.312  14.556  0.2313  0.1497  0.2584
19845TIP3    H181026   1.001   5.228  14.578  0.1176 -0.5120 -2.2223
19845TIP3    H281027   1.053   5.356  14.641 -1.8121 -1.3755  1.4023
19846TIP3   OH281028   6.794   5.330  15.873  0.6204  0.1961  0.4325
19846TIP3    H181029   6.765   5.417  15.847  1.4485  0.2817 -0.2899
19846TIP3    H281030   6.886   5.328  15.847  0.3376 -1.2648 -0.5601
19847TIP3   OH281031   2.907   3.383  15.241 -0.5269 -0.0539 -0.2413
19847TIP3    H181032   2.914   3.408  15.333 -0.5938 -1.7028  0.2352
19847TIP3    H281033   2.996   3.361  15.215 -0.4058  0.9872 -0.7685
19848TIP3   OH281034   0.510   2.677  11.258 -0.4027 -0.2170  0.7924
19848TIP3    H181035   0.525   2.750  11.198  0.2835 -1.5269 -0.7296
19848TIP3    H281036   0.597   2.641  11.275 -0.8876 -2.4309 -0.8914
19849TIP3   OH281037   2.985   3.311   4.907 -0.0623 -0.2544 -0.1118
19849TIP3    H181038   2.949   3.398   4.889  1.6450  0.5474  0.1881
19849TIP3    H281039   2.999   3.310   5.001  2.3551  0.2008 -0.3880
19850TIP3   OH281040   0.603   3.591  15.374  0.4418 -0.1998 -0.6491
19850TIP3    H181041   0.558   3.605  15.291 -2.4352 -0.8746  0.7005
19850TIP3    H281042   0.608   3.496  15.383  1.8937 -0.1482 -0.5871
19851TIP3   OH281043   0.147   2.575  11.589 -0.1560 -0.2469 -0.5982
19851TIP3    H181044   0.052   2.589  11.593 -0.0927  0.7418 -1.9498
19851TIP3    H281045   0.184   2.642  11.645 -0.2073  0.2320 -1.1282
19852TIP3   OH281046   2.237   1.158  17.197 -0.2510 -0.3253 -0.0823
19852TIP3    H181047   2.329   1.176  17.218 -0.2990  0.4311 -0.5097
19852TIP3    H281048   2.195   1.243  17.195 -1.6322 -0.8236  3.0009
19853TIP3   OH281049   3.941   3.970  15.316  0.2161  0.3738  0.0049
19853TIP3    H181050   4.011   3.970  15.251  0.5599  0.6504  0.3656
19853TIP3    H281051   3.879   3.904  15.285  0.2797  0.6383 -0.6994
19854TIP3   OH281052   6.776   6.458  12.803  0.2415 -0.9859 -0.0426
19854TIP3    H181053   6.704   6.498  12.852  1.6767 -1.2830  2.4865
19854TIP3    H281054   6.733   6.412  12.731 -2.1684 -1.4300  1.5529
19855TIP3   OH281055   6.072   1.952   3.140  0.7419  0.6606 -1.1855
19855TIP3    H181056   6.001   1.894   3.112  0.9123  0.5122 -1.3170
19855TIP3    H281057   6.127   1.896   3.196  0.8007  0.7497 -1.1547
19856TIP3   OH281058   6.288   2.044   6.158  0.4647  0.4349  0.2982
19856TIP3    H181059   6.259   2.031   6.248  3.0438  0.3123  1.1758
19856TIP3    H281060   6.349   1.973   6.142 -0.7405 -0.1867 -1.9797
19857TIP3   OH281061   5.295   4.624   1.108 -0.2716 -0.3734 -0.5577
19857TIP3    H181062   5.337   4.643   1.024  0.2675  3.0954  0.3545
19857TIP3    H281063   5.354   4.660   1.173 -1.5930 -1.2741  1.2099
19858TIP3   OH281064   5.023   6.428   1.319 -0.5643 -0.7661 -0.1738
19858TIP3    H181065   5.092   6.441   1.384  1.6529 -2.2941 -2.0416
19858TIP3    H281066   5.041   6.494   1.252 -1.9978 -0.0957  0.0517
19859TIP3   OH281067   2.660   0.353   3.019 -0.0199 -0.3326  0.0229
19859TIP3    H181068   2.575   0.378   2.981 -0.1207  0.1812  0.5622
19859TIP3    H281069   2.701   0.437   3.042  0.4471 -0.5984  0.1737
19860TIP3   OH281070   3.782   0.232  14.824  0.3065 -0.0590 -0.4061
19860TIP3    H181071   3.740   0.255  14.907 -1.2447  0.8872 -1.3835
19860TIP3    H281072   3.737   0.153  14.795 -0.5011  0.6603 -1.2036
19861TIP3   OH281073   0.574   1.379  11.424  0.1110  0.4286 -0.2018
19861TIP3    H181074   0.494   1.365  11.475 -0.6346 -1.8921 -1.8249
19861TIP3    H281075   0.643   1.338  11.476 -0.6324 -1.8602 -0.8854
19862TIP3   OH281076   6.067   5.473   4.784 -0.5419  0.0543  0.4953
19862TIP3    H181077   6.139   5.447   4.727 -1.6955 -0.6152 -0.7363
19862TIP3    H281078   6.104   5.471   4.872  0.6164 -1.5439  0.0378
19863TIP3   OH281079   4.323   5.161   2.745  1.0748 -0.2224  0.0404
19863TIP3    H181080   4.232   5.186   2.729  1.2078 -0.3589 -1.0055
19863TIP3    H281081   4.346   5.106   2.671  2.0873  0.0027  0.1739
19864TIP3   OH281082   4.702   5.177  16.406 -0.6880 -0.4128  0.5632
19864TIP3    H181083   4.710   5.082  16.408 -0.5971 -0.4840 -1.6124
19864TIP3    H281084   4.685   5.198  16.314  0.7874  1.7996  0.7361
19865TIP3   OH281085   5.004   5.265  12.701  0.0297 -0.7241 -0.1584
19865TIP3    H181086   5.084   5.214  12.687 -0.2647 -1.8186  1.7812
19865TIP3    H281087   4.936   5.199  12.717 -0.4809  0.2120  1.8250
19866TIP3   OH281088   0.060   4.994   5.645  0.5152  0.3098  0.3453
19866TIP3    H181089  -0.001   5.056   5.686 -1.0781  0.2052 -1.7107
19866TIP3    H281090   0.003   4.927   5.608  1.8963  0.0799 -1.4632
19867TIP3   OH281091   4.712   1.234   3.488  0.9686  0.1373 -0.2014
19867TIP3    H181092   4.706   1.207   3.397 -0.4978 -0.8071  0.1484
19867TIP3    H281093   4.806   1.246   3.503  1.7170 -3.7478 -0.7392
19868TIP3   OH281094   0.702   0.928  16.789 -0.6351  0.3030  0.9886
19868TIP3    H181095   0.760   0.870  16.838 -0.2239  0.3805  0.6015
19868TIP3    H281096   0.614   0.896  16.808 -0.4041 -0.5186  0.6959
19869TIP3   OH281097   3.438   1.908  16.753 -0.5154  0.1431  0.5448
19869TIP3    H181098   3.527   1.912  16.786 -0.3813 -0.2220  0.2354
19869TIP3    H281099   3.383   1.920  16.831 -0.2055 -0.3283  0.8378
19870TIP3   OH281100   1.114   3.555   5.142  0.0993  0.6685  0.0383
19870TIP3    H181101   1.054   3.613   5.095  1.1774  2.5193  0.8224
19870TIP3    H281102   1.127   3.597   5.227 -0.1075 -1.4580  1.1978
19871TIP3   OH281103   5.291   6.453   3.680 -0.5721  0.2768  0.6856
19871TIP3    H181104   5.237   6.531   3.691 -1.5544 -0.1517 -0.8003
19871TIP3    H281105   5.235   6.381   3.708  0.5040  0.0733  2.5524
19872TIP3   OH281106   3.211   3.986   6.541 -0.1569  0.2265 -0.3679
19872TIP3    H181107   3.298   3.947   6.535 -0.6217 -0.6345 -2.4740
19872TIP3    H281108   3.227   4.076   6.570  1.3049 -0.2668  0.4395
19873TIP3   OH281109   2.690   1.007   1.890 -0.1557 -0.6804 -0.4344
19873TIP3    H181110   2.671   0.922   1.851  0.3182 -0.9149 -0.1554
19873TIP3    H281111   2.606   1.054   1.886 -1.3913 -2.3560  2.4394
19874TIP3   OH281112   1.614   1.371   5.630  0.3149 -0.1599  0.2515
19874TIP3    H181113   1.665   1.369   5.549  0.3916 -1.0117  0.3108
19874TIP3    H281114   1.679   1.356   5.699  0.0503 -0.8720  0.3553
19875TIP3   OH281115   0.993   1.130  17.022  0.2818  0.4238  0.5128
19875TIP3    H181116   0.932   1.174  16.964 -1.3196 -0.7035  1.2734
19875TIP3    H281117   1.044   1.073  16.964 -0.9671 -0.3361  0.1255
19876TIP3   OH281118   2.687   5.222  12.980  0.2821  0.0019 -0.1052
19876TIP3    H181119   2.665   5.313  12.959 -1.7771 -0.2303  0.7955
19876TIP3    H281120   2.706   5.223  13.074 -0.2862 -0.5833  0.0183
19877TIP3   OH281121   5.667   0.642   0.854  0.5360 -0.0301 -0.5791
19877TIP3    H181122   5.609   0.696   0.800  0.1105 -0.2823 -0.3817
19877TIP3    H281123   5.636   0.553   0.840  1.7535 -0.3245 -1.5315
19878TIP3   OH281124   3.204   0.423   5.391 -0.2871  0.7117  0.1914
19878TIP3    H181125   3.149   0.359   5.346  0.7338 -0.7958  0.9691
19878TIP3    H281126   3.280   0.372   5.420 -0.5563  1.7225  2.9768
19879TIP3   OH281127   0.398   2.893  14.546 -0.5680  0.5801  0.5467
19879TIP3    H181128   0.435   2.962  14.602  2.5518 -0.1268 -0.4480
19879TIP3    H281129   0.450   2.816  14.567 -3.5150 -1.4013  1.0995
19880TIP3   OH281130   2.496   1.673  12.280 -0.0078  0.5676 -0.5441
19880TIP3    H181131   2.461   1.599  12.231 -0.3901  1.6934 -2.0520
19880TIP3    H281132   2.576   1.697  12.233  1.7539 -0.6411  1.6198
19881TIP3   OH281133   1.821   3.775  13.050 -0.0932  0.0502  0.4335
19881TIP3    H181134   1.861   3.846  13.100 -2.2467  0.8670  1.1518
19881TIP3    H281135   1.772   3.725  13.116  0.0112 -1.0941 -0.3308
19882TIP3   OH281136   0.676   0.316   6.141  0.6049  0.2823  0.2969
19882TIP3    H181137   0.767   0.314   6.172  1.3072 -0.9546 -1.6482
19882TIP3    H281138   0.647   0.225   6.148 -0.5324  0.6697  0.9086
19883TIP3   OH281139   2.138   5.841   4.671  0.5381 -0.1708 -0.4028
19883TIP3    H181140   2.058   5.792   4.653  0.4830 -0.4207  0.4882
19883TIP3    H281141   2.111   5.933   4.664  0.5532 -0.2466 -1.6885
19884TIP3   OH281142   6.389   2.683  15.887 -0.1368  0.5916 -0.4866
19884TIP3    H181143   6.469   2.694  15.836  0.2269 -1.3322 -0.3884
19884TIP3    H281144   6.319   2.680  15.821  0.3433 -2.0245 -1.0032
19885TIP3   OH281145   3.416   5.129   5.239 -0.3628  0.6796  0.4041
19885TIP3    H181146   3.334   5.111   5.193 -0.6145  1.8518  0.3472
19885TIP3    H281147   3.457   5.043   5.250 -0.7257  0.2764 -1.1749
19886TIP3   OH281148   6.047   4.490  12.112 -0.0538 -0.3829 -0.1490
19886TIP3    H181149   5.977   4.487  12.047  0.1518 -0.3566 -0.3720
19886TIP3    H281150   6.076   4.581  12.112 -1.3601  0.0854  1.3826
19887TIP3   OH281151   5.593   1.921   3.356  0.3815 -0.4293 -0.1218
19887TIP3    H181152   5.506   1.954   3.334 -0.4350 -2.1974  0.2733
19887TIP3    H281153   5.638   1.914   3.272 -0.4888 -1.1466 -0.5457
19888TIP3   OH281154   4.317   4.417  15.265  0.0643 -0.0594  0.0117
19888TIP3    H181155   4.282   4.492  15.314  2.7871  0.7327  0.9157
19888TIP3    H281156   4.340   4.454  15.180  0.8556  0.0235  0.2522
19889TIP3   OH281157   5.171   2.155  16.385 -0.1537  0.1874 -0.1170
19889TIP3    H181158   5.089   2.191  16.351 -0.8877 -0.5757  0.7909
19889TIP3    H281159   5.147   2.114  16.468  0.7590 -1.8223 -0.7805
19890TIP3   OH281160   5.673   5.696   3.027  0.1735 -0.0797  0.2364
19890TIP3    H181161   5.737   5.698   3.098  0.1052 -0.2105  0.3019
19890TIP3    H281162   5.605   5.758   3.056 -0.5013 -1.1014  0.9045
19891TIP3   OH281163   0.379   3.978   3.978 -0.3552  0.1253  0.5831
19891TIP3    H181164   0.375   4.062   3.931  0.2683 -1.3027 -2.2453
19891TIP3    H281165   0.463   3.940   3.951 -1.1288 -1.9030  0.9147
19892TIP3   OH281166   0.932   3.180   2.163 -0.0061  0.0607 -0.0355
19892TIP3    H181167   0.901   3.195   2.253 -1.9846 -1.9241 -0.3039
19892TIP3    H281168   1.008   3.123   2.173  1.9537  2.5503  0.4641
19893TIP3   OH281169   0.050   3.565  15.761  1.1246  0.5314 -0.0988
19893TIP3    H181170   0.108   3.522  15.698 -0.7093 -0.2040 -1.3529
19893TIP3    H281171  -0.025   3.507  15.768 -0.6906  2.6994 -0.5502
19894TIP3   OH281172   6.776   5.071   4.672 -0.2330  0.6701  0.4375
19894TIP3    H181173   6.726   5.000   4.712 -0.2190  0.9200  0.9011
19894TIP3    H281174   6.757   5.064   4.578 -1.3741  0.9633  0.6418
19895TIP3   OH281175   2.479   6.201  14.032  0.6095 -0.8986 -0.2338
19895TIP3    H181176   2.526   6.226  14.112  0.1889  1.8668 -0.7371
19895TIP3    H281177   2.388   6.224  14.050  0.7422  1.3279 -1.9852
19896TIP3   OH281178   1.393   0.889  11.294 -0.4417  0.0278  0.3064
19896TIP3    H181179   1.357   0.811  11.252 -0.9214  0.8364 -0.8386
19896TIP3    H281180   1.324   0.918  11.354 -0.4921 -0.1004  0.3100
19897TIP3   OH281181   5.536   4.257   6.144 -0.0213  0.0469 -0.3537
19897TIP3    H181182   5.523   4.165   6.120 -0.8761  0.3101 -0.9215
19897TIP3    H281183   5.483   4.268   6.223 -0.5121  0.2287 -0.7007
19898TIP3   OH281184   2.332   3.671  17.081 -0.1438 -0.1781 -0.5674
19898TIP3    H181185   2.358   3.676  17.173  0.2698  0.1667 -0.6988
19898TIP3    H281186   2.247   3.714  17.078  0.1676  0.4491 -0.4651
19899TIP3   OH281187   3.261   1.832   2.555 -0.3158  0.2557 -0.1610
19899TIP3    H181188   3.230   1.901   2.496  1.8843 -0.9545 -2.9290
19899TIP3    H281189   3.183   1.779   2.573 -1.3248  1.4714 -0.8286
19900TIP3   OH281190   6.313   6.397   1.753  0.3432  0.2534  0.0413
19900TIP3    H181191   6.259   6.467   1.717 -1.7182 -0.9417  0.6539
19900TIP3    H281192   6.301   6.324   1.691  0.2755 -0.4164  0.8292
19901TIP3   OH281193   3.860   6.127   2.550 -0.8825  0.4885 -0.3606
19901TIP3    H181194   3.804   6.203   2.567 -1.0200  0.1790  0.6556
19901TIP3    H281195   3.858   6.078   2.632  0.3322  0.1103 -0.5496
19902TIP3   OH281196   6.465   5.609  15.937 -0.6823 -0.8716 -0.1518
19902TIP3    H181197   6.538   5.607  15.875  0.4179  0.9180  0.9915
19902TIP3    H281198   6.499   5.568  16.016 -0.6702  0.4689  0.5812
19903TIP3   OH281199   4.448   4.300  16.790  0.3244 -0.3221 -0.3407
19903TIP3    H181200   4.531   4.345  16.775  0.6350 -0.8759 -0.3181
19903TIP3    H281201   4.460   4.258  16.875  0.3183 -1.0616 -0.7024
19904TIP3   OH281202   0.592   0.326  14.440 -0.2598  0.1519  0.3652
19904TIP3    H181203   0.611   0.246  14.488 -0.1742 -0.7248 -1.0694
19904TIP3    H281204   0.521   0.367  14.489 -0.3718 -0.8554  1.0686
19905TIP3   OH281205   2.299   6.042   3.095 -0.3466 -0.2916 -0.0264
19905TIP3    H181206   2.290   6.038   3.190 -1.2947  0.2817 -0.0802
19905TIP3    H281207   2.230   6.101   3.067  0.4309  0.1821 -1.0064
19906TIP3   OH281208   5.229   2.023   4.562 -0.3173 -0.4776  0.3120
19906TIP3    H181209   5.174   2.094   4.529  0.9885  0.0139 -0.8984
19906TIP3    H281210   5.242   2.043   4.655 -1.0530  0.1210  0.2891
19907TIP3   OH281211   6.108   0.604   2.799 -0.0855  0.0473 -0.3166
19907TIP3    H181212   6.107   0.699   2.795  0.9511  0.1088  0.4425
19907TIP3    H281213   6.155   0.584   2.881  0.5105 -1.1097 -0.9146
19908TIP3   OH281214   1.513   4.506  16.727  0.6411  0.1939  0.2668
19908TIP3    H181215   1.465   4.569  16.781  0.1651  0.1876 -0.1366
19908TIP3    H281216   1.604   4.531  16.737  0.6126 -0.1430  1.4886
19909TIP3   OH281217   3.389   5.786  12.707 -0.0251 -0.3153  0.4523
19909TIP3    H181218   3.478   5.821  12.715  0.0700  0.0089 -1.3778
19909TIP3    H281219   3.396   5.695  12.735  0.3679  0.2982  2.4664
19910TIP3   OH281220   1.581   6.571   3.763  0.2308  0.3974 -0.1352
19910TIP3    H181221   1.485   6.568   3.766  0.2643 -2.5867  1.3475
19910TIP3    H281222   1.607   6.483   3.736  2.5610  0.3197  2.0438
19911TIP3   OH281223   0.897   6.028   0.998  0.4024  0.3529  0.5049
19911TIP3    H181224   0.944   5.946   0.982  2.6270  1.6824 -0.3257
19911TIP3    H281225   0.834   6.034   0.926  0.8697 -0.2051  0.0378
19912TIP3   OH281226   1.757   2.099   3.272  0.1305  0.3361 -0.3299
19912TIP3    H181227   1.748   2.052   3.189  0.3264 -0.1835 -0.0672
19912TIP3    H281228   1.672   2.138   3.287  0.2852  0.9944 -1.1050
19913TIP3   OH281229   5.513   4.052  16.755  0.4427  0.1522  0.2841
19913TIP3    H181230   5.443   4.056  16.820  0.2773 -2.3319  0.3622
19913TIP3    H281231   5.475   4.006  16.681  0.8587  2.2682 -1.3566
19914TIP3   OH281232   0.173   4.940  13.910  0.2636 -0.5743  1.1774
19914TIP3    H181233   0.179   4.875  13.839  2.8021  3.1745 -2.5773
19914TIP3    H281234   0.092   4.987  13.892  0.3145 -0.3642  1.4968
19915TIP3   OH281235   5.242   4.964   1.873  0.0512 -0.3453 -0.2426
19915TIP3    H181236   5.307   4.990   1.938 -0.1168  0.0258 -0.2184
19915TIP3    H281237   5.272   5.005   1.792 -0.0318 -0.3516 -0.2768
19916TIP3   OH281238   1.867   6.419   6.126  0.2683 -0.2924 -0.4189
19916TIP3    H181239   1.888   6.511   6.141  0.4153 -0.5042  0.7241
19916TIP3    H281240   1.939   6.387   6.071  0.4314  0.1724 -0.4789
19917TIP3   OH281241   5.663   6.048  14.833 -0.4639 -0.4563  0.6221
19917TIP3    H181242   5.696   6.057  14.743 -2.4441  3.0053  0.0638
19917TIP3    H281243   5.577   6.007  14.823 -0.8405  0.2570  0.8651
19918TIP3   OH281244   3.702   2.985   3.191 -0.4350  0.7861 -0.2803
19918TIP3    H181245   3.686   2.919   3.259  1.0419  1.9946  1.3149
19918TIP3    H281246   3.645   2.958   3.119 -0.6275 -1.6604  0.6642
19919TIP3   OH281247   5.822   0.723  10.968  0.3449 -0.8677  0.2206
19919TIP3    H181248   5.893   0.666  10.938  0.3012 -0.1172 -1.4356
19919TIP3    H281249   5.778   0.750  10.887  1.4089  2.8933  0.7112
19920TIP3   OH281250   3.067   5.391   3.293 -0.0129  0.0892  0.0875
19920TIP3    H181251   3.032   5.471   3.256 -0.5792 -0.1113  0.1816
19920TIP3    H281252   3.105   5.418   3.377  1.3426  0.5569 -0.6452
19921TIP3   OH281253   0.381   3.816  15.278 -0.1246 -0.0762  0.0979
19921TIP3    H181254   0.287   3.830  15.269 -0.1032 -0.5264 -0.9671
19921TIP3    H281255   0.389   3.731  15.320 -0.1907  0.4605  1.2324
19922TIP3   OH281256   1.782   1.769  15.854 -0.3843 -0.1091 -0.5378
19922TIP3    H181257   1.769   1.752  15.760  0.2947 -0.9389 -0.4908
19922TIP3    H281258   1.774   1.864  15.862 -1.3989 -0.1202 -1.2833
19923TIP3   OH281259   1.955   6.214   2.310 -0.3994  0.1904 -0.1780
19923TIP3    H181260   2.042   6.173   2.301 -0.8386 -0.9190  0.4570
19923TIP3    H281261   1.950   6.274   2.236  1.7171  1.8115  0.8880
19924TIP3   OH281262   1.658   6.568  14.305 -0.1544 -0.0609 -0.6248
19924TIP3    H181263   1.646   6.503  14.373 -0.2151 -0.4295 -0.9832
19924TIP3    H281264   1.654   6.652  14.350  0.2321 -0.3144 -0.1150
19925TIP3   OH281265   5.870   4.998   6.179 -0.8541 -0.1170  0.3271
19925TIP3    H181266   5.829   4.952   6.253  1.8927  0.6329  2.5033
19925TIP3    H281267   5.827   5.084   6.178 -2.5952 -0.9316 -0.6216
19926TIP3   OH281268   0.140   3.335   4.657 -0.1684  0.1770 -0.3683
19926TIP3    H181269   0.182   3.293   4.733 -1.1422 -1.0403 -0.4749
19926TIP3    H281270   0.204   3.327   4.587 -0.4277 -1.3980 -0.4546
19927TIP3   OH281271   2.661   1.004   5.303  0.2360  0.0778 -0.5982
19927TIP3    H181272   2.679   1.033   5.393  1.1399 -0.5734 -0.5508
19927TIP3    H281273   2.568   0.983   5.303 -0.1007  1.4801 -0.2197
19928TIP3   OH281274   1.385   0.042  13.104  0.1675  0.5822  0.0547
19928TIP3    H181275   1.335  -0.002  13.173 -0.5499 -0.3671 -1.0470
19928TIP3    H281276   1.473   0.005  13.111 -0.4149 -1.0149 -0.8227
19929TIP3   OH281277   1.265   6.294  15.083  0.5865  0.0060 -0.1397
19929TIP3    H181278   1.345   6.346  15.079  0.6431 -0.0454  0.3516
19929TIP3    H281279   1.196   6.358  15.103  0.8067 -0.2461  1.5540
19930TIP3   OH281280   4.591   6.138   3.469 -0.5920 -0.8195  0.0099
19930TIP3    H181281   4.520   6.184   3.514 -0.6302 -1.0884  0.2292
19930TIP3    H281282   4.671   6.181   3.499 -0.6818 -0.2200 -0.5831
19931TIP3   OH281283   3.219   5.966  16.886  0.2334  0.4370  0.8630
19931TIP3    H181284   3.139   5.924  16.918  1.1252  0.5063  3.3820
19931TIP3    H281285   3.270   5.895  16.848 -0.2433  0.0688  0.8971
19932TIP3   OH281286   4.785   5.657  13.115 -0.2356 -0.2975  0.3241
19932TIP3    H181287   4.811   5.573  13.152  0.4207  0.2594  1.1721
19932TIP3    H281288   4.849   5.672  13.044 -1.0886 -1.0520 -0.6412
19933TIP3   OH281289   6.495   1.364  14.176  0.0743 -0.3105  0.0745
19933TIP3    H181290   6.516   1.297  14.242 -0.0693 -0.2237  0.2071
19933TIP3    H281291   6.575   1.417  14.170 -0.5786  0.9193  1.6444
19934TIP3   OH281292   1.563   0.799   3.251  0.2645 -0.2355  0.3357
19934TIP3    H181293   1.648   0.814   3.210  0.0207  0.5724  0.1214
19934TIP3    H281294   1.506   0.771   3.179 -0.3967  2.0336 -0.1037
19935TIP3   OH281295   2.364   4.049   3.465 -0.4804  0.4656  0.2038
19935TIP3    H181296   2.368   3.967   3.515 -1.8564  0.4676  0.3664
19935TIP3    H281297   2.392   4.116   3.527  1.7271  0.0186 -0.2537
19936TIP3   OH281298   6.777   0.693   3.317  0.2339  0.1475 -0.2359
19936TIP3    H181299   6.745   0.730   3.399  0.0566  1.3910 -0.8321
19936TIP3    H281300   6.866   0.663   3.337 -0.0282 -0.1032  0.5551
19937TIP3   OH281301   0.124   2.268   5.194  0.1725 -0.4663  0.0364
19937TIP3    H181302   0.201   2.323   5.180  0.8763 -1.5372 -0.4530
19937TIP3    H281303   0.129   2.202   5.125 -1.2310 -0.5194 -0.0442
19938TIP3   OH281304   3.440   2.327  11.693 -0.7559 -0.1308  0.4493
19938TIP3    H181305   3.481   2.273  11.760 -0.8640 -0.2884  0.3878
19938TIP3    H281306   3.368   2.371  11.737  0.1278  0.9862  0.8381
19939TIP3   OH281307   2.726   4.202   1.474 -0.2325 -0.1727 -0.4107
19939TIP3    H181308   2.706   4.149   1.398  0.0802 -0.0783 -0.5591
19939TIP3    H281309   2.747   4.288   1.439 -3.5983  0.9690 -0.0485
19940TIP3   OH281310   4.972   5.155  14.664 -0.2820 -0.2282 -0.3318
19940TIP3    H181311   4.888   5.169  14.622 -0.2972  0.6254 -0.0325
19940TIP3    H281312   5.018   5.239  14.656 -0.5762  0.2187  1.9806
19941TIP3   OH281313   6.070   2.366   6.031  0.2022  0.4525  0.1058
19941TIP3    H181314   5.974   2.366   6.038  0.3097  0.2393  2.1583
19941TIP3    H281315   6.101   2.380   6.121  2.1148  3.2904 -0.8542
19942TIP3   OH281316   3.247   1.921  16.175 -0.2161 -0.2836  0.2196
19942TIP3    H181317   3.272   1.846  16.229  1.6833 -1.4784 -2.1355
19942TIP3    H281318   3.269   1.895  16.086 -0.0770  2.8270 -0.7819
19943TIP3   OH281319   5.224   3.943   5.208 -0.3554 -0.5876  0.0297
19943TIP3    H181320   5.289   4.004   5.245  1.3570 -0.5440 -2.7487
19943TIP3    H281321   5.276   3.880   5.158 -2.4072 -1.2472 -1.4065
19944TIP3   OH281322   0.257   2.376  13.933 -0.2421  0.4888 -1.0789
19944TIP3    H181323   0.329   2.313  13.931 -0.4045  0.3000 -1.0615
19944TIP3    H281324   0.300   2.461  13.934  0.0494  0.3840  1.6546
19945TIP3   OH281325   6.512   3.618  15.884  0.0845  0.4326  0.1533
19945TIP3    H181326   6.585   3.679  15.880  1.0502 -0.4338  2.6429
19945TIP3    H281327   6.550   3.537  15.919 -1.3211 -1.3637 -2.1739
19946TIP3   OH281328   4.562   5.093  15.907  0.2534  0.3365 -0.0865
19946TIP3    H181329   4.594   5.163  15.963  2.9209 -1.2412  0.5431
19946TIP3    H281330   4.586   5.120  15.818 -0.4270  1.0421 -0.0633
19947TIP3   OH281331   2.876   6.600  15.591  0.8837 -0.4346  0.4184
19947TIP3    H181332   2.952   6.646  15.554 -1.9494  2.3527 -2.5452
19947TIP3    H281333   2.863   6.642  15.676  0.3984  2.0102 -0.7784
19948TIP3   OH281334   4.587   0.768   0.684  0.0983  0.4091 -0.1492
19948TIP3    H181335   4.496   0.740   0.693  0.0582  0.9851  1.5892
19948TIP3    H281336   4.618   0.723   0.606 -0.7804 -2.2508  0.9393
19949TIP3   OH281337   3.734   2.015   3.966  0.4309 -0.2983 -0.0014
19949TIP3    H181338   3.690   2.031   4.050  2.2706 -2.6322  1.5338
19949TIP3    H281339   3.663   1.992   3.906 -1.2021  3.5831  0.1617
19950TIP3   OH281340   5.539   3.129  12.521  0.0336 -0.2407  0.4765
19950TIP3    H181341   5.500   3.216  12.511 -1.4014 -0.8423  0.4940
19950TIP3    H281342   5.632   3.145  12.534  0.0662  1.2127 -1.2273
19951TIP3   OH281343   6.435   0.007   5.214 -0.1477 -0.1186  0.1109
19951TIP3    H181344   6.524  -0.015   5.188 -0.7876  0.3926 -2.8240
19951TIP3    H281345   6.400   0.059   5.141 -3.3774 -1.6582  0.3748
19952TIP3   OH281346   3.741   5.761   2.588  0.6836 -0.0275  0.2280
19952TIP3    H181347   3.820   5.739   2.538  0.3796  0.7359 -0.6084
19952TIP3    H281348   3.669   5.726   2.536  0.4595 -0.9435  1.1158
19953TIP3   OH281349   0.953   3.069   3.724 -0.0633 -0.7484 -0.1356
19953TIP3    H181350   1.011   3.067   3.648  0.0867  0.9170 -0.1201
19953TIP3    H281351   0.989   3.004   3.784  0.3728 -1.4150 -1.0963
19954TIP3   OH281352   1.926   3.173   5.669 -0.0201  0.0230  0.1787
19954TIP3    H181353   1.991   3.173   5.599  0.6213  0.5807  0.7519
19954TIP3    H281354   1.848   3.210   5.629 -0.1230 -1.0417 -0.6337
19955TIP3   OH281355   0.744   2.704  17.193  0.4370 -0.4995 -0.4777
19955TIP3    H181356   0.726   2.753  17.274 -1.2486 -0.3592 -0.9015
19955TIP3    H281357   0.766   2.616  17.224 -0.5759 -0.5545  0.1339
19956TIP3   OH281358   1.421   3.298   2.090 -1.4380  0.4565  0.5250
19956TIP3    H181359   1.347   3.358   2.087  0.5073  3.0240 -0.1951
19956TIP3    H281360   1.471   3.325   2.167 -0.5976 -0.3541  0.2833
19957TIP3   OH281361   3.007   1.735   4.568  0.5592 -0.5564  0.3020
19957TIP3    H181362   2.984   1.767   4.481  0.7986  0.5593  0.6201
19957TIP3    H281363   2.992   1.811   4.626  1.2855 -0.9875  1.0810
19958TIP3   OH281364   6.208   3.816  14.730  0.5571 -0.1059  0.1794
19958TIP3    H181365   6.243   3.828  14.818  0.8509  2.8179 -0.2522
19958TIP3    H281366   6.114   3.800  14.744  0.5448  0.6220  1.0132
19959TIP3   OH281367   3.613   1.766  11.540  0.4494 -0.2051 -0.2382
19959TIP3    H181368   3.581   1.712  11.612  2.4524 -1.2226 -0.0383
19959TIP3    H281369   3.544   1.831  11.527 -0.7511 -1.0473  1.4257
19960TIP3   OH281370   3.439   4.896  12.569  0.1207  0.0646  0.0004
19960TIP3    H181371   3.528   4.902  12.535  0.2516 -0.4614  0.2351
19960TIP3    H281372   3.403   4.817  12.527 -0.5693  0.8189 -0.8560
19961TIP3   OH281373   0.422   0.528  15.022 -0.3711  0.0636  0.2491
19961TIP3    H181374   0.482   0.571  15.083 -0.4095  0.1844  0.2015
19961TIP3    H281375   0.414   0.589  14.948  0.0588 -0.2932 -0.1049
19962TIP3   OH281376   0.024   4.162  11.545  0.7202 -0.5405 -0.5929
19962TIP3    H181377  -0.068   4.168  11.572  0.9821 -2.3396  0.8733
19962TIP3    H281378   0.021   4.167  11.449 -1.0372 -1.8830 -0.6524
19963TIP3   OH281379   4.080   3.040  15.398  0.4461 -0.7667  0.4283
19963TIP3    H181380   4.096   2.988  15.319  1.5270 -0.9425  0.7386
19963TIP3    H281381   4.160   3.093  15.407 -0.2180  0.2048  0.6843
19964TIP3   OH281382   4.432   2.673   1.613  0.2703 -0.0144  0.8163
19964TIP3    H181383   4.392   2.588   1.596 -0.4707  0.0613  2.0672
19964TIP3    H281384   4.417   2.723   1.533 -0.3184 -0.6688  0.5108
19965TIP3   OH281385   3.150   4.908   4.123  0.0230  0.0976 -0.3493
19965TIP3    H181386   3.136   4.992   4.079  1.3082  1.1997  1.1872
19965TIP3    H281387   3.125   4.925   4.214  1.8430 -0.6658  0.3427
19966TIP3   OH281388   3.592   6.304  13.164 -0.7844 -0.0666  0.8961
19966TIP3    H181389   3.564   6.390  13.134 -0.4226 -0.5251 -0.8892
19966TIP3    H281390   3.513   6.250  13.158 -0.5771 -0.3000  0.1478
19967TIP3   OH281391   1.325   5.288   4.034  0.1034 -0.7953  0.4831
19967TIP3    H181392   1.296   5.370   3.993  0.0805 -0.8999  0.2892
19967TIP3    H281393   1.419   5.300   4.047  0.6716 -1.8029 -2.1014
19968TIP3   OH281394   0.851   1.925  17.064  0.8273 -0.5020 -0.3749
19968TIP3    H181395   0.921   1.904  17.125  2.0485  0.0832 -1.5405
19968TIP3    H281396   0.841   2.020  17.069  0.0705 -0.5770 -0.2035
19969TIP3   OH281397   4.061   1.370  11.728 -0.5668 -0.1454 -0.0019
19969TIP3    H181398   4.023   1.456  11.745  1.6400  0.6276  1.4034
19969TIP3    H281399   4.007   1.310  11.779 -3.3083  0.0076 -2.4491
19970TIP3   OH281400   1.994   4.083   0.029  0.0456  0.1683  0.2571
19970TIP3    H181401   1.929   4.149   0.054  0.4358  1.1654 -1.2433
19970TIP3    H281402   2.073   4.133   0.010  0.5845 -0.8180 -0.1845
19971TIP3   OH281403   5.798   3.555  15.610  0.6518 -0.8123 -0.0312
19971TIP3    H181404   5.797   3.651  15.613 -0.9299 -0.8341  1.3469
19971TIP3    H281405   5.796   3.528  15.702  0.5177 -2.1743 -0.4129
19972TIP3   OH281406   6.169   5.201  13.225 -0.3697  0.3566 -0.2312
19972TIP3    H181407   6.261   5.216  13.246 -0.2953  0.9732 -0.9565
19972TIP3    H281408   6.166   5.199  13.129 -1.4369  2.5981 -0.3060
19973TIP3   OH281409   5.835   3.694   0.093  0.5214  0.1264 -0.3708
19973TIP3    H181410   5.822   3.700   0.187 -1.3771 -0.0722 -0.5775
19973TIP3    H281411   5.866   3.782   0.067  0.6693  0.2968  0.3667
19974TIP3   OH281412   0.682   6.403   4.136  0.1176  0.2117 -0.1750
19974TIP3    H181413   0.710   6.474   4.080  0.9502  1.4213  1.6758
19974TIP3    H281414   0.738   6.409   4.213 -3.6194  1.3328  2.7422
19975TIP3   OH281415   5.021   2.246   5.215  0.4501 -0.3553  0.1567
19975TIP3    H181416   4.950   2.236   5.278  0.4072 -1.0314  0.0062
19975TIP3    H281417   4.985   2.301   5.145 -0.3087 -1.6164 -0.4773
19976TIP3   OH281418   2.996   2.206   5.900  0.5442  0.0758 -0.9683
19976TIP3    H181419   3.057   2.147   5.946 -1.1249 -0.5295  0.5851
19976TIP3    H281420   2.966   2.266   5.967 -0.4043  0.4994 -1.7541
19977TIP3   OH281421   6.278   5.511   6.038 -0.2804  0.8500  0.2924
19977TIP3    H181422   6.284   5.420   6.067 -1.4076  0.9620  0.8996
19977TIP3    H281423   6.339   5.558   6.096 -1.9703  0.9533  2.0831
19978TIP3   OH281424   5.377   1.940  14.129  0.4694  0.0641  0.4276
19978TIP3    H181425   5.380   1.856  14.173  1.1897  0.6470  1.5135
19978TIP3    H281426   5.289   1.973  14.148  1.2417  0.9711  2.7530
19979TIP3   OH281427   3.813   5.160  13.160  0.1188 -0.0194 -0.3991
19979TIP3    H181428   3.755   5.122  13.094 -1.4111  0.8531  0.3885
19979TIP3    H281429   3.887   5.194  13.110 -1.3457  1.2883 -1.7915
19980TIP3   OH281430   2.739   0.868  16.334  0.1278 -0.2183  0.3401
19980TIP3    H181431   2.696   0.808  16.273 -0.1243 -0.6577  0.9462
19980TIP3    H281432   2.698   0.953  16.318 -1.0169 -0.6378  0.9454
19981TIP3   OH281433   2.822   1.931   3.132  0.9219  0.1637 -0.5567
19981TIP3    H181434   2.788   1.920   3.043  2.2830 -1.0802 -0.9693
19981TIP3    H281435   2.744   1.946   3.186 -0.3203 -2.4503 -1.4470
19982TIP3   OH281436   0.628   0.905  17.155  0.3254  0.1200  0.2278
19982TIP3    H181437   0.587   0.980  17.199  1.0126  0.7426 -0.1606
19982TIP3    H281438   0.722   0.922  17.164  0.6581 -2.3945  3.1039
19983TIP3   OH281439   0.502   1.462  10.680 -0.6291 -0.6271  0.5255
19983TIP3    H181440   0.410   1.488  10.680 -0.0382  1.7442  1.0824
19983TIP3    H281441   0.503   1.374  10.717 -2.5109 -0.0117  2.2173
19984TIP3   OH281442   0.833   2.436   5.123  0.1725 -0.5058  0.4070
19984TIP3    H181443   0.891   2.484   5.064 -0.4569 -2.1784 -1.6817
19984TIP3    H281444   0.864   2.460   5.211  2.0293  1.0129 -0.5814
19985TIP3   OH281445   0.157   2.757   4.283 -0.5767  0.0278  0.4516
19985TIP3    H181446   0.069   2.771   4.318 -0.5062 -1.6082  1.3967
19985TIP3    H281447   0.163   2.815   4.207 -2.5982 -0.0915  0.1623
19986TIP3   OH281448   0.161   3.526   3.970  0.0605  0.1853 -0.2205
19986TIP3    H181449   0.238   3.480   4.003 -0.2603 -0.4343 -0.3128
19986TIP3    H281450   0.174   3.617   3.996  0.9658  0.1473 -0.4970
19987TIP3   OH281451   4.776   2.182   0.786  0.0880  0.2853 -0.2169
19987TIP3    H181452   4.805   2.137   0.707 -0.6612 -2.6010  1.0135
19987TIP3    H281453   4.828   2.143   0.856 -0.0740  1.9357  0.8773
19988TIP3   OH281454   6.078   0.965   2.629  0.2307 -0.3779  0.3040
19988TIP3    H181455   6.016   1.036   2.647 -0.1399 -0.5066 -0.3914
19988TIP3    H281456   6.097   0.927   2.714  2.2429  2.0045  1.0467
19989TIP3   OH281457   0.767   1.016  12.705 -0.3348 -0.0378 -0.6673
19989TIP3    H181458   0.738   1.032  12.795  1.1627  0.7353 -0.3000
19989TIP3    H281459   0.701   0.956  12.669 -0.7973 -0.6048  1.0332
19990TIP3   OH281460   4.571   0.287  11.841  0.0156 -0.2570  0.1078
19990TIP3    H181461   4.511   0.275  11.767  0.4742 -0.9887 -0.1559
19990TIP3    H281462   4.575   0.382  11.853  0.2228 -0.0936 -1.0504
19991TIP3   OH281463   1.232   3.425   2.770 -0.7848  0.1716 -0.1862
19991TIP3    H181464   1.298   3.486   2.804 -0.1763 -0.1554 -0.7623
19991TIP3    H281465   1.188   3.392   2.848 -0.6127  0.7765  0.1784
19992TIP3   OH281466   2.285   1.076  11.273 -0.0351  0.0391  0.3832
19992TIP3    H181467   2.204   1.057  11.320 -0.6346 -0.9606 -0.9691
19992TIP3    H281468   2.256   1.098  11.184  1.1387  0.4073  0.0752
19993TIP3   OH281469   4.268   5.985  13.358 -0.5261 -0.4455 -0.1413
19993TIP3    H181470   4.243   6.065  13.404  0.6388 -1.2955  2.1018
19993TIP3    H281471   4.337   6.012  13.298 -1.6745  0.5822 -1.0631
19994TIP3   OH281472   0.456   1.257   1.181  0.5145  0.5234  0.3398
19994TIP3    H181473   0.433   1.165   1.177 -1.7019  0.9552  1.8559
19994TIP3    H281474   0.400   1.299   1.115  0.6165  0.9628  0.5283
19995TIP3   OH281475   4.351   2.023  15.280  0.4412 -0.4938 -0.0767
19995TIP3    H181476   4.446   2.030  15.289  0.5193 -0.1076 -1.0627
19995TIP3    H281477   4.316   2.088  15.340  0.8218 -0.2041 -0.1653
19996TIP3   OH281478   1.306   6.285  14.314 -0.2606 -0.0770  0.2918
19996TIP3    H181479   1.317   6.305  14.407  0.0627  0.2875  0.1789
19996TIP3    H281480   1.375   6.221  14.295  0.4315  0.7275  0.0381
19997TIP3   OH281481   4.008   4.275  13.274 -0.0459  0.1276  0.0256
19997TIP3    H181482   3.920   4.252  13.243 -0.3629  2.7447 -1.2970
19997TIP3    H281483   3.994   4.312  13.361 -0.3038  0.6995 -0.2517
19998TIP3   OH281484   6.242   3.097  16.843 -0.0268  0.0905  0.4365
19998TIP3    H181485   6.222   3.168  16.783 -0.3621  0.8866  1.4471
19998TIP3    H281486   6.295   3.035  16.792 -1.7713 -0.1456 -1.1764
19999TIP3   OH281487   3.057   2.689  13.602  0.2243  0.0240  0.3406
19999TIP3    H181488   3.137   2.642  13.576  0.5249 -0.2677  1.7122
19999TIP3    H281489   3.011   2.705  13.520  1.0320 -1.0216 -0.3428
20000TIP3   OH281490   0.334   5.857  17.106 -0.1156 -0.7958 -0.1778
20000TIP3    H181491   0.367   5.845  17.017 -0.2949 -0.0374 -0.3571
20000TIP3    H281492   0.272   5.930  17.098 -1.0935 -1.5541  0.3265
20001TIP3   OH281493   6.128   2.488   2.969 -0.3112  0.1605  0.2503
20001TIP3    H181494   6.034   2.480   2.986 -0.6520  0.0393 -1.4525
20001TIP3    H281495   6.166   2.410   3.010 -0.7468  0.8967  2.1197
20002TIP3   OH281496   0.898   6.074   3.340  0.1070 -0.3388  0.1922
20002TIP3    H181497   0.962   6.100   3.274 -0.2287 -1.7173 -0.7332
20002TIP3    H281498   0.885   6.152   3.394  0.2351  0.9067 -1.5002
20003TIP3   OH281499   6.329   1.847   4.859  0.1602  0.0037 -0.4087
20003TIP3    H181500   6.300   1.758   4.880  0.8664 -0.3877 -1.0520
20003TIP3    H281501   6.421   1.837   4.836  0.3687  0.9780 -0.0364
20004TIP3   OH281502   4.861   3.240   1.543  0.9284  0.1904  0.6098
20004TIP3    H181503   4.943   3.287   1.529  1.2649 -0.6679 -0.4793
20004TIP3    H281504   4.868   3.162   1.487 -1.1808  0.7837 -0.6351
20005TIP3   OH281505   6.637   2.019  14.160  0.1472  0.0668 -0.6705
20005TIP3    H181506   6.696   1.954  14.198  1.3382  1.1922 -0.5151
20005TIP3    H281507   6.688   2.060  14.090 -1.0156 -0.0049 -1.5809
20006TIP3   OH281508   2.106   3.072  12.043  0.3569  0.2771 -0.0176
20006TIP3    H181509   2.114   2.977  12.050  0.0644  0.3158  0.9803
20006TIP3    H281510   2.197   3.103  12.042  0.5334 -0.0952 -2.2607
20007TIP3   OH281511   1.636   4.538   1.635  0.1849  0.4780 -0.2011
20007TIP3    H181512   1.576   4.610   1.653 -0.2579 -0.0220  0.3499
20007TIP3    H281513   1.709   4.579   1.588  0.8321  1.6414  1.6897
20008TIP3   OH281514   4.964   6.537   5.411 -0.0316  0.0946 -0.2078
20008TIP3    H181515   4.925   6.559   5.495  0.8934 -0.4020  0.3724
20008TIP3    H281516   4.911   6.584   5.346  0.4756  2.1350  0.7958
20009TIP3   OH281517   0.131   6.059  12.035  0.4959 -0.3272  0.1981
20009TIP3    H181518   0.042   6.036  12.061  0.3063  0.3105  0.1182
20009TIP3    H281519   0.129   6.153  12.022  1.1622 -0.3217  0.1022
20010TIP3   OH281520   6.681   0.378   1.740  0.3743 -0.7647  0.6250
20010TIP3    H181521   6.706   0.335   1.822 -1.7749 -0.6065  1.4150
20010TIP3    H281522   6.658   0.306   1.682 -1.7824 -0.8206  1.4608
20011TIP3   OH281523   1.793   2.520  14.387 -0.0819 -0.0453  0.5581
20011TIP3    H181524   1.833   2.499  14.472  1.1537 -1.9230 -0.4212
20011TIP3    H281525   1.743   2.441  14.364  0.9372 -0.2475 -1.1652
20012TIP3   OH281526   5.920   4.611  15.024  0.1529  0.3500  0.7401
20012TIP3    H181527   6.009   4.642  15.013  0.3012 -0.6004 -1.3307
20012TIP3    H281528   5.928   4.516  15.035 -0.5846  0.2238  0.3254
20013TIP3   OH281529   1.574   6.517  12.480 -0.5159  0.2620 -0.0330
20013TIP3    H181530   1.525   6.526  12.562  1.0396  0.3040  0.9283
20013TIP3    H281531   1.613   6.603  12.466  1.3266 -0.4217  0.5981
20014TIP3   OH281532   2.103   5.152   1.596 -0.8726  0.2429 -0.3035
20014TIP3    H181533   2.175   5.203   1.558  0.0271 -0.1891  0.7719
20014TIP3    H281534   2.060   5.112   1.520 -1.0332  1.8264 -1.1048
20015TIP3   OH281535   2.653   0.344   1.182 -0.2077 -0.2052 -0.2666
20015TIP3    H181536   2.747   0.358   1.168 -0.2725  0.3820 -0.1487
20015TIP3    H281537   2.649   0.279   1.252  0.1251  0.4403  0.3681
20016TIP3   OH281538   0.328   4.964  14.598  0.5281 -0.0837  0.7045
20016TIP3    H181539   0.292   4.984  14.512 -0.5965  1.3676  1.4700
20016TIP3    H281540   0.396   4.899  14.581  1.9869  1.8542 -1.5885
20017TIP3   OH281541   3.528   3.755  13.856 -0.0896  0.0222 -0.0605
20017TIP3    H181542   3.523   3.851  13.847  0.0445 -0.0987 -1.6555
20017TIP3    H281543   3.563   3.725  13.773  0.5824 -1.3772  0.6995
20018TIP3   OH281544   6.094   3.036  11.070 -0.4883 -0.0318  0.4942
20018TIP3    H181545   6.150   3.085  11.131  0.0498 -0.7334  0.5810
20018TIP3    H281546   6.145   3.031  10.989 -1.3019  1.1001 -0.1057
20019TIP3   OH281547   4.660   3.340  11.061  0.2334 -0.4206 -0.0812
20019TIP3    H181548   4.698   3.424  11.036  0.1039 -0.1196  0.6983
20019TIP3    H281549   4.732   3.278  11.054  0.0975 -0.4460 -1.6060
20020TIP3   OH281550   0.279   0.163   1.335 -0.3598  0.7911  0.3795
20020TIP3    H181551   0.327   0.188   1.256 -1.4470  0.4748 -0.4054
20020TIP3    H281552   0.284   0.068   1.338 -1.2704  0.7200  0.0514
20021TIP3   OH281553   3.504   4.436  13.157  0.4568 -0.1683 -0.4309
20021TIP3    H181554   3.568   4.427  13.087  0.4919  0.6503 -0.5201
20021TIP3    H281555   3.542   4.502  13.215  0.4415 -0.8532  0.3783
20022TIP3   OH281556   6.087   4.568  14.208  0.4136  0.2257 -0.2728
20022TIP3    H181557   6.090   4.663  14.219  0.0516  0.1688  0.3164
20022TIP3    H281558   6.124   4.533  14.289 -1.1025 -0.1619  0.2826
20023TIP3   OH281559   0.956   3.803   2.575  0.5791 -0.1154 -0.7065
20023TIP3    H181560   0.992   3.714   2.578  0.1143 -0.3244 -1.1849
20023TIP3    H281561   1.027   3.855   2.537  0.6911 -0.3695 -0.8513
20024TIP3   OH281562   2.770   0.771   4.700 -0.0869 -0.1527  0.2392
20024TIP3    H181563   2.857   0.806   4.680 -0.2126 -0.9421 -1.9635
20024TIP3    H281564   2.766   0.688   4.653 -1.6473 -0.6687  1.2035
20025TIP3   OH281565   2.244   1.505  16.501 -0.0741 -0.2975  0.1551
20025TIP3    H181566   2.309   1.563  16.540  0.1776 -0.4805  0.0132
20025TIP3    H281567   2.294   1.451  16.440 -0.5070  0.1769 -0.6349
20026TIP3   OH281568   6.239   2.646   0.656 -0.6769 -0.6795 -0.1076
20026TIP3    H181569   6.163   2.598   0.689  0.1574 -0.4512  2.3900
20026TIP3    H281570   6.263   2.704   0.729  0.7572  0.6166 -1.5460
20027TIP3   OH281571   6.262   2.559   2.334  0.1244 -0.2486 -0.4687
20027TIP3    H181572   6.325   2.487   2.336  0.2465 -0.1343  1.3696
20027TIP3    H281573   6.179   2.519   2.362  0.5722  0.5862  2.4083
20028TIP3   OH281574   0.541   3.936   0.262 -0.0498  0.1931 -0.0383
20028TIP3    H181575   0.575   4.015   0.303 -1.3359  1.7922 -1.8692
20028TIP3    H281576   0.485   3.967   0.190 -1.1321 -2.3605 -0.4483
20029TIP3   OH281577   5.335   5.417  16.054  0.0179 -0.1979 -0.2559
20029TIP3    H181578   5.313   5.499  16.098  0.8199 -0.6561  1.0509
20029TIP3    H281579   5.261   5.400  15.997 -0.4807  1.0734 -0.0217
20030TIP3   OH281580   1.156   3.710   0.134 -0.5584  0.0085 -0.8014
20030TIP3    H181581   1.122   3.708   0.223 -0.3694  0.0908 -0.7273
20030TIP3    H281582   1.104   3.645   0.087 -0.3916 -0.3190 -0.5366
20031TIP3   OH281583   3.347   5.139   0.689 -0.6453  0.2387  0.1720
20031TIP3    H181584   3.425   5.176   0.730 -0.0838 -1.1537  0.4050
20031TIP3    H281585   3.350   5.046   0.710 -2.0861  0.0575 -0.2842
20032TIP3   OH281586   5.598   6.014  16.228  0.5743  0.2920 -0.3924
20032TIP3    H181587   5.553   5.944  16.181 -1.9969  1.7322 -0.2693
20032TIP3    H281588   5.627   5.973  16.310 -1.5386 -0.5107  0.0137
20033TIP3   OH281589   0.862   3.069   1.829 -0.2735  0.0158  0.1007
20033TIP3    H181590   0.827   3.053   1.916 -2.4011 -0.9718 -0.8557
20033TIP3    H281591   0.809   3.141   1.794 -0.2405 -0.3658 -0.7771
20034TIP3   OH281592   5.700   5.131   1.050 -0.0402  0.0165 -0.7582
20034TIP3    H181593   5.779   5.137   0.997 -0.5345  2.7983 -1.3719
20034TIP3    H281594   5.629   5.153   0.990 -0.8373  1.2798  0.5526
20035TIP3   OH281595   2.543   2.055   4.815 -0.0890 -0.2174 -0.1809
20035TIP3    H181596   2.481   2.128   4.813  2.2150  1.8546 -2.5888
20035TIP3    H281597   2.599   2.073   4.890  1.7108  1.7647 -1.8741
20036TIP3   OH281598   2.968   4.199   5.608  0.1282  0.4777  0.2511
20036TIP3    H181599   2.878   4.207   5.576 -0.5614 -1.3434  1.5337
20036TIP3    H281600   2.977   4.106   5.629  1.8787  0.8718  1.4177
20037TIP3   OH281601   2.600   2.855  10.374 -0.0752  1.0629 -0.4235
20037TIP3    H181602   2.578   2.887  10.461 -2.8244  0.0017 -0.6390
20037TIP3    H281603   2.612   2.761  10.385  0.7124  1.0747 -1.0382
20038TIP3   OH281604   1.144   1.295  16.147  0.0860 -0.2091 -0.3748
20038TIP3    H181605   1.127   1.389  16.139  0.4330 -0.2288 -1.6035
20038TIP3    H281606   1.061   1.254  16.123  0.3189 -0.2293 -1.1626
20039TIP3   OH281607   4.645   3.065  13.666  0.4447 -0.3681  0.5964
20039TIP3    H181608   4.559   3.104  13.680 -0.5907 -2.6029  0.7669
20039TIP3    H281609   4.694   3.085  13.746 -0.5284 -0.6264  1.2634
20040TIP3   OH281610   6.356   0.093  14.021 -0.0280 -0.8809 -0.0832
20040TIP3    H181611   6.269   0.059  14.040 -0.7141  1.2765  0.8781
20040TIP3    H281612   6.344   0.149  13.944  0.8871 -1.8865 -1.0137
20041TIP3   OH281613   3.261   1.515  13.343 -0.2249  0.7668  0.1614
20041TIP3    H181614   3.190   1.569  13.309  1.3202  4.1506  1.8131
20041TIP3    H281615   3.243   1.507  13.437  0.0322 -1.0315  0.1079
20042TIP3   OH281616   5.095   4.138   1.083 -0.5533 -0.1523 -0.6643
20042TIP3    H181617   5.142   4.219   1.105  0.6183 -0.8333 -0.6222
20042TIP3    H281618   5.163   4.077   1.055 -1.3154 -1.4355  0.1923
20043TIP3   OH281619   2.140   5.457   5.023  0.3674 -0.0477  0.5697
20043TIP3    H181620   2.075   5.476   4.956  1.1527 -0.6044 -0.3750
20043TIP3    H281621   2.148   5.538   5.073 -0.1553  0.4109 -0.0783
20044TIP3   OH281622   0.466   1.449   0.909  0.0258  0.2803  0.2129
20044TIP3    H181623   0.373   1.454   0.889 -0.0519 -0.8825  0.2214
20044TIP3    H281624   0.506   1.416   0.828  0.3327  0.0212  0.4689
20045TIP3   OH281625   0.493   2.545   4.264  0.4111  0.5042  0.8125
20045TIP3    H181626   0.460   2.626   4.303 -1.1280  0.4049 -0.1695
20045TIP3    H281627   0.443   2.536   4.183  2.8764  0.2654 -0.7918
20046TIP3   OH281628   4.408   4.019   1.434  0.0532  0.2493 -0.2160
20046TIP3    H181629   4.376   3.965   1.506 -0.1277  0.9832  0.2519
20046TIP3    H281630   4.399   4.109   1.464 -2.1395  0.7245 -1.9525
20047TIP3   OH281631   3.678   1.509   6.365 -0.0120  0.1721  0.1496
20047TIP3    H181632   3.620   1.542   6.434 -0.5729  0.1088 -0.2790
20047TIP3    H281633   3.683   1.581   6.301 -0.6545 -0.2746 -0.4316
20048TIP3   OH281634   2.018   1.076   4.739  0.2552 -0.0496 -0.0609
20048TIP3    H181635   2.044   0.992   4.699 -0.1324 -0.1753 -0.0524
20048TIP3    H281636   2.063   1.142   4.686 -0.5979 -0.1932 -0.9991
20049TIP3   OH281637   2.466   3.876   1.825 -0.2525 -0.4104  0.2448
20049TIP3    H181638   2.509   3.839   1.902  2.8691  0.8660 -0.7303
20049TIP3    H281639   2.506   3.962   1.814 -2.5170  0.5461 -1.3391
20050TIP3   OH281640   1.405   2.092   5.793  0.1071  0.3139 -0.4193
20050TIP3    H181641   1.481   2.102   5.849  0.2320 -0.2023 -0.4973
20050TIP3    H281642   1.429   2.023   5.731 -0.5285 -0.0646 -0.2577
20051TIP3   OH281643   0.806   4.235   0.885 -0.2010 -0.0004  0.0023
20051TIP3    H181644   0.896   4.203   0.877 -0.6042 -1.6315  1.2212
20051TIP3    H281645   0.815   4.325   0.915  1.0011  0.7456 -2.3353
20052TIP3   OH281646   1.115   6.467   5.589 -0.3747  0.1362  0.5233
20052TIP3    H181647   1.153   6.404   5.650  2.6803  1.3329  0.0345
20052TIP3    H281648   1.157   6.446   5.505 -2.7621 -0.0211 -0.7027
20053TIP3   OH281649   0.602   4.137   1.063  0.1818 -0.1598 -0.2956
20053TIP3    H181650   0.675   4.154   1.002  0.2527 -0.2539 -0.2375
20053TIP3    H281651   0.611   4.205   1.130 -0.7806  0.8725 -1.1825
20054TIP3   OH281652   2.021   6.547  12.483  0.1966 -0.1708 -0.2350
20054TIP3    H181653   1.965   6.471  12.503 -2.7423  2.5396  3.1159
20054TIP3    H281654   1.990   6.578  12.398 -1.2751 -0.5433  0.1392
20055TIP3   OH281655   4.221   6.421   1.397  0.1177  0.5162  0.0646
20055TIP3    H181656   4.291   6.442   1.459 -0.9799  0.0378  1.5146
20055TIP3    H281657   4.219   6.325   1.396  0.4467  0.5083 -1.1135
20056TIP3   OH281658   2.074   2.392   4.922  0.0298  0.1974  0.5089
20056TIP3    H181659   2.086   2.375   4.829 -1.1002 -0.1636  0.4129
20056TIP3    H281660   2.108   2.481   4.935 -0.3652  0.4875 -0.3692
20057TIP3   OH281661   0.108   2.519  11.899 -0.2279  0.1314 -0.4353
20057TIP3    H181662   0.177   2.491  11.839 -0.5796 -0.4479 -0.5739
20057TIP3    H281663   0.079   2.439  11.942 -0.4305  0.4516  0.0337
20058TIP3   OH281664   3.663   6.235  13.429 -0.2222 -0.7123  0.3041
20058TIP3    H181665   3.758   6.223  13.424  0.0517  0.6546  1.5638
20058TIP3    H281666   3.636   6.250  13.339  0.7358 -1.2875 -0.0935
20059TIP3   OH281667   5.508   1.097  12.960  0.3293 -0.0871  0.9177
20059TIP3    H181668   5.506   1.147  13.042 -3.1456 -0.9454  1.5273
20059TIP3    H281669   5.507   1.005  12.989 -1.4427 -0.4028  0.0050
20060TIP3   OH281670   3.928   1.490   6.102 -0.0494  0.1394 -1.0127
20060TIP3    H181671   3.921   1.412   6.157 -1.1905  0.4031 -0.7730
20060TIP3    H281672   3.968   1.555   6.159 -0.0641  0.0395 -0.8856
20061TIP3   OH281673   3.879   5.116  16.748 -0.2038  0.4314  0.1844
20061TIP3    H181674   3.914   5.088  16.663 -1.6094 -1.0384  0.0453
20061TIP3    H281675   3.946   5.175  16.782 -0.3015  2.3784 -2.6338
20062TIP3   OH281676   4.328   2.386  12.044 -0.1527 -0.3465 -0.0609
20062TIP3    H181677   4.304   2.478  12.036  1.1581 -0.0444 -0.6589
20062TIP3    H281678   4.245   2.342  12.063 -1.0688  0.7526 -1.2801
20063TIP3   OH281679   4.235   0.352   4.033  0.2971 -0.2211 -0.2078
20063TIP3    H181680   4.261   0.344   4.125 -2.0275 -0.8127  0.4400
20063TIP3    H281681   4.153   0.303   4.026 -1.3621  2.5434 -1.8262
20064TIP3   OH281682   1.775   4.687  12.850  0.6778  0.0006  0.3787
20064TIP3    H181683   1.724   4.763  12.821 -0.5183 -1.3107 -1.2186
20064TIP3    H281684   1.863   4.721  12.865  0.0723  1.7792  0.1865
20065TIP3   OH281685   6.171   4.876  13.916  0.7557 -0.1999 -0.3466
20065TIP3    H181686   6.218   4.917  13.988  1.5632  1.0375 -1.5137
20065TIP3    H281687   6.121   4.948  13.876  1.2776 -0.5708 -1.7329
20066TIP3   OH281688   1.892   2.701  13.128 -0.4984 -0.0053 -0.0433
20066TIP3    H181689   1.869   2.614  13.094  1.6199 -0.8676  0.5754
20066TIP3    H281690   1.837   2.761  13.078 -3.0723 -1.7505  0.4729
20067TIP3   OH281691   0.870   3.174  13.913  0.0293 -0.3429 -0.2451
20067TIP3    H181692   0.959   3.145  13.935 -0.0975 -0.4467  0.1367
20067TIP3    H281693   0.835   3.105  13.857  0.6481  0.3126 -1.4823
20068TIP3   OH281694   1.596   1.927  14.443  0.2555 -0.2741  0.0661
20068TIP3    H181695   1.502   1.945  14.449  0.4312  0.2397  1.5620
20068TIP3    H281696   1.622   1.967  14.360 -0.8862 -0.6627 -0.4959
20069TIP3   OH281697   5.429   5.486   4.408  0.3171 -0.7351  0.5001
20069TIP3    H181698   5.344   5.445   4.420 -0.9851  1.7094  0.2247
20069TIP3    H281699   5.467   5.490   4.496 -2.4911  3.3605  1.7819
20070TIP3   OH281700   6.543   3.697   5.308  0.3500  0.6740 -0.3819
20070TIP3    H181701   6.621   3.715   5.254 -0.4387 -2.0075 -2.6558
20070TIP3    H281702   6.472   3.744   5.263  0.6815  4.4789  2.5782
20071TIP3   OH281703   1.448   4.741  13.477 -0.1626  0.0108 -0.3577
20071TIP3    H181704   1.414   4.768  13.563  0.8734 -0.4049  0.2071
20071TIP3    H281705   1.490   4.819  13.442  0.2628 -0.0740 -0.0427
20072TIP3   OH281706   5.259   4.975  15.879 -0.0677  0.1161  0.1302
20072TIP3    H181707   5.306   5.056  15.862  0.2311 -0.2553 -0.8689
20072TIP3    H281708   5.205   4.994  15.955 -1.0819  1.6934 -0.9444
20073TIP3   OH281709   6.162   2.896  12.599 -0.9718  0.1783 -0.7809
20073TIP3    H181710   6.164   2.931  12.688 -1.0972  0.5600 -0.9290
20073TIP3    H281711   6.223   2.822  12.601 -1.4444 -0.2014 -0.2200
20074TIP3   OH281712   0.472   3.546  16.873 -0.2059  0.2376 -0.2998
20074TIP3    H181713   0.507   3.630  16.902 -0.9905  0.2178  0.7928
20074TIP3    H281714   0.536   3.514  16.810  0.5984  1.2037 -0.0111
20075TIP3   OH281715   1.884   0.835  13.900  0.2973 -0.0470  0.1696
20075TIP3    H181716   1.843   0.753  13.870 -1.6460  1.5111 -1.7368
20075TIP3    H281717   1.929   0.868  13.822  0.9096  0.7867  0.8717
20076TIP3   OH281718   6.277   3.473   5.198 -0.3571  0.1117 -0.4122
20076TIP3    H181719   6.245   3.467   5.288  2.1890  0.0035  0.5540
20076TIP3    H281720   6.236   3.553   5.164 -1.4043  0.1349  0.8127
20077TIP3   OH281721   3.473   5.536  12.862 -0.3248  0.3445  0.5414
20077TIP3    H181722   3.439   5.448  12.876  1.4330 -0.4826 -0.1432
20077TIP3    H281723   3.444   5.585  12.939 -0.2852 -1.1578  1.5595
20078TIP3   OH281724   5.092   4.411   2.410 -0.7409  0.0817  0.1512
20078TIP3    H181725   5.147   4.419   2.332 -0.2824  0.9774  0.5456
20078TIP3    H281726   5.131   4.339   2.459 -0.1520  0.4473  0.2317
20079TIP3   OH281727   2.982   3.310  11.393  0.0486  0.5566 -0.3786
20079TIP3    H181728   3.028   3.373  11.338 -1.8871  1.5191 -1.0108
20079TIP3    H281729   2.947   3.246  11.332  1.2970 -0.7051  0.1817
20080TIP3   OH281730   0.530   5.160  16.088  0.6547  0.4354 -0.4185
20080TIP3    H181731   0.605   5.209  16.053 -0.9864  2.7568 -0.9473
20080TIP3    H281732   0.557   5.135  16.176  1.5875  2.4152 -0.0860
20081TIP3   OH281733   3.765   1.908  14.646 -0.1445  0.5185 -0.3599
20081TIP3    H181734   3.722   1.970  14.587  0.4183 -0.6996 -2.1596
20081TIP3    H281735   3.848   1.950  14.668 -0.7026  1.3368  0.2609
20082TIP3   OH281736   4.003   4.073   2.884 -0.3598  0.7032  0.1290
20082TIP3    H181737   4.046   4.033   2.960  2.2877 -0.1746 -1.6775
20082TIP3    H281738   3.927   4.017   2.867  1.9259 -2.3724 -0.9078
20083TIP3   OH281739   1.122   0.946  10.952  0.1541  0.2070 -0.4830
20083TIP3    H181740   1.154   1.017  11.008 -0.2297  2.0288 -2.4810
20083TIP3    H281741   1.200   0.893  10.934  0.2036 -0.7794  2.1286
20084TIP3   OH281742   4.265   2.327   2.525 -0.3128  0.2387 -0.2983
20084TIP3    H181743   4.289   2.419   2.511 -0.4982  0.4932  0.9610
20084TIP3    H281744   4.258   2.291   2.436  2.3130  0.7539 -0.7954
20085TIP3   OH281745   0.187   3.490  14.563  0.4329 -0.5198 -0.3127
20085TIP3    H181746   0.231   3.435  14.497  1.0616  0.3813 -0.6725
20085TIP3    H281747   0.147   3.560  14.512  0.8112  0.1161  0.2464
20086TIP3   OH281748   2.192   6.395  11.783 -0.2028  0.0171  0.2204
20086TIP3    H181749   2.140   6.440  11.717 -0.2651  0.8582  0.8304
20086TIP3    H281750   2.161   6.304  11.779  0.9219 -0.3272 -1.9941
20087TIP3   OH281751   6.328   1.607   4.497 -0.4088  0.1173 -0.1436
20087TIP3    H181752   6.297   1.697   4.507  0.7411  0.4928  0.1092
20087TIP3    H281753   6.248   1.554   4.506 -1.0365  1.0734  0.1223
20088TIP3   OH281754   0.297   2.469   4.079 -0.3684  0.3236 -0.4642
20088TIP3    H181755   0.214   2.422   4.091  0.4558 -1.1173 -0.2690
20088TIP3    H281756   0.279   2.531   4.008 -1.4251 -0.4261 -0.8712
20089TIP3   OH281757   2.598   2.335  10.839 -0.1573  0.7490 -0.0070
20089TIP3    H181758   2.521   2.388  10.818  0.8015  1.5548 -1.7539
20089TIP3    H281759   2.571   2.245  10.822 -2.2342  0.3230  4.2457
20090TIP3   OH281760   3.218   5.413   3.790  0.1011  0.3927 -0.7217
20090TIP3    H181761   3.289   5.349   3.799  1.1378  1.4255 -1.2389
20090TIP3    H281762   3.188   5.429   3.879 -1.6074 -2.3030 -0.7137
20091TIP3   OH281763   2.532   4.990   5.423 -0.2439 -0.3615 -0.9027
20091TIP3    H181764   2.493   4.929   5.486  0.3507 -0.8235 -0.9670
20091TIP3    H281765   2.463   5.006   5.359 -1.3053  1.1533  0.5466
20092TIP3   OH281766   4.100   4.162  15.777  0.3820 -0.2258 -0.2420
20092TIP3    H181767   4.102   4.141  15.684  0.2568 -1.4657  0.0134
20092TIP3    H281768   4.028   4.109  15.812 -1.1102  1.9455  0.1851
20093TIP3   OH281769   5.767   5.154   2.700  0.2160  0.2420  0.1416
20093TIP3    H181770   5.770   5.168   2.795  0.9755  0.1287  0.1366
20093TIP3    H281771   5.740   5.239   2.665  0.6386  0.4912  0.4098
20094TIP3   OH281772   3.959   5.104   0.885 -0.4575 -0.3662  0.2560
20094TIP3    H181773   4.053   5.121   0.880 -0.0303 -2.3634  0.5489
20094TIP3    H281774   3.929   5.104   0.794  0.3227 -1.9763 -0.0470
20095TIP3   OH281775   6.486   6.753  14.820 -0.2807  0.0709 -0.1811
20095TIP3    H181776   6.480   6.715  14.732  0.1384  0.1737 -0.2546
20095TIP3    H281777   6.435   6.693  14.875  0.0540 -0.3953 -0.3643
20096TIP3   OH281778   5.351   5.300  14.416  0.2952 -0.0751 -0.5452
20096TIP3    H181779   5.395   5.381  14.443 -1.0702 -0.1451  2.2559
20096TIP3    H281780   5.407   5.230  14.452 -0.8719 -0.2043  1.1334
20097TIP3   OH281781   4.350   2.620  16.693  0.7036 -0.1182 -0.3552
20097TIP3    H181782   4.427   2.606  16.749  1.1398  4.2078  0.5117
20097TIP3    H281783   4.386   2.623  16.604  1.5601  1.4396  0.0069
20098TIP3   OH281784   1.534   3.176   1.639 -0.0242 -0.0162  0.1757
20098TIP3    H181785   1.461   3.230   1.668  0.7531  0.3113  1.6496
20098TIP3    H281786   1.551   3.117   1.713  0.4707 -0.8647 -0.5923
20099TIP3   OH281787   1.936   2.073   2.978  0.2098 -0.0872  0.5987
20099TIP3    H181788   1.863   2.087   2.918  0.3189 -0.8803  0.2635
20099TIP3    H281789   1.916   1.989   3.020  1.2228 -0.6280  0.0480
20100TIP3   OH281790   3.232   2.181  15.972  0.3828 -0.0086  0.2355
20100TIP3    H181791   3.174   2.204  16.045 -0.3081 -2.3744  0.5137
20100TIP3    H281792   3.278   2.102  16.002  0.7335 -0.5263 -1.5410
20101TIP3   OH281793   5.876   1.754   3.163 -0.2187  0.1141 -0.2490
20101TIP3    H181794   5.792   1.790   3.136 -0.4328 -1.4885 -1.9047
20101TIP3    H281795   5.907   1.705   3.087  1.5504 -0.5002  0.8054
20102TIP3   OH281796   4.115   6.071  14.892  0.5987 -0.5788 -0.1502
20102TIP3    H181797   4.111   6.152  14.842 -2.2236  0.3461  1.3152
20102TIP3    H281798   4.032   6.026  14.872  0.9461 -1.8286  1.0223
20103TIP3   OH281799   6.531   0.090   3.244 -0.2595  0.3912 -0.0193
20103TIP3    H181800   6.569   0.178   3.243  1.4012 -0.2750  0.4845
20103TIP3    H281801   6.480   0.085   3.163  0.5974  1.4191 -0.6611
20104TIP3   OH281802   5.300   5.788  11.683  0.0481 -0.0200  0.4381
20104TIP3    H181803   5.208   5.781  11.656 -0.5339  2.7557  1.3336
20104TIP3    H281804   5.350   5.768  11.604 -1.2963 -1.7821 -0.0144
20105TIP3   OH281805   1.151   2.087   5.311  0.7810 -0.0282 -0.1880
20105TIP3    H181806   1.147   2.151   5.383 -3.5734  1.7719 -1.7266
20105TIP3    H281807   1.185   2.137   5.237 -0.5366 -0.0319 -0.8291
20106TIP3   OH281808   4.638   3.854   4.849  0.0368  0.4534  0.2570
20106TIP3    H181809   4.594   3.814   4.925  0.1140  2.6251  1.5088
20106TIP3    H281810   4.584   3.827   4.774  0.1896 -2.0828  0.9534
20107TIP3   OH281811   3.816   2.045   2.802 -0.2220 -0.0431  0.4190
20107TIP3    H181812   3.908   2.036   2.779 -0.2065  0.2495  0.3599
20107TIP3    H281813   3.816   2.101   2.879 -0.3264 -0.3603  0.6514
20108TIP3   OH281814   5.217   0.044  16.724  0.2041  0.5247 -0.2192
20108TIP3    H181815   5.256   0.115  16.673 -1.3510  1.4355 -0.2027
20108TIP3    H281816   5.126   0.042  16.697  0.4386 -2.3267 -1.1120
20109TIP3   OH281817   6.457   3.051  11.721  0.2200 -0.1361  0.4354
20109TIP3    H181818   6.475   3.141  11.695 -0.8816 -0.1918 -0.6208
20109TIP3    H281819   6.542   3.007  11.718  0.7672  0.8503  0.9493
20110TIP3   OH281820   2.336   3.062  13.312 -0.2969  0.1254  0.3192
20110TIP3    H181821   2.243   3.072  13.288 -0.1262  0.2752 -0.3144
20110TIP3    H281822   2.366   2.987  13.259 -0.1706 -0.2239  0.8758
20111TIP3   OH281823   3.624   1.469   4.255  0.6356 -0.2567  0.2399
20111TIP3    H181824   3.649   1.488   4.165  0.3946  0.0497  0.2376
20111TIP3    H281825   3.545   1.416   4.247  0.3818  0.1142  0.2780
20112TIP3   OH281826   3.473   3.320  13.891  0.1961 -0.0652 -0.3962
20112TIP3    H181827   3.427   3.246  13.852  0.1906 -0.1296 -0.2706
20112TIP3    H281828   3.415   3.349  13.962 -0.1332  0.5077 -0.8888
20113TIP3   OH281829   4.152   1.270  16.288  0.8965  0.0594  0.3713
20113TIP3    H181830   4.143   1.255  16.194  1.0468 -0.2517  0.4043
20113TIP3    H281831   4.216   1.340  16.296  1.7725 -0.7088  0.2713
20114TIP3   OH281832   3.282   1.042   0.465  0.5472  0.1850  0.4326
20114TIP3    H181833   3.248   0.974   0.523  1.7418  0.9373  2.0808
20114TIP3    H281834   3.376   1.045   0.484  0.4129  2.8223  1.0347
20115TIP3   OH281835   5.696   5.754  13.974 -0.2737  0.3224 -0.0458
20115TIP3    H181836   5.710   5.829  13.916 -0.0103  0.2939 -0.0216
20115TIP3    H281837   5.609   5.768  14.011  0.5543  1.7141  1.5501
20116TIP3   OH281838   6.121   0.395   2.562  0.5453  0.3973 -0.4796
20116TIP3    H181839   6.146   0.386   2.653 -0.0323  0.2126 -0.3377
20116TIP3    H281840   6.202   0.420   2.517  1.3590 -1.7000 -0.2919
20117TIP3   OH281841   3.609   2.605  13.744  0.0561  0.2644 -0.2085
20117TIP3    H181842   3.564   2.627  13.663 -0.5046  0.8176  0.2405
20117TIP3    H281843   3.646   2.518  13.729 -2.0607 -0.6861 -0.2353
20118TIP3   OH281844   3.051   4.747   6.591  0.0929  0.3412 -0.5059
20118TIP3    H181845   3.139   4.711   6.604 -0.2854 -0.4762 -0.1444
20118TIP3    H281846   3.061   4.811   6.520  0.9167  0.0448 -0.6649
20119TIP3   OH281847   0.736   6.190   2.868  0.1798  0.4821  0.0651
20119TIP3    H181848   0.679   6.265   2.884 -0.8225 -0.2020 -0.1479
20119TIP3    H281849   0.716   6.130   2.940  1.8422  0.8885  0.9145
20120TIP3   OH281850   1.210   6.221   3.551  0.3923 -0.1998 -0.0899
20120TIP3    H181851   1.217   6.134   3.590  0.5129 -0.4256 -0.6135
20120TIP3    H281852   1.149   6.268   3.608 -0.0082 -0.7614 -0.0491
20121TIP3   OH281853   0.825   2.270  13.405  0.5421  0.1607 -0.1907
20121TIP3    H181854   0.753   2.310  13.357 -0.4178 -0.9675  0.2472
20121TIP3    H281855   0.818   2.176  13.386  0.2493 -0.3064  1.9060
20122TIP3   OH281856   0.216   4.016  11.693  0.1428  0.0124  0.1446
20122TIP3    H181857   0.148   4.073  11.730  1.1454  1.8486 -0.6871
20122TIP3    H281858   0.262   3.983  11.770 -0.4286  0.3680  0.6606
20123TIP3   OH281859   3.529   5.137  12.112 -0.5258 -0.4489  0.2340
20123TIP3    H181860   3.463   5.177  12.056 -2.3061 -2.2108  0.9710
20123TIP3    H281861   3.493   5.145  12.200 -0.1246 -2.0944  0.5719
20124TIP3   OH281862   5.192   3.364   3.620  1.2182  0.8182  0.0292
20124TIP3    H181863   5.145   3.427   3.675 -0.4166 -0.7056  0.4503
20124TIP3    H281864   5.207   3.411   3.538 -0.1894  1.6994  0.2409
20125TIP3   OH281865   5.742   2.820  13.703 -0.1654  0.3957  0.2668
20125TIP3    H181866   5.730   2.908  13.738 -0.2848  1.3503 -2.0029
20125TIP3    H281867   5.836   2.809  13.697 -0.1093  1.5474 -2.0296
20126TIP3   OH281868   1.202   5.929  11.522  0.0483  0.2735 -0.4662
20126TIP3    H181869   1.259   5.973  11.459  0.8982  0.3667  0.3465
20126TIP3    H281870   1.167   6.001  11.575  0.1116  0.1173 -0.2124
20127TIP3   OH281871   6.530   5.604  11.417 -0.0681  0.3540  0.6165
20127TIP3    H181872   6.605   5.617  11.360  1.8136  0.3179  2.9385
20127TIP3    H281873   6.468   5.672  11.390  0.4489 -0.0317 -1.7786
20128TIP3   OH281874   5.860   6.729   5.374  0.2517 -0.3804  0.7410
20128TIP3    H181875   5.828   6.809   5.331  0.7896 -1.0327 -0.9967
20128TIP3    H281876   5.922   6.760   5.440 -1.0820  0.7014  1.5301
20129TIP3   OH281877   0.808   4.589   5.168 -0.2212 -0.0299  0.3436
20129TIP3    H181878   0.868   4.640   5.113 -0.3477  1.1503  1.2576
20129TIP3    H281879   0.792   4.645   5.244  0.4995 -1.9093  1.9566
20130TIP3   OH281880   0.697   2.652  13.980  0.5739  0.0679  0.5843
20130TIP3    H181881   0.671   2.582  14.041  1.8735 -0.7980  0.1808
20130TIP3    H281882   0.725   2.606  13.901  0.0909  1.1261 -0.2288
20131TIP3   OH281883   5.165   5.122  15.023  0.2485 -0.2202  0.1433
20131TIP3    H181884   5.242   5.091  14.975 -0.7249 -0.3739 -1.3992
20131TIP3    H281885   5.094   5.067  14.992 -0.5599  0.1441  1.2921
20132TIP3   OH281886   5.726   3.393  11.492  0.3499  0.5280  0.8479
20132TIP3    H181887   5.751   3.348  11.573 -0.0561 -1.1681  0.0766
20132TIP3    H281888   5.788   3.361  11.426  0.4245  1.5681  0.3977
20133TIP3   OH281889   1.659   5.183  12.659  1.1463 -0.6618 -0.0093
20133TIP3    H181890   1.628   5.181  12.750 -1.1114 -0.2330 -0.7005
20133TIP3    H281891   1.691   5.273  12.646 -1.3590  0.2436 -0.4324
20134TIP3   OH281892   5.854   4.138  15.742  0.5846  0.2477 -0.3018
20134TIP3    H181893   5.789   4.148  15.672  0.3028  0.0699 -0.0669
20134TIP3    H281894   5.803   4.126  15.821  0.8871  1.9550  0.1944
20135TIP3   OH281895   3.707   4.263   5.626 -0.0805 -0.1865  0.3398
20135TIP3    H181896   3.622   4.297   5.651  0.2370  0.4171  0.6258
20135TIP3    H281897   3.702   4.169   5.644 -1.8908 -0.8541 -2.9492
20136TIP3   OH281898   0.840   1.338   5.742 -0.9986 -0.5600  0.3950
20136TIP3    H181899   0.928   1.321   5.710 -1.0393  1.2915 -0.9033
20136TIP3    H281900   0.803   1.252   5.760  0.8306 -1.3981  0.3066
20137TIP3   OH281901   3.069   1.487  11.313 -0.1275  0.3840 -0.0787
20137TIP3    H181902   3.153   1.486  11.268 -0.4744 -1.0654 -0.7662
20137TIP3    H281903   3.050   1.395  11.330 -0.3904  0.8347  2.3859
20138TIP3   OH281904   0.160   6.327  12.005  0.7575 -0.4953 -0.0667
20138TIP3    H181905   0.090   6.377  11.963  0.5565  0.1299  0.9544
20138TIP3    H281906   0.240   6.358  11.963  0.5070 -0.4300 -0.5007
20139TIP3   OH281907   0.312   6.098  16.793 -0.2242 -0.5252 -0.3981
20139TIP3    H181908   0.323   6.173  16.735  0.7293 -1.7500 -1.8603
20139TIP3    H281909   0.277   6.028  16.737 -2.7027 -0.7587  1.2616
20140TIP3   OH281910   1.792   2.597   3.544  0.0331 -0.4776 -0.0092
20140TIP3    H181911   1.779   2.672   3.486 -0.3622  0.1427  0.8546
20140TIP3    H281912   1.847   2.631   3.614  1.0870 -1.4034 -0.3547
20141TIP3   OH281913   0.454   4.937   4.684 -0.0517  0.9589  0.3017
20141TIP3    H181914   0.409   4.924   4.600  1.3828  1.6356 -0.5982
20141TIP3    H281915   0.384   4.927   4.749 -0.9939 -0.7912 -0.8646
20142TIP3   OH281916   4.992   0.522   4.738 -0.0804  0.0815 -0.1770
20142TIP3    H181917   4.900   0.502   4.754 -0.0566 -0.3371 -0.5678
20142TIP3    H281918   5.021   0.566   4.819 -0.1949 -1.2195  0.5968
20143TIP3   OH281919   0.579   0.787  15.394  0.8255  0.4581 -0.3843
20143TIP3    H181920   0.555   0.745  15.477 -0.5195  2.0336  0.0683
20143TIP3    H281921   0.668   0.819  15.407  1.3608 -1.0062 -0.2691
20144TIP3   OH281922   3.376   3.081  14.724  0.6267  0.8564  0.1929
20144TIP3    H181923   3.429   3.037  14.790 -0.1702 -0.7047 -0.1477
20144TIP3    H281924   3.287   3.050  14.740 -0.0095  2.4911  0.0117
20145TIP3   OH281925   0.398   3.314  13.204 -0.2749 -0.5002  0.1039
20145TIP3    H181926   0.337   3.266  13.148  0.1644 -2.4492  1.2103
20145TIP3    H281927   0.484   3.275  13.186  0.1256 -0.0476  0.9434
20146TIP3   OH281928   5.256   5.046   1.612 -0.1139  0.2611 -0.2737
20146TIP3    H181929   5.266   5.135   1.577 -2.4424  0.9615  0.6256
20146TIP3    H281930   5.193   5.004   1.554  0.8551 -0.7976 -0.6022
20147TIP3   OH281931   5.501   2.903   0.528 -0.2438 -0.1473  0.1634
20147TIP3    H181932   5.503   2.998   0.524 -0.2293 -0.1085  0.9126
20147TIP3    H281933   5.585   2.876   0.490 -0.8401  0.0621 -1.3835
20148TIP3   OH281934   1.249   4.939  15.138  0.0811 -0.6424  0.1833
20148TIP3    H181935   1.322   4.886  15.106 -0.3570 -0.6235 -0.8543
20148TIP3    H281936   1.256   4.933  15.234  1.1249 -1.0662  0.0919
20149TIP3   OH281937   1.784   5.000   5.290 -0.2757 -0.2717  0.1435
20149TIP3    H181938   1.860   5.044   5.250 -0.1702  0.1577  0.8001
20149TIP3    H281939   1.795   4.908   5.267 -0.8468  0.1021 -1.8094
20150TIP3   OH281940   3.731   0.547   3.931 -0.7241 -0.0341  0.5627
20150TIP3    H181941   3.777   0.594   3.861  1.0291 -0.7487  1.1631
20150TIP3    H281942   3.645   0.587   3.935 -0.4541  0.8027 -1.2199
20151TIP3   OH281943   1.848   6.618   5.529 -0.5909  0.0019 -0.5167
20151TIP3    H181944   1.924   6.673   5.546  0.0032 -1.0417  0.3335
20151TIP3    H281945   1.808   6.604   5.616 -0.9667 -0.5488 -0.7696
20152TIP3   OH281946   4.314   3.881  14.370 -0.1155  0.0363  0.0872
20152TIP3    H181947   4.245   3.888  14.305  1.9906 -0.7023 -2.4151
20152TIP3    H281948   4.355   3.967  14.371 -0.3491  0.1398  0.6748
20153TIP3   OH281949   1.386   3.653   5.864 -0.2865  0.1407  0.4907
20153TIP3    H181950   1.385   3.558   5.851 -1.9242  0.2350 -0.4129
20153TIP3    H281951   1.305   3.671   5.912 -0.2656  1.1326  0.1644
20154TIP3   OH281952   4.798   3.521  13.012 -0.3332 -0.0654 -0.0212
20154TIP3    H181953   4.714   3.475  13.007 -0.6716  0.2340  2.0658
20154TIP3    H281954   4.778   3.611  12.985 -0.4556 -0.2386 -0.5177
20155TIP3   OH281955   2.416   1.152  11.713 -0.6150 -0.6457  0.9957
20155TIP3    H181956   2.409   1.136  11.807 -0.5332 -0.7233  0.9876
20155TIP3    H281957   2.467   1.079  11.680  0.1121 -0.1531  1.0209
20156TIP3   OH281958   2.451   2.940  13.995 -0.5887 -0.0795 -0.5391
20156TIP3    H181959   2.446   2.902  13.908 -1.4034 -0.1802 -0.4508
20156TIP3    H281960   2.362   2.970  14.014 -0.4357 -0.1142  0.2810
20157TIP3   OH281961   4.571   0.030   1.999 -0.0707 -0.1736  0.0610
20157TIP3    H181962   4.517  -0.003   2.071 -0.7327 -0.8142 -0.7024
20157TIP3    H281963   4.651   0.061   2.041 -0.3664 -0.7120  1.0529
20158TIP3   OH281964   3.927   2.598  13.121 -0.2804  0.0558  0.0625
20158TIP3    H181965   3.917   2.506  13.144 -1.2004 -0.0406 -0.6345
20158TIP3    H281966   3.925   2.644  13.204 -2.9405 -0.3158  0.2899
20159TIP3   OH281967   3.203   3.533   2.370 -0.1205  0.4988 -0.1263
20159TIP3    H181968   3.207   3.440   2.345 -0.5489  0.0913  1.2614
20159TIP3    H281969   3.253   3.538   2.452  0.5950  1.6537 -0.6102
20160TIP3   OH281970   1.112   0.951  13.262  0.0096 -0.0166 -0.0308
20160TIP3    H181971   1.059   1.003  13.323  2.2939  0.3274  1.7753
20160TIP3    H281972   1.146   0.880  13.315 -0.5292 -1.6406 -1.7415
20161TIP3   OH281973   4.881   2.575  15.519  0.3096 -0.2583 -0.0995
20161TIP3    H181974   4.961   2.523  15.529  0.5772  0.0481 -0.6055
20161TIP3    H281975   4.834   2.563  15.602  1.6794  0.8999  0.9054
20162TIP3   OH281976   4.753   2.022   2.760  0.1328  0.0922 -0.2444
20162TIP3    H181977   4.826   1.961   2.754  1.0614  1.0679  0.7735
20162TIP3    H281978   4.743   2.039   2.853 -1.4759 -0.0805 -0.3532
20163TIP3   OH281979   1.561   6.383   3.120 -0.0086  0.0243  0.3329
20163TIP3    H181980   1.501   6.342   3.182 -1.3808  0.7352 -0.4732
20163TIP3    H281981   1.646   6.384   3.165 -0.9188  0.3955  2.1259
20164TIP3   OH281982   2.026   0.724   3.651 -0.1780 -0.0148 -0.2962
20164TIP3    H181983   2.106   0.675   3.633 -1.4711 -1.9440 -1.2948
20164TIP3    H281984   2.009   0.773   3.571 -0.8742 -1.0148 -0.7926
20165TIP3   OH281985   0.653   0.386  12.410  0.3686 -0.4990 -0.1234
20165TIP3    H181986   0.687   0.434  12.485  1.0333 -1.6862  0.3654
20165TIP3    H281987   0.708   0.308  12.404 -0.2178 -0.8539 -1.3268
20166TIP3   OH281988   0.243   4.328  16.523 -0.2364 -0.1589  0.0109
20166TIP3    H181989   0.174   4.272  16.488 -0.6329 -0.2266  0.8861
20166TIP3    H281990   0.284   4.276  16.592 -3.2218  1.9239  3.7621
20167TIP3   OH281991   6.721   4.811   4.757 -0.1403 -0.3096  0.2046
20167TIP3    H181992   6.630   4.797   4.785 -0.3833  0.5981 -0.0871
20167TIP3    H281993   6.736   4.743   4.691 -1.0433  0.2994 -0.6636
20168TIP3   OH281994   0.229   4.555   6.129 -0.1485 -0.1649  0.6445
20168TIP3    H181995   0.145   4.520   6.099  0.2098 -0.0441 -0.5462
20168TIP3    H281996   0.206   4.619   6.196 -1.1667  1.4938 -1.1964
20169TIP3   OH281997   1.055   4.605   3.503 -0.0945  0.0638  0.0960
20169TIP3    H181998   0.968   4.606   3.543 -0.7671 -3.1325 -1.0273
20169TIP3    H281999   1.044   4.651   3.420 -0.8617 -0.8361 -0.3057
20170TIP3   OH282000   0.102   2.783   6.536  0.2386  0.7656 -0.5303
20170TIP3    H182001   0.073   2.867   6.570  0.4731  1.1992 -1.3713
20170TIP3    H282002   0.173   2.756   6.595  0.8993  1.6806 -0.8834
20171TIP3   OH282003   4.956   5.800  16.006 -0.4443  0.0400  0.8102
20171TIP3    H182004   4.993   5.859  15.940  1.0847 -1.7606 -0.0050
20171TIP3    H282005   4.991   5.833  16.089  4.4844 -2.3425  0.0288
20172TIP3   OH282006   1.865   5.438   4.343  0.2175  0.1721 -0.7185
20172TIP3    H182007   1.846   5.466   4.253 -2.5331  0.0803 -0.2711
20172TIP3    H282008   1.870   5.342   4.338  1.1459  0.2216 -0.9150
20173TIP3   OH282009   1.649   5.064   4.098 -0.3004  0.2195 -0.6425
20173TIP3    H182010   1.600   4.991   4.059 -0.2321  0.2117 -0.7149
20173TIP3    H282011   1.643   5.048   4.192 -0.8138  0.4621 -0.6300
20174TIP3   OH282012   4.892   5.029  13.970 -0.1518 -0.0890 -0.1203
20174TIP3    H182013   4.817   5.060  13.920 -1.0726 -0.9662  0.6730
20174TIP3    H282014   4.872   4.938  13.991  1.2326 -0.4042 -0.0651
20175TIP3   OH282015   0.716   4.370  16.608  0.0747 -0.6544  0.0531
20175TIP3    H182016   0.680   4.459  16.614  0.3120 -0.5397 -0.2089
20175TIP3    H282017   0.679   4.334  16.528 -1.9142 -1.6607  1.3541
20176TIP3   OH282018   2.231   1.839   4.539  0.3213 -0.3627  0.6807
20176TIP3    H182019   2.144   1.805   4.556  0.5262 -0.4109  1.7261
20176TIP3    H282020   2.218   1.932   4.523 -0.0008 -0.5135  0.0668
20177TIP3   OH282021   1.027   2.051   0.392 -0.1928 -0.4617  0.2370
20177TIP3    H182022   1.010   2.141   0.366  2.2816  0.7832  2.4600
20177TIP3    H282023   0.945   2.021   0.430 -1.0530  0.8364 -0.5363
20178TIP3   OH282024   2.769   0.582   3.104 -0.1838  0.0639  0.1253
20178TIP3    H182025   2.724   0.667   3.107  0.8271  0.7440 -2.0645
20178TIP3    H282026   2.846   0.594   3.160 -0.2592  0.4474  0.1508
20179TIP3   OH282027   5.053   1.565  11.848  0.6290 -0.5730 -0.0901
20179TIP3    H182028   5.098   1.591  11.768  0.2817  1.6921  0.3900
20179TIP3    H282029   5.095   1.482  11.873  0.2766 -1.7369 -2.9196
20180TIP3   OH282030   6.065   4.635   2.742 -0.0799  0.0467 -0.2087
20180TIP3    H182031   6.045   4.644   2.835  0.7397 -1.4461  0.1418
20180TIP3    H282032   6.058   4.724   2.707 -0.7487  0.5717  1.1998
20181TIP3   OH282033   0.696   3.815   0.865 -0.0781  0.5001  0.3249
20181TIP3    H182034   0.640   3.819   0.942 -0.2526  2.4263  0.1459
20181TIP3    H282035   0.778   3.856   0.893 -0.4196  1.9458 -0.7038
20182TIP3   OH282036   3.202   4.554   2.513 -0.4607 -0.3522 -0.3798
20182TIP3    H182037   3.223   4.647   2.512 -2.9550  0.2878 -2.0818
20182TIP3    H282038   3.282   4.511   2.544  0.5960  2.3560  0.9066
20183TIP3   OH282039   0.706   4.861   4.740  0.0201  0.3069  0.7484
20183TIP3    H182040   0.619   4.902   4.743 -0.6606 -1.1264  2.1622
20183TIP3    H282041   0.707   4.813   4.657  0.2057  1.7972 -0.1468
20184TIP3   OH282042   5.150   6.160  14.599  0.3878  0.4196  0.3237
20184TIP3    H182043   5.226   6.206  14.634  0.6668 -0.2453  0.6027
20184TIP3    H282044   5.090   6.153  14.674  1.0529 -1.1475  0.7484
20185TIP3   OH282045   0.982   2.681  11.449  0.1508  0.1311  0.3158
20185TIP3    H182046   1.023   2.759  11.412 -0.0448  0.2911  0.4318
20185TIP3    H282047   0.889   2.704  11.456 -0.0388 -0.3961 -0.3933
20186TIP3   OH282048   1.902   5.196   4.221  0.1990  0.1448 -0.3729
20186TIP3    H182049   1.894   5.119   4.279 -0.8040 -0.4120 -1.2226
20186TIP3    H282050   1.969   5.171   4.158 -0.9931 -0.5511 -1.3999
20187TIP3   OH282051   5.716   6.738   5.694 -0.3720  0.7003  0.0838
20187TIP3    H182052   5.742   6.678   5.764 -1.3257  0.5359  0.3020
20187TIP3    H282053   5.724   6.825   5.733 -2.9157  0.5259  1.1111
20188TIP3   OH282054   0.069   6.817   1.991  0.6549 -0.0112  0.6316
20188TIP3    H182055   0.119   6.897   2.003  0.4280  0.3172 -0.4789
20188TIP3    H282056  -0.005   6.843   1.935  0.5556 -0.9771  0.2901
20189TIP3   OH282057   0.311   1.984   5.448 -0.0167 -0.5509  0.8693
20189TIP3    H182058   0.346   2.007   5.534  0.2124  3.1078 -0.0479
20189TIP3    H282059   0.267   2.063   5.417 -0.3328 -1.7987 -2.2860
20190TIP3   OH282060   2.932   5.124  15.797 -0.2834 -0.0079 -0.2262
20190TIP3    H182061   2.865   5.183  15.831 -0.3017 -0.2164  0.1051
20190TIP3    H282062   2.899   5.098  15.711  0.2713  1.3604 -0.8894
20191TIP3   OH282063   0.347   5.288   2.691  0.1943  0.3805 -0.0631
20191TIP3    H182064   0.440   5.312   2.696  0.5668 -0.9410 -0.3958
20191TIP3    H282065   0.339   5.210   2.745 -0.5694  0.0303 -0.6715
20192TIP3   OH282066   6.324   4.419  12.050  0.2626 -0.1599  0.2012
20192TIP3    H182067   6.238   4.461  12.047  0.1203 -0.3318  1.3408
20192TIP3    H282068   6.312   4.343  12.107  0.5081 -1.8060 -1.8204
20193TIP3   OH282069   4.034   5.096  15.345 -0.0808 -0.4032  0.6720
20193TIP3    H182070   4.042   5.042  15.266  0.5253  1.3404 -0.5189
20193TIP3    H282071   3.967   5.160  15.323  1.5287  1.3862  0.7398
20194TIP3   OH282072   0.467   6.557   4.658 -0.2488  0.5231 -0.3779
20194TIP3    H182073   0.534   6.500   4.621 -1.8073 -1.4109 -0.3337
20194TIP3    H282074   0.517   6.620   4.710  1.5524 -0.8300 -0.3584
20195TIP3   OH282075   3.444   2.095   6.275 -0.0940 -0.1191  0.4048
20195TIP3    H182076   3.355   2.126   6.286  0.3780  1.7978 -0.7153
20195TIP3    H282077   3.499   2.167   6.306  1.1505 -2.1690  3.4659
20196TIP3   OH282078   2.088   2.674  14.937  0.2493  0.1040 -0.1398
20196TIP3    H182079   2.071   2.719  14.854  1.9517  0.5236 -0.3121
20196TIP3    H282080   2.034   2.719  15.001 -2.7304 -1.5577 -1.3064
20197TIP3   OH282081   1.200   0.691  10.467 -0.3964 -0.2733  0.3987
20197TIP3    H182082   1.182   0.673  10.560  0.1908 -0.7605  0.4247
20197TIP3    H282083   1.140   0.762  10.444 -0.0726  0.3276  1.3439
20198TIP3   OH282084   6.680   1.832  13.797 -0.1284  0.1994  0.4154
20198TIP3    H182085   6.636   1.770  13.854 -1.5376  0.7126 -0.0822
20198TIP3    H282086   6.766   1.793  13.781  0.0653 -0.2454  2.3601
20199TIP3   OH282087   3.105   4.340   4.199 -0.1594  0.0384 -0.0153
20199TIP3    H182088   3.188   4.304   4.168 -0.7636 -0.2513 -1.3759
20199TIP3    H282089   3.088   4.414   4.141  0.5861  1.9837  2.1317
20200TIP3   OH282090   6.143   1.684  12.430  0.0000  0.3398 -0.0404
20200TIP3    H182091   6.183   1.678  12.517  0.5384  0.8623 -0.2452
20200TIP3    H282092   6.050   1.672  12.446  0.1011  0.3373  0.5979
20201TIP3   OH282093   6.144   3.920  11.582 -0.2553  0.2277 -0.6486
20201TIP3    H182094   6.186   3.993  11.627 -2.4223 -0.3915  2.6935
20201TIP3    H282095   6.216   3.861  11.560  1.0420  0.7942  1.7128
20202TIP3   OH282096   1.079   1.646   4.559  0.1368 -0.5978  0.2332
20202TIP3    H182097   1.100   1.729   4.516 -0.6491 -0.2632  0.4746
20202TIP3    H282098   1.112   1.579   4.500  0.9840 -0.1147  0.1408
20203TIP3   OH282099   3.415   1.695  16.018  0.2517  0.1773  0.6479
20203TIP3    H182100   3.389   1.661  15.932 -0.6467 -1.0656  1.3674
20203TIP3    H282101   3.450   1.618  16.063  1.8287  1.0771  0.9925
20204TIP3   OH282102   4.417   1.790   6.306  0.5814 -0.5460  0.8066
20204TIP3    H182103   4.469   1.710   6.297  0.6567 -0.4093 -0.1100
20204TIP3    H282104   4.480   1.859   6.326  0.7971 -0.3549 -0.4422
20205TIP3   OH282105   1.982   0.031   2.851  0.2556 -0.6279  0.2878
20205TIP3    H182106   1.917   0.045   2.919 -0.6592 -0.4951 -0.5969
20205TIP3    H282107   2.025  -0.051   2.875  0.4169 -0.2442  1.3732
20206TIP3   OH282108   2.660   4.258   2.345  0.2191 -0.4083  0.2160
20206TIP3    H182109   2.692   4.335   2.391  1.0251  0.2446 -1.3563
20206TIP3    H282110   2.739   4.207   2.325 -0.1768 -1.0187  0.1577
20207TIP3   OH282111   0.202   0.356  10.653  0.2452 -0.0671  0.2099
20207TIP3    H182112   0.252   0.289  10.605 -0.5166 -0.1632 -0.4588
20207TIP3    H282113   0.260   0.432  10.654  0.2189 -0.0075 -1.0248
20208TIP3   OH282114   4.097   6.009  12.342  0.4395 -0.4636  0.1416
20208TIP3    H182115   4.163   6.061  12.296 -0.3160  0.3292 -0.0449
20208TIP3    H282116   4.146   5.968  12.414  0.6995  1.9888  1.4704
20209TIP3   OH282117   4.366   1.026   4.478 -0.3261 -0.3058 -0.4021
20209TIP3    H182118   4.327   0.950   4.522  1.1480  0.2542  2.0591
20209TIP3    H282119   4.459   1.005   4.471  0.4269  1.8109  1.7831
20210TIP3   OH282120   2.959   0.180   4.260  0.0137 -0.7552  0.5891
20210TIP3    H182121   2.906   0.103   4.242 -0.6076 -0.1498 -0.2303
20210TIP3    H282122   3.037   0.168   4.205  0.0491 -0.9306  0.6762
20211TIP3   OH282123   4.403   0.454   2.626  0.3904 -0.6175  0.0966
20211TIP3    H182124   4.324   0.433   2.675  0.1833  0.8763  0.4504
20211TIP3    H282125   4.466   0.386   2.650 -0.8350 -1.9621 -0.3814
20212TIP3   OH282126   0.655   1.320  13.056 -0.2118 -0.1143 -0.1230
20212TIP3    H182127   0.668   1.403  13.010 -1.3316  0.1573  0.0276
20212TIP3    H282128   0.734   1.310  13.109  0.8594 -0.1633 -1.6676
20213TIP3   OH282129   1.981   5.588   1.887  0.0594 -0.0770 -0.2579
20213TIP3    H182130   1.912   5.601   1.822  0.0168  2.3151  0.1863
20213TIP3    H282131   2.063   5.594   1.837 -0.0045 -0.0482 -0.3592
20214TIP3   OH282132   3.319   6.560   6.072 -0.6516  0.0688  0.0556
20214TIP3    H182133   3.268   6.516   6.004 -0.6493  1.9257 -1.1956
20214TIP3    H282134   3.377   6.619   6.025 -0.0762  0.8346  1.6512
20215TIP3   OH282135   3.771   3.956   1.741 -0.5653  0.0956  0.5750
20215TIP3    H182136   3.798   4.010   1.816 -3.5263 -0.5257  2.2648
20215TIP3    H282137   3.852   3.918   1.708  0.9373  0.7090  3.2403
20216TIP3   OH282138   4.732   6.641   5.249  0.3980  0.0127  0.3042
20216TIP3    H182139   4.700   6.609   5.165 -2.0391 -0.5351  1.3574
20216TIP3    H282140   4.674   6.601   5.314  0.4660  2.5476  2.0700
20217TIP3   OH282141   1.127   1.537   5.671  0.2321 -0.1105  0.3492
20217TIP3    H182142   1.089   1.507   5.588  0.5949 -1.1316  0.5341
20217TIP3    H282143   1.201   1.478   5.686  1.4320  1.3487  0.3814
20218TIP3   OH282144   5.561   0.905   6.190  0.1566 -0.2697 -0.4417
20218TIP3    H182145   5.518   0.819   6.187  0.6636 -0.5358 -0.1842
20218TIP3    H282146   5.540   0.939   6.277 -1.3663  0.5716 -1.0965
20219TIP3   OH282147   4.329   6.160   3.614 -0.0694 -0.4587 -0.2205
20219TIP3    H182148   4.263   6.103   3.654  0.5778 -0.2873  1.1469
20219TIP3    H282149   4.340   6.231   3.678  0.2630  0.3848 -1.1857
20220TIP3   OH282150   5.944   1.494  13.449 -0.3155  0.2764  0.2151
20220TIP3    H182151   5.947   1.456  13.362  0.2612 -0.7645  0.6719
20220TIP3    H282152   5.923   1.586  13.435 -0.7304  0.0099 -0.9826
20221TIP3   OH282153   4.679   1.680   5.720  0.2962  0.0197 -0.0235
20221TIP3    H182154   4.730   1.759   5.740  1.2936 -0.9201  1.3355
20221TIP3    H282155   4.641   1.654   5.804 -1.9011  0.2888 -0.8750
20222TIP3   OH282156   6.504   0.467  15.475  0.3719 -0.6642 -0.0895
20222TIP3    H182157   6.553   0.386  15.492 -0.8959 -1.2383  0.9660
20222TIP3    H282158   6.473   0.457  15.385 -0.5814 -1.8146  0.3402
20223TIP3   OH282159   5.276   6.401   5.886  0.2644 -0.5027 -0.0302
20223TIP3    H182160   5.319   6.483   5.911  0.2863 -0.9066  1.3180
20223TIP3    H282161   5.345   6.352   5.841  0.1364  0.3606 -1.2335
20224TIP3   OH282162   3.550   4.059   5.809  0.5648  0.5632  0.6444
20224TIP3    H182163   3.489   4.020   5.746  1.8844  2.1674 -1.8045
20224TIP3    H282164   3.583   3.985   5.860 -1.3216 -0.6766  0.1519
20225TIP3   OH282165   0.292   3.288  14.399  0.0054  0.1159  0.0649
20225TIP3    H182166   0.341   3.341  14.336 -0.7805  0.2856 -0.4223
20225TIP3    H282167   0.236   3.233  14.345 -1.5084  1.0568  0.6089
20226TIP3   OH282168   4.139   4.490   5.774 -0.1453 -0.1588 -0.1532
20226TIP3    H182169   4.052   4.516   5.804 -0.2427  0.5893 -1.0711
20226TIP3    H282170   4.187   4.572   5.762  0.7503 -0.5638  0.4922
20227TIP3   OH282171   4.847   1.862   5.859 -0.1262 -0.3123 -0.2649
20227TIP3    H182172   4.896   1.925   5.911 -0.9195  0.0843  0.0252
20227TIP3    H282173   4.892   1.779   5.873 -2.3309 -1.0743  4.1358
20228TIP3   OH282174   4.293   2.752   5.629 -0.0212  0.0635 -0.8947
20228TIP3    H182175   4.276   2.661   5.655 -0.2132  0.2074 -0.5106
20228TIP3    H282176   4.312   2.747   5.535 -0.1906 -0.3535 -0.9081
20229TIP3   OH282177   3.850   1.500  15.088 -1.3379  0.0790 -0.1193
20229TIP3    H182178   3.877   1.587  15.059 -1.9601  0.4452  0.3771
20229TIP3    H282179   3.818   1.457  15.009 -2.6743  0.9373 -0.0810
20230TIP3   OH282180   5.141   6.664   0.766 -0.0370  0.6080  0.4268
20230TIP3    H182181   5.054   6.643   0.731 -0.5797  0.1022  1.9630
20230TIP3    H282182   5.149   6.758   0.754 -0.4778  0.5426 -0.4316
20231TIP3   OH282183   2.421   2.634  10.968  0.5106 -0.2562 -0.1405
20231TIP3    H182184   2.430   2.558  10.911  1.8239  1.4900 -2.4078
20231TIP3    H282185   2.363   2.694  10.920  1.3366  1.1233  0.5079
20232TIP3   OH282186   4.560   3.236   3.662 -0.3936  0.1218 -0.1231
20232TIP3    H182187   4.566   3.179   3.739 -0.7855  0.5417  0.2260
20232TIP3    H282188   4.499   3.190   3.604 -1.0014  0.3529  0.3177
20233TIP3   OH282189   3.806   1.054  15.522  0.4265  0.2518  0.3692
20233TIP3    H182190   3.733   1.115  15.515  1.2623  1.3422  1.0369
20233TIP3    H282191   3.860   1.072  15.445  0.4484  0.0288  0.3293
20234TIP3   OH282192   2.076   4.036  14.882  0.2617  0.0989 -0.5046
20234TIP3    H182193   2.131   3.958  14.889  1.8681  1.1757 -0.6872
20234TIP3    H282194   2.107   4.081  14.804 -0.0892  1.3388  0.0488
20235TIP3   OH282195   0.441   0.068  11.867 -0.3847  0.1402  0.2981
20235TIP3    H182196   0.499   0.137  11.901 -0.8515  1.3398 -1.1987
20235TIP3    H282197   0.397   0.033  11.944  0.3851  1.0270  1.1729
20236TIP3   OH282198   0.916   2.150  14.065  0.2936 -0.0302  0.1843
20236TIP3    H182199   0.880   2.184  14.147 -0.4886  1.6787 -0.8251
20236TIP3    H282200   0.995   2.102  14.092 -1.5543 -2.1451  2.2282
20237TIP3   OH282201   2.273   2.735   0.736 -0.4084  0.4053  0.1814
20237TIP3    H182202   2.368   2.725   0.725 -0.6612 -0.3461 -1.8035
20237TIP3    H282203   2.263   2.812   0.792  1.3723  0.3302  0.6710
20238TIP3   OH282204   5.333   1.371   5.530 -0.3676  0.0064  0.3013
20238TIP3    H182205   5.246   1.388   5.565 -0.4976  1.3583 -0.6184
20238TIP3    H282206   5.324   1.288   5.483 -1.3597  0.5149 -0.4251
20239TIP3   OH282207   6.653   1.046  11.655  0.3730 -0.1920 -0.3812
20239TIP3    H182208   6.706   1.021  11.580 -0.7056 -2.0335 -0.5948
20239TIP3    H282209   6.564   1.053  11.621  0.0625  0.2034  0.4744
20240TIP3   OH282210   1.883   4.036  16.937 -0.0191  0.1058  0.0111
20240TIP3    H182211   1.797   4.019  16.975 -0.0166  3.3480  1.8103
20240TIP3    H282212   1.899   4.128  16.955  2.5719  0.3960 -2.9501
20241TIP3   OH282213   3.244   3.818  10.239 -0.2787  0.7147 -0.0527
20241TIP3    H182214   3.299   3.779  10.306 -1.5439  0.3652  0.8382
20241TIP3    H282215   3.284   3.903  10.222  0.1138  0.7910  1.1233
20242LIG     O182216   4.749   5.372   8.452  0.1304  0.1219 -0.4551
20242LIG     O282217   4.967   5.379   8.594  0.3076  0.6810 -0.4773
20242LIG     O382218   4.648   5.256   8.704  0.1519 -0.2045 -0.4021
20242LIG     O482219   5.050   5.596   8.609  0.4115 -0.2543 -0.6283
20242LIG     O582220   4.795   5.587   8.826 -0.2884 -0.6109  0.0856
20242LIG     O682221   5.042   5.513   9.018  0.2766 -0.1241  0.0114
20242LIG     O782222   5.286   5.530   8.889 -0.0002 -0.3869  0.0767
20242LIG     O882223   5.291   5.534   8.464 -0.6762  0.7853  0.4888
20242LIG     O982224   5.393   5.464   8.652 -0.1456  0.5575  0.3780
20242LIG      N82225   4.846   5.081   8.054 -0.1102 -0.3083  0.1613
20242LIG     C182226   4.845   5.260   8.278  0.4059 -0.2388 -0.0124
20242LIG     C282227   4.972   5.188   8.237  0.0916  0.5312 -0.2915
20242LIG     C382228   4.864   5.382   8.363 -0.0045  0.2018 -0.3358
20242LIG     C482229   4.931   5.056   8.169 -0.1863  0.0407  0.2833
20242LIG     C582230   4.747   5.277   8.160 -0.4334  0.3762  0.8261
20242LIG     C682231   4.772   5.161   8.370 -0.1562 -0.8825  0.0087
20242LIG     C782232   4.866   4.952   8.277 -0.3139 -1.0737  0.3556
20242LIG     C882233   4.719   5.148   8.078  0.1529 -0.1810  0.0213
20242LIG     C982234   4.992   5.381   8.454  0.7588 -0.0476  0.1207
20242LIG    C1082235   4.784   5.021   8.382  0.5703 -0.2897  0.0923
20242LIG    C1182236   5.073   5.173   8.351 -0.4302  0.6650 -0.9330
20242LIG    C1282237   4.733   5.238   8.484  0.0286 -0.0737 -0.1291
20242LIG    C1382238   5.089   5.269   8.448  1.1016  0.2449  0.6460
20242LIG    C1482239   4.917   5.154   7.953  0.1055 -0.7633  0.0948
20242LIG    C1582240   4.732   4.954   8.501  0.2858  0.3144 -0.4192
20242LIG    C1682241   4.686   5.175   8.593  0.0201  0.3860 -0.2384
20242LIG    C1782242   4.685   5.037   8.601  0.0783  0.2223 -0.1980
20242LIG    C1882243   4.949   5.510   8.643 -0.1114  0.4722 -0.1449
20242LIG    C1982244   4.913   5.509   8.794  0.8343 -0.0782  0.0880
20242LIG    C2082245   5.034   5.554   8.879 -0.6159  0.2727  0.4913
20242LIG    C2182246   5.159   5.504   8.807 -0.5095  0.0451 -0.0968
20242LIG    C2282247   5.173   5.577   8.677 -0.5317  0.6672  0.0210
20242LIG    C2382248   5.295   5.515   8.600 -0.2675 -0.1445 -0.2231
20242LIG     H182249   5.022   5.253   8.161 -0.6746 -0.0897 -1.3554
20242LIG     H282250   4.850   5.478   8.308  1.0619 -0.8013 -2.4997
20242LIG     H382251   5.022   4.997   8.148  0.2379  0.2616  1.4194
20242LIG     H482252   4.796   5.343   8.086 -0.6065 -0.7164 -0.2936
20242LIG     H582253   4.652   5.311   8.209 -0.4250  0.5580  0.7163
20242LIG     H682254   4.948   4.894   8.326  1.9455  1.2902 -0.3688
20242LIG     H782255   4.796   4.884   8.225  1.7696 -1.0398 -2.8279
20242LIG     H882256   4.653   5.086   8.141 -0.7857  1.6225  0.8967
20242LIG     H982257   4.680   5.175   7.977  1.7397 -0.1625 -0.6201
20242LIG    H1082258   5.043   5.474   8.420  1.2732 -0.3801 -0.0287
20242LIG    H1182259   5.148   5.093   8.340 -0.0844  0.5896  1.4834
20242LIG    H1282260   5.129   5.234   8.545  0.5782 -0.7980  0.5060
20242LIG    H1382261   5.025   5.129   7.959  0.2796 -0.0016  0.3449
20242LIG    H1482262   4.918   5.265   7.958  3.1006 -0.5524 -2.0638
20242LIG    H1582263   4.888   5.125   7.850 -1.8759  0.0815  0.3748
20242LIG    H1682264   4.747   4.850   8.528  0.5706  0.9520  2.0832
20242LIG    H1782265   4.645   4.992   8.690  1.4793  0.9222  0.8223
20242LIG    H1882266   4.857   5.547   8.593  0.1163  0.2601 -0.7308
20242LIG    H1982267   4.898   5.404   8.828 -2.0147  0.0702 -0.4863
20242LIG    H2082268   5.036   5.665   8.879 -2.4291  0.3399  0.5707
20242LIG    H2182269   4.652   5.347   8.671 -0.0979 -0.1894 -0.3899
20242LIG    H2282270   5.151   5.394   8.794  0.2833 -0.5904  3.7339
20242LIG    H2382271   5.206   5.681   8.699  1.1976 -0.0788  1.2364
20242LIG    H2482272   4.770   5.582   8.919 -0.4327 -0.8364  0.0339
20242LIG    H2582273   5.129   5.536   9.051  1.0211 -3.4221  0.6483
20242LIG    H2682274   5.353   5.508   8.824 -0.7098 -2.9819  0.0931
20242LIG    H2782275   5.369   5.481   8.443 -0.8884  0.8501 -0.4971
   6.84362   6.84362  17.19774
