PSF EXT CMAP XPLOR

         2 !NTITLE
* GENERATE LIGAND                                                               
*  DATE:     4/17/25      6:12:46      CREATED BY USER: charmm-gui              

        66 !NATOM
         1 LIG      1        LIG      S        SG311   -0.353000       32.0600           0
         2 LIG      1        LIG      O1       OG311   -0.644000       15.9994           0
         3 LIG      1        LIG      O2       OG2D3   -0.426000       15.9994           0
         4 LIG      1        LIG      O3       OG301   -0.389000       15.9994           0
         5 LIG      1        LIG      O4       OG301   -0.389000       15.9994           0
         6 LIG      1        LIG      N        NG3P0   -0.454000       14.0070           0
         7 LIG      1        LIG      C1       CG311    0.500000E-02   12.0110           0
         8 LIG      1        LIG      C2       CG324   -0.194000       12.0110           0
         9 LIG      1        LIG      C3       CG324   -0.194000       12.0110           0
        10 LIG      1        LIG      C4       CG321   -0.204000       12.0110           0
        11 LIG      1        LIG      C5       CG321   -0.204000       12.0110           0
        12 LIG      1        LIG      C6       CG324   -0.133000       12.0110           0
        13 LIG      1        LIG      C7       CG311    0.138000       12.0110           0
        14 LIG      1        LIG      C8       CG334   -0.418000       12.0110           0
        15 LIG      1        LIG      C9       CG321   -0.152000       12.0110           0
        16 LIG      1        LIG      C10      CG2R61   0.930000E-01   12.0110           0
        17 LIG      1        LIG      C11      CG2O5    0.515000       12.0110           0
        18 LIG      1        LIG      C12      CG3C51   0.103000       12.0110           0
        19 LIG      1        LIG      C13      CG2R61  -0.114000       12.0110           0
        20 LIG      1        LIG      C14      CG2R61  -0.114000       12.0110           0
        21 LIG      1        LIG      C15      CG3C52  -0.166000       12.0110           0
        22 LIG      1        LIG      C16      CG2RC0   0.270000E-01   12.0110           0
        23 LIG      1        LIG      C17      CG2R61  -0.115000       12.0110           0
        24 LIG      1        LIG      C18      CG2R61  -0.115000       12.0110           0
        25 LIG      1        LIG      C19      CG2RC0   0.442000       12.0110           0
        26 LIG      1        LIG      C20      CG2R61  -0.115000       12.0110           0
        27 LIG      1        LIG      C21      CG2R61  -0.329000       12.0110           0
        28 LIG      1        LIG      C22      CG2R61  -0.234000       12.0110           0
        29 LIG      1        LIG      C23      CG2R61   0.184000       12.0110           0
        30 LIG      1        LIG      C24      CG2R61   0.149000       12.0110           0
        31 LIG      1        LIG      C25      CG331   -0.101000       12.0110           0
        32 LIG      1        LIG      C26      CG331   -0.101000       12.0110           0
        33 LIG      1        LIG      H1       HGA1     0.900000E-01   1.00800           0
        34 LIG      1        LIG      H2       HGP5     0.250000       1.00800           0
        35 LIG      1        LIG      H3       HGP5     0.250000       1.00800           0
        36 LIG      1        LIG      H4       HGP5     0.250000       1.00800           0
        37 LIG      1        LIG      H5       HGP5     0.250000       1.00800           0
        38 LIG      1        LIG      H6       HGA2     0.900000E-01   1.00800           0
        39 LIG      1        LIG      H7       HGA2     0.900000E-01   1.00800           0
        40 LIG      1        LIG      H8       HGA2     0.900000E-01   1.00800           0
        41 LIG      1        LIG      H9       HGA2     0.900000E-01   1.00800           0
        42 LIG      1        LIG      H10      HGP5     0.250000       1.00800           0
        43 LIG      1        LIG      H11      HGP5     0.250000       1.00800           0
        44 LIG      1        LIG      H12      HGA1     0.900000E-01   1.00800           0
        45 LIG      1        LIG      H13      HGP5     0.250000       1.00800           0
        46 LIG      1        LIG      H14      HGP5     0.250000       1.00800           0
        47 LIG      1        LIG      H15      HGP5     0.250000       1.00800           0
        48 LIG      1        LIG      H16      HGA2     0.900000E-01   1.00800           0
        49 LIG      1        LIG      H17      HGA2     0.900000E-01   1.00800           0
        50 LIG      1        LIG      H18      HGP1     0.420000       1.00800           0
        51 LIG      1        LIG      H19      HGA1     0.640000E-01   1.00800           0
        52 LIG      1        LIG      H20      HGR61    0.115000       1.00800           0
        53 LIG      1        LIG      H21      HGR61    0.115000       1.00800           0
        54 LIG      1        LIG      H22      HGA2     0.900000E-01   1.00800           0
        55 LIG      1        LIG      H23      HGA2     0.900000E-01   1.00800           0
        56 LIG      1        LIG      H24      HGR61    0.115000       1.00800           0
        57 LIG      1        LIG      H25      HGR61    0.115000       1.00800           0
        58 LIG      1        LIG      H26      HGR61    0.115000       1.00800           0
        59 LIG      1        LIG      H27      HGR61    0.117000       1.00800           0
        60 LIG      1        LIG      H28      HGR61    0.136000       1.00800           0
        61 LIG      1        LIG      H29      HGA3     0.900000E-01   1.00800           0
        62 LIG      1        LIG      H30      HGA3     0.900000E-01   1.00800           0
        63 LIG      1        LIG      H31      HGA3     0.900000E-01   1.00800           0
        64 LIG      1        LIG      H32      HGA3     0.900000E-01   1.00800           0
        65 LIG      1        LIG      H33      HGA3     0.900000E-01   1.00800           0
        66 LIG      1        LIG      H34      HGA3     0.900000E-01   1.00800           0

        69 !NBOND: bonds
         1        18         1        25        13         2         2        50
         3        17         4        29         4        31         5        30
         5        32         6         8         6         9         6        12
         6        14         7        10         7        11         7        13
         7        33         8        10         8        34         8        35
         9        11         9        36         9        37        10        38
        10        39        11        40        11        41        12        16
        12        42        12        43        13        15        13        44
        14        45        14        46        14        47        15        17
        15        48        15        49        16        19        16        20
        18        17        18        21        18        51        19        23
        19        52        20        24        20        53        21        22
        21        54        21        55        22        25        22        27
        23        26        23        56        24        26        24        57
        25        28        26        58        27        29        27        59
        28        30        28        60        29        30        31        61
        31        62        31        63        32        64        32        65
        32        66

       127 !NTHETA: angles
        18         1        25        13         2        50        29         4        31
        30         5        32         8         6         9         8         6        12
         8         6        14         9         6        12         9         6        14
        12         6        14        10         7        11        10         7        13
        10         7        33        11         7        13        11         7        33
        13         7        33         6         8        10         6         8        34
         6         8        35        10         8        34        10         8        35
        34         8        35         6         9        11         6         9        36
         6         9        37        11         9        36        11         9        37
        36         9        37         7        10         8         7        10        38
         7        10        39         8        10        38         8        10        39
        38        10        39         7        11         9         7        11        40
         7        11        41         9        11        40         9        11        41
        40        11        41         6        12        16         6        12        42
         6        12        43        16        12        42        16        12        43
        42        12        43         2        13         7         2        13        15
         2        13        44         7        13        15         7        13        44
        15        13        44         6        14        45         6        14        46
         6        14        47        45        14        46        45        14        47
        46        14        47        13        15        17        13        15        48
        13        15        49        17        15        48        17        15        49
        48        15        49        12        16        19        12        16        20
        19        16        20         3        17        15         3        17        18
        15        17        18         1        18        17         1        18        21
         1        18        51        17        18        21        17        18        51
        21        18        51        16        19        23        16        19        52
        23        19        52        16        20        24        16        20        53
        24        20        53        18        21        22        18        21        54
        18        21        55        22        21        54        22        21        55
        54        21        55        21        22        25        21        22        27
        25        22        27        19        23        26        19        23        56
        26        23        56        20        24        26        20        24        57
        26        24        57         1        25        22         1        25        28
        22        25        28        23        26        24        23        26        58
        24        26        58        22        27        29        22        27        59
        29        27        59        25        28        30        25        28        60
        30        28        60         4        29        27         4        29        30
        27        29        30         5        30        28         5        30        29
        28        30        29         4        31        61         4        31        62
         4        31        63        61        31        62        61        31        63
        62        31        63         5        32        64         5        32        65
         5        32        66        64        32        65        64        32        66
        65        32        66

       189 !NPHI: dihedrals
         1        18        17         3         1        18        17        15
         1        18        21        22         1        18        21        54
         1        18        21        55         1        25        22        21
         1        25        22        27         1        25        28        30
         1        25        28        60         2        13         7        10
         2        13         7        11         2        13         7        33
         2        13        15        17         2        13        15        48
         2        13        15        49         3        17        15        13
         3        17        15        48         3        17        15        49
         3        17        18        21         3        17        18        51
         4        29        27        22         4        29        27        59
         4        29        30         5         4        29        30        28
         5        30        28        25         5        30        28        60
         5        30        29        27         6         8        10         7
         6         8        10        38         6         8        10        39
         6         9        11         7         6         9        11        40
         6         9        11        41         6        12        16        19
         6        12        16        20         7        10         8        34
         7        10         8        35         7        11         9        36
         7        11         9        37         7        13         2        50
         7        13        15        17         7        13        15        48
         7        13        15        49         8         6         9        11
         8         6         9        36         8         6         9        37
         8         6        12        16         8         6        12        42
         8         6        12        43         8         6        14        45
         8         6        14        46         8         6        14        47
         8        10         7        11         8        10         7        13
         8        10         7        33         9         6         8        10
         9         6         8        34         9         6         8        35
         9         6        12        16         9         6        12        42
         9         6        12        43         9         6        14        45
         9         6        14        46         9         6        14        47
         9        11         7        10         9        11         7        13
         9        11         7        33        10         7        11        40
        10         7        11        41        10         7        13        15
        10         7        13        44        10         8         6        12
        10         8         6        14        11         7        10        38
        11         7        10        39        11         7        13        15
        11         7        13        44        11         9         6        12
        11         9         6        14        12         6         8        34
        12         6         8        35        12         6         9        36
        12         6         9        37        12         6        14        45
        12         6        14        46        12         6        14        47
        12        16        19        23        12        16        19        52
        12        16        20        24        12        16        20        53
        13         7        10        38        13         7        10        39
        13         7        11        40        13         7        11        41
        13        15        17        18        14         6         8        34
        14         6         8        35        14         6         9        36
        14         6         9        37        14         6        12        16
        14         6        12        42        14         6        12        43
        15        13         2        50        15        13         7        33
        15        17        18        21        15        17        18        51
        16        19        23        26        16        19        23        56
        16        20        24        26        16        20        24        57
        17        15        13        44        17        18         1        25
        17        18        21        22        17        18        21        54
        17        18        21        55        18         1        25        22
        18         1        25        28        18        17        15        48
        18        17        15        49        18        21        22        25
        18        21        22        27        19        16        12        42
        19        16        12        43        19        16        20        24
        19        16        20        53        19        23        26        24
        19        23        26        58        20        16        12        42
        20        16        12        43        20        16        19        23
        20        16        19        52        20        24        26        23
        20        24        26        58        21        18         1        25
        21        22        25        28        21        22        27        29
        21        22        27        59        22        21        18        51
        22        25        28        30        22        25        28        60
        22        27        29        30        23        26        24        57
        24        26        23        56        25         1        18        51
        25        22        21        54        25        22        21        55
        25        22        27        29        25        22        27        59
        25        28        30        29        26        23        19        52
        26        24        20        53        27        22        21        54
        27        22        21        55        27        22        25        28
        27        29         4        31        27        29        30        28
        28        30         5        32        29         4        31        61
        29         4        31        62        29         4        31        63
        29        30         5        32        29        30        28        60
        30         5        32        64        30         5        32        65
        30         5        32        66        30        29         4        31
        30        29        27        59        33         7        10        38
        33         7        10        39        33         7        11        40
        33         7        11        41        33         7        13        44
        34         8        10        38        34         8        10        39
        35         8        10        38        35         8        10        39
        36         9        11        40        36         9        11        41
        37         9        11        40        37         9        11        41
        44        13         2        50        44        13        15        48
        44        13        15        49        51        18        21        54
        51        18        21        55        52        19        23        56
        53        20        24        57        56        23        26        58
        57        24        26        58

         1 !NIMPHI: impropers
        17        15        18         3

         0 !NDON: donors


         0 !NACC: acceptors


         0 !NNB

         0         0         0         0         0         0         0         0
         0         0         0         0         0         0         0         0
         0         0         0         0         0         0         0         0
         0         0         0         0         0         0         0         0
         0         0         0         0         0         0         0         0
         0         0         0         0         0         0         0         0
         0         0         0         0         0         0         0         0
         0         0         0         0         0         0         0         0
         0         0

         1         0 !NGRP NST2
         0         2         0

         0         0 !NUMLP NUMLPH

         0 !NCRTERM: cross-terms

