* GENERATE LIGAND
*  DATE:     4/17/25      6:12:46      CREATED BY USER: charmm-gui
*
        66  EXT
         1         1  LIG       S               2.6589040276       -0.5878842446       -1.8399626963  LIG       1               0.0000000000
         2         1  LIG       O1             -0.3224399080        3.6463646026        0.4894093784  LIG       1               0.0000000000
         3         1  LIG       O2              2.1457104503        1.8059063613        0.5539611342  LIG       1               0.0000000000
         4         1  LIG       O3              7.8109662089       -0.5463880705        1.1179240272  LIG       1               0.0000000000
         5         1  LIG       O4              6.4384210474       -2.9978158271        0.9315238279  LIG       1               0.0000000000
         6         1  LIG       N              -4.7817586609        0.8789843710        0.6324992067  LIG       1               0.0000000000
         7         1  LIG       C1             -2.0553684148        2.0511173009       -0.0572914723  LIG       1               0.0000000000
         8         1  LIG       C2             -3.8862682625        0.3312354559       -0.4574089970  LIG       1               0.0000000000
         9         1  LIG       C3             -4.4217384824        2.3363233410        0.8545317539  LIG       1               0.0000000000
        10         1  LIG       C4             -2.3761833304        0.5458619162       -0.2466752990  LIG       1               0.0000000000
        11         1  LIG       C5             -2.9222306585        2.6125476720        1.0999218361  LIG       1               0.0000000000
        12         1  LIG       C6             -6.2351289959        0.7815968868        0.2480159044  LIG       1               0.0000000000
        13         1  LIG       C7             -0.5720432159        2.2682895874        0.2339906453  LIG       1               0.0000000000
        14         1  LIG       C8             -4.4973276684        0.1217193185        1.9047277141  LIG       1               0.0000000000
        15         1  LIG       C9              0.3136494652        1.8512182495       -0.9582993859  LIG       1               0.0000000000
        16         1  LIG       C10            -6.5523016220       -0.6472262156        0.0165617061  LIG       1               0.0000000000
        17         1  LIG       C11             1.7414248322        1.6134902822       -0.5817707180  LIG       1               0.0000000000
        18         1  LIG       C12             2.6316151837        1.2216834691       -1.7411257885  LIG       1               0.0000000000
        19         1  LIG       C13            -6.4862693695       -1.1948857012       -1.2812324696  LIG       1               0.0000000000
        20         1  LIG       C14            -7.1107119093       -1.4257878839        1.0498164458  LIG       1               0.0000000000
        21         1  LIG       C15             4.0927037335        1.5953805218       -1.5489580141  LIG       1               0.0000000000
        22         1  LIG       C16             4.7670953686        0.5082477118       -0.7270015392  LIG       1               0.0000000000
        23         1  LIG       C17            -6.8706538834       -2.5211467511       -1.5148941244  LIG       1               0.0000000000
        24         1  LIG       C18            -7.4907140317       -2.7524960241        0.8179192925  LIG       1               0.0000000000
        25         1  LIG       C19             4.1072294654       -0.7295850433       -0.8559478694  LIG       1               0.0000000000
        26         1  LIG       C20            -7.3651546794       -3.3011497166       -0.4632281764  LIG       1               0.0000000000
        27         1  LIG       C21             5.9857140179        0.5674109834       -0.1003776505  LIG       1               0.0000000000
        28         1  LIG       C22             4.6170693379       -1.8865831349       -0.3118518668  LIG       1               0.0000000000
        29         1  LIG       C23             6.5556460061       -0.5942719320        0.4602944691  LIG       1               0.0000000000
        30         1  LIG       C24             5.8582800607       -1.8345462168        0.3625073237  LIG       1               0.0000000000
        31         1  LIG       C25             8.4487849638        0.7286859469        1.1902996845  LIG       1               0.0000000000
        32         1  LIG       C26             5.7228584862       -4.2243485209        0.8099278944  LIG       1               0.0000000000
        33         1  LIG       H1             -2.3213939794        2.5999189908       -0.9893255864  LIG       1               0.0000000000
        34         1  LIG       H2             -4.1558256133        0.7907214934       -1.4039484188  LIG       1               0.0000000000
        35         1  LIG       H3             -4.0793473987       -0.7345509897       -0.5679291637  LIG       1               0.0000000000
        36         1  LIG       H4             -4.9816652548        2.7245882464        1.7005612400  LIG       1               0.0000000000
        37         1  LIG       H5             -4.7194654414        2.9212310327       -0.0108769206  LIG       1               0.0000000000
        38         1  LIG       H6             -1.9976716932       -0.0250968369        0.6268926414  LIG       1               0.0000000000
        39         1  LIG       H7             -1.8733252799        0.1425925152       -1.1502493826  LIG       1               0.0000000000
        40         1  LIG       H8             -2.7703101578        3.7130914579        1.1739129882  LIG       1               0.0000000000
        41         1  LIG       H9             -2.5772558038        2.1743998021        2.0596776208  LIG       1               0.0000000000
        42         1  LIG       H10            -6.4474191518        1.3111520226       -0.6677828892  LIG       1               0.0000000000
        43         1  LIG       H11            -6.8832196553        1.1354124598        1.0340859048  LIG       1               0.0000000000
        44         1  LIG       H12            -0.3170150558        1.6782897945        1.1463250635  LIG       1               0.0000000000
        45         1  LIG       H13            -3.4444146834        0.2006737875        2.1509174502  LIG       1               0.0000000000
        46         1  LIG       H14            -4.7366025782       -0.9290872274        1.7852585216  LIG       1               0.0000000000
        47         1  LIG       H15            -5.0678483517        0.5118480961        2.7358632886  LIG       1               0.0000000000
        48         1  LIG       H16             0.2784576736        2.6396402906       -1.7405198783  LIG       1               0.0000000000
        49         1  LIG       H17            -0.0380611432        0.9164765981       -1.4231081354  LIG       1               0.0000000000
        50         1  LIG       H18             0.5740058500        3.7076870673        0.8416288344  LIG       1               0.0000000000
        51         1  LIG       H19             2.2567626711        1.6044835311       -2.7008970682  LIG       1               0.0000000000
        52         1  LIG       H20            -6.1277708226       -0.6008813790       -2.1085338979  LIG       1               0.0000000000
        53         1  LIG       H21            -7.2322864031       -1.0097696053        2.0388769685  LIG       1               0.0000000000
        54         1  LIG       H22             4.2132049236        2.6026226109       -1.1164593334  LIG       1               0.0000000000
        55         1  LIG       H23             4.5761741453        1.6575864608       -2.5375799525  LIG       1               0.0000000000
        56         1  LIG       H24            -6.8010520003       -2.9425403910       -2.5087713183  LIG       1               0.0000000000
        57         1  LIG       H25            -7.8945507640       -3.3511392173        1.6231651946  LIG       1               0.0000000000
        58         1  LIG       H26            -7.6688692942       -4.3231698473       -0.6443840653  LIG       1               0.0000000000
        59         1  LIG       H27             6.4630520330        1.5332401038       -0.0699443123  LIG       1               0.0000000000
        60         1  LIG       H28             4.0602624711       -2.7979114015       -0.4442606387  LIG       1               0.0000000000
        61         1  LIG       H29             7.8046502078        1.4567638434        1.7323573366  LIG       1               0.0000000000
        62         1  LIG       H30             8.6682091077        1.1125840067        0.1689826486  LIG       1               0.0000000000
        63         1  LIG       H31             9.4076126010        0.6360207998        1.7411871400  LIG       1               0.0000000000
        64         1  LIG       H32             5.5982255054       -4.5011405915       -0.2600318389  LIG       1               0.0000000000
        65         1  LIG       H33             4.7295425050       -4.1503260088        1.3044846854  LIG       1               0.0000000000
        66         1  LIG       H34             6.2990822288       -5.0318725786        1.3107378011  LIG       1               0.0000000000
