* GENERATED BY CHARMM-GUI (HTTP://WWW.CHARMM-GUI.ORG)
*
        32  EXT
         1         1  LIG       S               2.5868000000       -0.6657000000       -1.7283000000  LIG       1               0.0000000000
         2         1  LIG       O1             -0.3614000000        3.6628000000        0.4873000000  LIG       1               0.0000000000
         3         1  LIG       O2              2.1761000000        1.7902000000        0.5338000000  LIG       1               0.0000000000
         4         1  LIG       O3              7.7587000000       -0.5294000000        1.0927000000  LIG       1               0.0000000000
         5         1  LIG       O4              6.4353000000       -2.9636000000        0.9205000000  LIG       1               0.0000000000
         6         1  LIG       N              -4.7001000000        0.8935000000        0.6418000000  LIG       1               0.0000000000
         7         1  LIG       C1             -2.0582000000        2.0646000000       -0.0589000000  LIG       1               0.0000000000
         8         1  LIG       C2             -3.8484000000        0.3293000000       -0.4993000000  LIG       1               0.0000000000
         9         1  LIG       C3             -4.3968000000        2.3792000000        0.8589000000  LIG       1               0.0000000000
        10         1  LIG       C4             -2.3615000000        0.5802000000       -0.2768000000  LIG       1               0.0000000000
        11         1  LIG       C5             -2.9098000000        2.6296000000        1.0805000000  LIG       1               0.0000000000
        12         1  LIG       C6             -6.1761000000        0.7623000000        0.2435000000  LIG       1               0.0000000000
        13         1  LIG       C7             -0.5714000000        2.2791000000        0.2177000000  LIG       1               0.0000000000
        14         1  LIG       C8             -4.5052000000        0.0928000000        1.9291000000  LIG       1               0.0000000000
        15         1  LIG       C9              0.2818000000        1.8499000000       -0.9744000000  LIG       1               0.0000000000
        16         1  LIG       C10            -6.5946000000       -0.6573000000       -0.0031000000  LIG       1               0.0000000000
        17         1  LIG       C11             1.7384000000        1.6165000000       -0.6025000000  LIG       1               0.0000000000
        18         1  LIG       C12             2.6333000000        1.1530000000       -1.7095000000  LIG       1               0.0000000000
        19         1  LIG       C13            -6.4849000000       -1.2044000000       -1.2815000000  LIG       1               0.0000000000
        20         1  LIG       C14            -7.0932000000       -1.4298000000        1.0457000000  LIG       1               0.0000000000
        21         1  LIG       C15             4.0899000000        1.5747000000       -1.4709000000  LIG       1               0.0000000000
        22         1  LIG       C16             4.7781000000        0.4396000000       -0.7659000000  LIG       1               0.0000000000
        23         1  LIG       C17            -6.8739000000       -2.5241000000       -1.5111000000  LIG       1               0.0000000000
        24         1  LIG       C18            -7.4822000000       -2.7495000000        0.8162000000  LIG       1               0.0000000000
        25         1  LIG       C19             4.1205000000       -0.7899000000       -0.8546000000  LIG       1               0.0000000000
        26         1  LIG       C20            -7.3726000000       -3.2967000000       -0.4622000000  LIG       1               0.0000000000
        27         1  LIG       C21             6.0054000000        0.5319000000       -0.1189000000  LIG       1               0.0000000000
        28         1  LIG       C22             4.6646000000       -1.9377000000       -0.2953000000  LIG       1               0.0000000000
        29         1  LIG       C23             6.5582000000       -0.6161000000        0.4521000000  LIG       1               0.0000000000
        30         1  LIG       C24             5.8912000000       -1.8444000000        0.3641000000  LIG       1               0.0000000000
        31         1  LIG       C25             8.3753000000        0.7553000000        1.1400000000  LIG       1               0.0000000000
        32         1  LIG       C26             5.6964000000       -4.1760000000        0.7892000000  LIG       1               0.0000000000
