;;
;; Generated by CHARMM-GUI (http://www.charmm-gui.org) v1.7
;;
;; psf2itp_mol.py
;;
;; Correspondance:
;; jul316@lehigh.edu or wonpil@lehigh.edu
;;
;; GROMACS topology file for LIG
;;


[ moleculetype ]
; name	nrexcl
LIG	     3

[ atoms ]
; nr	type	resnr	residu	atom	cgnr	charge	mass
     1      OG301      1      LIG     O1      1     -0.366    15.9994   ; qtot -0.366
     2      OG302      1      LIG     O2      2     -0.490    15.9994   ; qtot -0.856
     3      OG2D1      1      LIG     O3      3     -0.612    15.9994   ; qtot -1.468
     4      OG311      1      LIG     O4      4     -0.533    15.9994   ; qtot -2.001
     5      NG3P0      1      LIG      N      5     -0.589    14.0070   ; qtot -2.590
     6      CG314      1      LIG     C1      6      0.202    12.0110   ; qtot -2.388
     7      CG311      1      LIG     C2      7      0.169    12.0110   ; qtot -2.219
     8      CG324      1      LIG     C3      8     -0.235    12.0110   ; qtot -2.454
     9      CG321      1      LIG     C4      9     -0.157    12.0110   ; qtot -2.611
    10      CG324      1      LIG     C5     10     -0.100    12.0110   ; qtot -2.711
    11      CG324      1      LIG     C6     11     -0.100    12.0110   ; qtot -2.811
    12      CG321      1      LIG     C7     12     -0.238    12.0110   ; qtot -3.049
    13      CG311      1      LIG     C8     13      0.042    12.0110   ; qtot -3.007
    14     CG2R61      1      LIG     C9     14      0.037    12.0110   ; qtot -2.970
    15     CG2R61      1      LIG    C10     15      0.025    12.0110   ; qtot -2.945
    16      CG331      1      LIG    C11     16     -0.270    12.0110   ; qtot -3.215
    17      CG331      1      LIG    C12     17     -0.270    12.0110   ; qtot -3.485
    18      CG321      1      LIG    C13     18     -0.286    12.0110   ; qtot -3.771
    19     CG2R61      1      LIG    C14     19     -0.108    12.0110   ; qtot -3.879
    20      CG2O2      1      LIG    C15     20      0.909    12.0110   ; qtot -2.970
    21     CG2R61      1      LIG    C16     21     -0.109    12.0110   ; qtot -3.079
    22     CG2R61      1      LIG    C17     22      0.013    12.0110   ; qtot -3.066
    23      CG331      1      LIG    C18     23     -0.101    12.0110   ; qtot -3.167
    24     CG2R61      1      LIG    C19     24      0.115    12.0110   ; qtot -3.052
    25     CG2R61      1      LIG    C20     25     -0.105    12.0110   ; qtot -3.157
    26     CG2R61      1      LIG    C21     26     -0.118    12.0110   ; qtot -3.275
    27     CG2R61      1      LIG    C22     27     -0.118    12.0110   ; qtot -3.393
    28      CG321      1      LIG    C23     28      0.086    12.0110   ; qtot -3.307
    29     CG2R61      1      LIG    C24     29     -0.107    12.0110   ; qtot -3.414
    30     CG2R61      1      LIG    C25     30     -0.107    12.0110   ; qtot -3.521
    31     CG2R61      1      LIG    C26     31     -0.115    12.0110   ; qtot -3.636
    32      CG331      1      LIG    C27     32     -0.274    12.0110   ; qtot -3.910
    33       HGP5      1      LIG     H1     33      0.090     1.0080   ; qtot -3.820
    34       HGA1      1      LIG     H2     34      0.090     1.0080   ; qtot -3.730
    35       HGP5      1      LIG     H3     35      0.250     1.0080   ; qtot -3.480
    36       HGP5      1      LIG     H4     36      0.250     1.0080   ; qtot -3.230
    37       HGA2      1      LIG     H5     37      0.090     1.0080   ; qtot -3.140
    38       HGA2      1      LIG     H6     38      0.090     1.0080   ; qtot -3.050
    39       HGP5      1      LIG     H7     39      0.250     1.0080   ; qtot -2.800
    40       HGP5      1      LIG     H8     40      0.250     1.0080   ; qtot -2.550
    41       HGP5      1      LIG     H9     41      0.250     1.0080   ; qtot -2.300
    42       HGP5      1      LIG    H10     42      0.250     1.0080   ; qtot -2.050
    43       HGA2      1      LIG    H11     43      0.090     1.0080   ; qtot -1.960
    44       HGA2      1      LIG    H12     44      0.090     1.0080   ; qtot -1.870
    45       HGA1      1      LIG    H13     45      0.090     1.0080   ; qtot -1.780
    46       HGA3      1      LIG    H14     46      0.090     1.0080   ; qtot -1.690
    47       HGA3      1      LIG    H15     47      0.090     1.0080   ; qtot -1.600
    48       HGA3      1      LIG    H16     48      0.090     1.0080   ; qtot -1.510
    49       HGA3      1      LIG    H17     49      0.090     1.0080   ; qtot -1.420
    50       HGA3      1      LIG    H18     50      0.090     1.0080   ; qtot -1.330
    51       HGA3      1      LIG    H19     51      0.090     1.0080   ; qtot -1.240
    52       HGA2      1      LIG    H20     52      0.090     1.0080   ; qtot -1.150
    53       HGA2      1      LIG    H21     53      0.090     1.0080   ; qtot -1.060
    54      HGR61      1      LIG    H22     54      0.115     1.0080   ; qtot -0.945
    55      HGR61      1      LIG    H23     55      0.115     1.0080   ; qtot -0.830
    56       HGA3      1      LIG    H24     56      0.090     1.0080   ; qtot -0.740
    57       HGA3      1      LIG    H25     57      0.090     1.0080   ; qtot -0.650
    58       HGA3      1      LIG    H26     58      0.090     1.0080   ; qtot -0.560
    59      HGR61      1      LIG    H27     59      0.115     1.0080   ; qtot -0.445
    60      HGR61      1      LIG    H28     60      0.115     1.0080   ; qtot -0.330
    61      HGR61      1      LIG    H29     61      0.115     1.0080   ; qtot -0.215
    62       HGA2      1      LIG    H30     62      0.090     1.0080   ; qtot -0.125
    63       HGA2      1      LIG    H31     63      0.090     1.0080   ; qtot -0.035
    64       HGP1      1      LIG    H32     64      0.420     1.0080   ; qtot  0.385
    65      HGR61      1      LIG    H33     65      0.115     1.0080   ; qtot  0.500
    66      HGR61      1      LIG    H34     66      0.115     1.0080   ; qtot  0.615
    67      HGR61      1      LIG    H35     67      0.115     1.0080   ; qtot  0.730
    68       HGA3      1      LIG    H36     68      0.090     1.0080   ; qtot  0.820
    69       HGA3      1      LIG    H37     69      0.090     1.0080   ; qtot  0.910
    70       HGA3      1      LIG    H38     70      0.090     1.0080   ; qtot  1.000

[ bonds ]
; ai	aj	funct	b0	Kb
    1     7     1
    1    23     1
    2    20     1
    2    28     1
    3    20     1
    4    24     1
    4    64     1
    5     6     1
    5     8     1
    5    10     1
    5    11     1
    6     7     1
    6     9     1
    6    33     1
    7    12     1
    7    34     1
    8    13     1
    8    35     1
    8    36     1
    9    14     1
    9    37     1
    9    38     1
   10    16     1
   10    39     1
   10    40     1
   11    17     1
   11    41     1
   11    42     1
   12    15     1
   12    43     1
   12    44     1
   13    18     1
   13    20     1
   13    45     1
   14    15     1
   14    19     1
   15    21     1
   16    46     1
   16    47     1
   16    48     1
   17    49     1
   17    50     1
   17    51     1
   18    22     1
   18    52     1
   18    53     1
   19    24     1
   19    54     1
   21    25     1
   21    55     1
   22    26     1
   22    27     1
   23    56     1
   23    57     1
   23    58     1
   24    25     1
   25    59     1
   26    29     1
   26    60     1
   27    30     1
   27    61     1
   28    32     1
   28    62     1
   28    63     1
   29    31     1
   29    65     1
   30    31     1
   30    66     1
   31    67     1
   32    68     1
   32    69     1
   32    70     1

[ pairs ]
; ai	aj	funct	c6	c12
    1     5     1 
    1     9     1 
    1    15     1 
    1    33     1 
    1    43     1 
    1    44     1 
    2     8     1 
    2    18     1 
    2    45     1 
    2    68     1 
    2    69     1 
    2    70     1 
    3     8     1 
    3    18     1 
    3    28     1 
    3    45     1 
    4    14     1 
    4    21     1 
    4    54     1 
    4    59     1 
    5    12     1 
    5    14     1 
    5    18     1 
    5    20     1 
    5    34     1 
    5    37     1 
    5    38     1 
    5    45     1 
    5    46     1 
    5    47     1 
    5    48     1 
    5    49     1 
    5    50     1 
    5    51     1 
    6    13     1 
    6    15     1 
    6    16     1 
    6    17     1 
    6    19     1 
    6    23     1 
    6    35     1 
    6    36     1 
    6    39     1 
    6    40     1 
    6    41     1 
    6    42     1 
    6    43     1 
    6    44     1 
    7     8     1 
    7    10     1 
    7    11     1 
    7    14     1 
    7    21     1 
    7    37     1 
    7    38     1 
    7    56     1 
    7    57     1 
    7    58     1 
    8     9     1 
    8    16     1 
    8    17     1 
    8    22     1 
    8    33     1 
    8    39     1 
    8    40     1 
    8    41     1 
    8    42     1 
    8    52     1 
    8    53     1 
    9    10     1 
    9    11     1 
    9    12     1 
    9    21     1 
    9    24     1 
    9    34     1 
    9    54     1 
   10    13     1 
   10    17     1 
   10    33     1 
   10    35     1 
   10    36     1 
   10    41     1 
   10    42     1 
   11    13     1 
   11    16     1 
   11    33     1 
   11    35     1 
   11    36     1 
   11    39     1 
   11    40     1 
   12    19     1 
   12    23     1 
   12    25     1 
   12    33     1 
   12    55     1 
   13    26     1 
   13    27     1 
   13    28     1 
   14    25     1 
   14    33     1 
   14    43     1 
   14    44     1 
   14    55     1 
   15    24     1 
   15    34     1 
   15    37     1 
   15    38     1 
   15    54     1 
   15    59     1 
   18    29     1 
   18    30     1 
   18    35     1 
   18    36     1 
   18    60     1 
   18    61     1 
   19    21     1 
   19    37     1 
   19    38     1 
   19    59     1 
   19    64     1 
   20    22     1 
   20    32     1 
   20    35     1 
   20    36     1 
   20    52     1 
   20    53     1 
   20    62     1 
   20    63     1 
   21    43     1 
   21    44     1 
   22    31     1 
   22    45     1 
   22    65     1 
   22    66     1 
   23    34     1 
   24    55     1 
   25    54     1 
   25    64     1 
   26    30     1 
   26    52     1 
   26    53     1 
   26    61     1 
   26    67     1 
   27    29     1 
   27    52     1 
   27    53     1 
   27    60     1 
   27    67     1 
   29    66     1 
   30    65     1 
   31    60     1 
   31    61     1 
   33    34     1 
   33    37     1 
   33    38     1 
   34    43     1 
   34    44     1 
   35    45     1 
   36    45     1 
   39    46     1 
   39    47     1 
   39    48     1 
   40    46     1 
   40    47     1 
   40    48     1 
   41    49     1 
   41    50     1 
   41    51     1 
   42    49     1 
   42    50     1 
   42    51     1 
   45    52     1 
   45    53     1 
   55    59     1 
   60    65     1 
   61    66     1 
   62    68     1 
   62    69     1 
   62    70     1 
   63    68     1 
   63    69     1 
   63    70     1 
   65    67     1 
   66    67     1 

[ angles ] 
; ai	aj	ak	funct	th0	cth	S0	Kub
    7     1    23     5
   20     2    28     5
   24     4    64     5
    6     5     8     5
    6     5    10     5
    6     5    11     5
    8     5    10     5
    8     5    11     5
   10     5    11     5
    5     6     7     5
    5     6     9     5
    5     6    33     5
    7     6     9     5
    7     6    33     5
    9     6    33     5
    1     7     6     5
    1     7    12     5
    1     7    34     5
    6     7    12     5
    6     7    34     5
   12     7    34     5
    5     8    13     5
    5     8    35     5
    5     8    36     5
   13     8    35     5
   13     8    36     5
   35     8    36     5
    6     9    14     5
    6     9    37     5
    6     9    38     5
   14     9    37     5
   14     9    38     5
   37     9    38     5
    5    10    16     5
    5    10    39     5
    5    10    40     5
   16    10    39     5
   16    10    40     5
   39    10    40     5
    5    11    17     5
    5    11    41     5
    5    11    42     5
   17    11    41     5
   17    11    42     5
   41    11    42     5
    7    12    15     5
    7    12    43     5
    7    12    44     5
   15    12    43     5
   15    12    44     5
   43    12    44     5
    8    13    18     5
    8    13    20     5
    8    13    45     5
   18    13    20     5
   18    13    45     5
   20    13    45     5
    9    14    15     5
    9    14    19     5
   15    14    19     5
   12    15    14     5
   12    15    21     5
   14    15    21     5
   10    16    46     5
   10    16    47     5
   10    16    48     5
   46    16    47     5
   46    16    48     5
   47    16    48     5
   11    17    49     5
   11    17    50     5
   11    17    51     5
   49    17    50     5
   49    17    51     5
   50    17    51     5
   13    18    22     5
   13    18    52     5
   13    18    53     5
   22    18    52     5
   22    18    53     5
   52    18    53     5
   14    19    24     5
   14    19    54     5
   24    19    54     5
    2    20     3     5
    2    20    13     5
    3    20    13     5
   15    21    25     5
   15    21    55     5
   25    21    55     5
   18    22    26     5
   18    22    27     5
   26    22    27     5
    1    23    56     5
    1    23    57     5
    1    23    58     5
   56    23    57     5
   56    23    58     5
   57    23    58     5
    4    24    19     5
    4    24    25     5
   19    24    25     5
   21    25    24     5
   21    25    59     5
   24    25    59     5
   22    26    29     5
   22    26    60     5
   29    26    60     5
   22    27    30     5
   22    27    61     5
   30    27    61     5
    2    28    32     5
    2    28    62     5
    2    28    63     5
   32    28    62     5
   32    28    63     5
   62    28    63     5
   26    29    31     5
   26    29    65     5
   31    29    65     5
   27    30    31     5
   27    30    66     5
   31    30    66     5
   29    31    30     5
   29    31    67     5
   30    31    67     5
   28    32    68     5
   28    32    69     5
   28    32    70     5
   68    32    69     5
   68    32    70     5
   69    32    70     5

[ dihedrals ]
; ai	aj	ak	al	funct	phi0	cp	mult
   23     1     7    34     9
    7     1    23    56     9
    7     1    23    57     9
    7     1    23    58     9
   20     2    28    32     9
   20     2    28    62     9
   20     2    28    63     9
    8     5     6     9     9
    8     5     6    33     9
   10     5     6    33     9
   11     5     6    33     9
    6     5     8    13     9
    6     5     8    35     9
    6     5     8    36     9
   10     5     8    13     9
   10     5     8    35     9
   10     5     8    36     9
   11     5     8    13     9
   11     5     8    35     9
   11     5     8    36     9
    6     5    10    16     9
    6     5    10    39     9
    6     5    10    40     9
    8     5    10    16     9
    8     5    10    39     9
    8     5    10    40     9
   11     5    10    16     9
   11     5    10    39     9
   11     5    10    40     9
    6     5    11    17     9
    6     5    11    41     9
    6     5    11    42     9
    8     5    11    17     9
    8     5    11    41     9
    8     5    11    42     9
   10     5    11    17     9
   10     5    11    41     9
   10     5    11    42     9
    7     6     5     8     9
    7     6     5    10     9
    7     6     5    11     9
    9     6     5    10     9
    9     6     5    11     9
    5     6     7    12     9
    5     6     7    34     9
    9     6     7    12     9
    9     6     7    34     9
   33     6     7    34     9
    5     6     9    14     9
    5     6     9    37     9
    5     6     9    38     9
    7     6     9    14     9
    7     6     9    37     9
    7     6     9    38     9
   33     6     9    37     9
   33     6     9    38     9
    6     7     1    23     9
   12     7     1    23     9
    1     7     6     5     9
    1     7     6     9     9
    1     7     6    33     9
   12     7     6    33     9
    1     7    12    15     9
    1     7    12    43     9
    1     7    12    44     9
    6     7    12    15     9
    6     7    12    43     9
    6     7    12    44     9
   34     7    12    43     9
   34     7    12    44     9
    5     8    13    18     9
    5     8    13    20     9
    5     8    13    45     9
   35     8    13    45     9
   36     8    13    45     9
   14     9     6    33     9
    6     9    14    15     9
    6     9    14    19     9
    5    10    16    46     9
    5    10    16    47     9
    5    10    16    48     9
   39    10    16    46     9
   39    10    16    47     9
   39    10    16    48     9
   40    10    16    46     9
   40    10    16    47     9
   40    10    16    48     9
    5    11    17    49     9
    5    11    17    50     9
    5    11    17    51     9
   41    11    17    49     9
   41    11    17    50     9
   41    11    17    51     9
   42    11    17    49     9
   42    11    17    50     9
   42    11    17    51     9
   15    12     7    34     9
    7    12    15    14     9
    7    12    15    21     9
   18    13     8    35     9
   18    13     8    36     9
   20    13     8    35     9
   20    13     8    36     9
    8    13    18    22     9
    8    13    18    52     9
    8    13    18    53     9
   20    13    18    22     9
   20    13    18    52     9
   20    13    18    53     9
   45    13    18    52     9
   45    13    18    53     9
   15    14     9    37     9
   15    14     9    38     9
   19    14     9    37     9
   19    14     9    38     9
    9    14    15    12     9
    9    14    15    21     9
   19    14    15    21     9
    9    14    19    24     9
    9    14    19    54     9
   15    14    19    24     9
   15    14    19    54     9
   14    15    12    43     9
   14    15    12    44     9
   21    15    12    43     9
   21    15    12    44     9
   12    15    14    19     9
   12    15    21    25     9
   12    15    21    55     9
   14    15    21    25     9
   14    15    21    55     9
   22    18    13    45     9
   13    18    22    26     9
   13    18    22    27     9
   14    19    24    25     9
    3    20     2    28     9
   13    20     2    28     9
    2    20    13     8     9
    2    20    13    18     9
    2    20    13    45     9
    3    20    13     8     9
    3    20    13    18     9
    3    20    13    45     9
   15    21    25    24     9
   15    21    25    59     9
   55    21    25    59     9
   26    22    18    52     9
   26    22    18    53     9
   27    22    18    52     9
   27    22    18    53     9
   18    22    26    29     9
   18    22    26    60     9
   27    22    26    29     9
   27    22    26    60     9
   18    22    27    30     9
   18    22    27    61     9
   26    22    27    30     9
   26    22    27    61     9
   19    24     4    64     9
   25    24     4    64     9
    4    24    19    14     9
    4    24    19    54     9
   25    24    19    54     9
    4    24    25    21     9
    4    24    25    59     9
   19    24    25    21     9
   19    24    25    59     9
   24    25    21    55     9
   22    26    29    31     9
   22    26    29    65     9
   60    26    29    65     9
   22    27    30    31     9
   22    27    30    66     9
   61    27    30    66     9
    2    28    32    68     9
    2    28    32    69     9
    2    28    32    70     9
   62    28    32    68     9
   62    28    32    69     9
   62    28    32    70     9
   63    28    32    68     9
   63    28    32    69     9
   63    28    32    70     9
   31    29    26    60     9
   26    29    31    30     9
   26    29    31    67     9
   65    29    31    67     9
   31    30    27    61     9
   27    30    31    29     9
   27    30    31    67     9
   66    30    31    67     9
   30    31    29    65     9
   29    31    30    66     9

[ dihedrals ]
; ai	aj	ak	al	funct	q0	cq
   20    13     3     2     2
