;;
;; Generated by CHARMM-GUI (http://www.charmm-gui.org) v1.7
;;
;; psf2itp_mol.py
;;
;; Correspondance:
;; jul316@lehigh.edu or wonpil@lehigh.edu
;;
;; GROMACS topology file for LIG
;;


[ moleculetype ]
; name	nrexcl
LIG	     3

[ atoms ]
; nr	type	resnr	residu	atom	cgnr	charge	mass
     1      OG301      1      LIG     O1      1     -0.344    15.9994   ; qtot -0.344
     2      OG302      1      LIG     O2      2     -0.481    15.9994   ; qtot -0.825
     3      OG311      1      LIG     O3      3     -0.608    15.9994   ; qtot -1.433
     4      OG2D1      1      LIG     O4      4     -0.623    15.9994   ; qtot -2.056
     5      NG3P0      1      LIG      N      5     -0.708    14.0070   ; qtot -2.764
     6      CG324      1      LIG     C1      6     -0.102    12.0110   ; qtot -2.866
     7      CG324      1      LIG     C2      7     -0.100    12.0110   ; qtot -2.966
     8      CG324      1      LIG     C3      8     -0.100    12.0110   ; qtot -3.066
     9      CG324      1      LIG     C4      9      0.174    12.0110   ; qtot -2.892
    10      CG321      1      LIG     C5     10      0.085    12.0110   ; qtot -2.807
    11      CG331      1      LIG     C6     11     -0.270    12.0110   ; qtot -3.077
    12      CG331      1      LIG     C7     12     -0.270    12.0110   ; qtot -3.347
    13      CG301      1      LIG     C8     13      0.149    12.0110   ; qtot -3.198
    14      CG2O2      1      LIG     C9     14      0.908    12.0110   ; qtot -2.290
    15      CG331      1      LIG    C10     15     -0.093    12.0110   ; qtot -2.383
    16     CG2R61      1      LIG    C11     16     -0.000    12.0110   ; qtot -2.383
    17     CG2R61      1      LIG    C12     17     -0.000    12.0110   ; qtot -2.383
    18     CG2R61      1      LIG    C13     18     -0.120    12.0110   ; qtot -2.503
    19     CG2R61      1      LIG    C14     19     -0.120    12.0110   ; qtot -2.623
    20     CG2R61      1      LIG    C15     20     -0.120    12.0110   ; qtot -2.743
    21     CG2R61      1      LIG    C16     21     -0.120    12.0110   ; qtot -2.863
    22     CG2R61      1      LIG    C17     22     -0.115    12.0110   ; qtot -2.978
    23     CG2R61      1      LIG    C18     23     -0.115    12.0110   ; qtot -3.093
    24     CG2R61      1      LIG    C19     24     -0.115    12.0110   ; qtot -3.208
    25     CG2R61      1      LIG    C20     25     -0.115    12.0110   ; qtot -3.323
    26     CG2R61      1      LIG    C21     26     -0.115    12.0110   ; qtot -3.438
    27     CG2R61      1      LIG    C22     27     -0.115    12.0110   ; qtot -3.553
    28       HGP5      1      LIG     H1     28      0.250     1.0080   ; qtot -3.303
    29       HGP5      1      LIG     H2     29      0.250     1.0080   ; qtot -3.053
    30       HGP5      1      LIG     H3     30      0.250     1.0080   ; qtot -2.803
    31       HGP5      1      LIG     H4     31      0.250     1.0080   ; qtot -2.553
    32       HGP5      1      LIG     H5     32      0.250     1.0080   ; qtot -2.303
    33       HGP5      1      LIG     H6     33      0.250     1.0080   ; qtot -2.053
    34       HGP5      1      LIG     H7     34      0.250     1.0080   ; qtot -1.803
    35       HGP5      1      LIG     H8     35      0.250     1.0080   ; qtot -1.553
    36       HGA2      1      LIG     H9     36      0.090     1.0080   ; qtot -1.463
    37       HGA2      1      LIG    H10     37      0.090     1.0080   ; qtot -1.373
    38       HGA3      1      LIG    H11     38      0.090     1.0080   ; qtot -1.283
    39       HGA3      1      LIG    H12     39      0.090     1.0080   ; qtot -1.193
    40       HGA3      1      LIG    H13     40      0.090     1.0080   ; qtot -1.103
    41       HGA3      1      LIG    H14     41      0.090     1.0080   ; qtot -1.013
    42       HGA3      1      LIG    H15     42      0.090     1.0080   ; qtot -0.923
    43       HGA3      1      LIG    H16     43      0.090     1.0080   ; qtot -0.833
    44       HGA3      1      LIG    H17     44      0.090     1.0080   ; qtot -0.743
    45       HGA3      1      LIG    H18     45      0.090     1.0080   ; qtot -0.653
    46       HGA3      1      LIG    H19     46      0.090     1.0080   ; qtot -0.563
    47       HGP1      1      LIG    H20     47      0.413     1.0080   ; qtot -0.150
    48      HGR61      1      LIG    H21     48      0.115     1.0080   ; qtot -0.035
    49      HGR61      1      LIG    H22     49      0.115     1.0080   ; qtot  0.080
    50      HGR61      1      LIG    H23     50      0.115     1.0080   ; qtot  0.195
    51      HGR61      1      LIG    H24     51      0.115     1.0080   ; qtot  0.310
    52      HGR61      1      LIG    H25     52      0.115     1.0080   ; qtot  0.425
    53      HGR61      1      LIG    H26     53      0.115     1.0080   ; qtot  0.540
    54      HGR61      1      LIG    H27     54      0.115     1.0080   ; qtot  0.655
    55      HGR61      1      LIG    H28     55      0.115     1.0080   ; qtot  0.770
    56      HGR61      1      LIG    H29     56      0.115     1.0080   ; qtot  0.885
    57      HGR61      1      LIG    H30     57      0.115     1.0080   ; qtot  1.000

[ bonds ]
; ai	aj	funct	b0	Kb
    1     9     1
    1    15     1
    2    10     1
    2    14     1
    3    13     1
    3    47     1
    4    14     1
    5     6     1
    5     7     1
    5     8     1
    5     9     1
    6    10     1
    6    28     1
    6    29     1
    7    11     1
    7    30     1
    7    31     1
    8    12     1
    8    32     1
    8    33     1
    9    34     1
    9    35     1
   10    36     1
   10    37     1
   11    38     1
   11    39     1
   11    40     1
   12    41     1
   12    42     1
   12    43     1
   13    14     1
   13    16     1
   13    17     1
   15    44     1
   15    45     1
   15    46     1
   16    18     1
   16    20     1
   17    19     1
   17    21     1
   18    22     1
   18    48     1
   19    23     1
   19    49     1
   20    24     1
   20    50     1
   21    25     1
   21    51     1
   22    26     1
   22    52     1
   23    27     1
   23    53     1
   24    26     1
   24    54     1
   25    27     1
   25    55     1
   26    56     1
   27    57     1

[ pairs ]
; ai	aj	funct	c6	c12
    1     6     1 
    1     7     1 
    1     8     1 
    2     3     1 
    2     5     1 
    2    16     1 
    2    17     1 
    2    28     1 
    2    29     1 
    3     4     1 
    3    18     1 
    3    19     1 
    3    20     1 
    3    21     1 
    4    10     1 
    4    16     1 
    4    17     1 
    5    15     1 
    5    36     1 
    5    37     1 
    5    38     1 
    5    39     1 
    5    40     1 
    5    41     1 
    5    42     1 
    5    43     1 
    6    11     1 
    6    12     1 
    6    14     1 
    6    30     1 
    6    31     1 
    6    32     1 
    6    33     1 
    6    34     1 
    6    35     1 
    7    10     1 
    7    12     1 
    7    28     1 
    7    29     1 
    7    32     1 
    7    33     1 
    7    34     1 
    7    35     1 
    8    10     1 
    8    11     1 
    8    28     1 
    8    29     1 
    8    30     1 
    8    31     1 
    8    34     1 
    8    35     1 
    9    10     1 
    9    11     1 
    9    12     1 
    9    28     1 
    9    29     1 
    9    30     1 
    9    31     1 
    9    32     1 
    9    33     1 
    9    44     1 
    9    45     1 
    9    46     1 
   10    13     1 
   13    22     1 
   13    23     1 
   13    24     1 
   13    25     1 
   13    48     1 
   13    49     1 
   13    50     1 
   13    51     1 
   14    18     1 
   14    19     1 
   14    20     1 
   14    21     1 
   14    36     1 
   14    37     1 
   14    47     1 
   15    34     1 
   15    35     1 
   16    19     1 
   16    21     1 
   16    26     1 
   16    47     1 
   16    52     1 
   16    54     1 
   17    18     1 
   17    20     1 
   17    27     1 
   17    47     1 
   17    53     1 
   17    55     1 
   18    24     1 
   18    50     1 
   18    56     1 
   19    25     1 
   19    51     1 
   19    57     1 
   20    22     1 
   20    48     1 
   20    56     1 
   21    23     1 
   21    49     1 
   21    57     1 
   22    54     1 
   23    55     1 
   24    52     1 
   25    53     1 
   26    48     1 
   26    50     1 
   27    49     1 
   27    51     1 
   28    36     1 
   28    37     1 
   29    36     1 
   29    37     1 
   30    38     1 
   30    39     1 
   30    40     1 
   31    38     1 
   31    39     1 
   31    40     1 
   32    41     1 
   32    42     1 
   32    43     1 
   33    41     1 
   33    42     1 
   33    43     1 
   48    52     1 
   49    53     1 
   50    54     1 
   51    55     1 
   52    56     1 
   53    57     1 
   54    56     1 
   55    57     1 

[ angles ] 
; ai	aj	ak	funct	th0	cth	S0	Kub
    9     1    15     5
   10     2    14     5
   13     3    47     5
    6     5     7     5
    6     5     8     5
    6     5     9     5
    7     5     8     5
    7     5     9     5
    8     5     9     5
    5     6    10     5
    5     6    28     5
    5     6    29     5
   10     6    28     5
   10     6    29     5
   28     6    29     5
    5     7    11     5
    5     7    30     5
    5     7    31     5
   11     7    30     5
   11     7    31     5
   30     7    31     5
    5     8    12     5
    5     8    32     5
    5     8    33     5
   12     8    32     5
   12     8    33     5
   32     8    33     5
    1     9     5     5
    1     9    34     5
    1     9    35     5
    5     9    34     5
    5     9    35     5
   34     9    35     5
    2    10     6     5
    2    10    36     5
    2    10    37     5
    6    10    36     5
    6    10    37     5
   36    10    37     5
    7    11    38     5
    7    11    39     5
    7    11    40     5
   38    11    39     5
   38    11    40     5
   39    11    40     5
    8    12    41     5
    8    12    42     5
    8    12    43     5
   41    12    42     5
   41    12    43     5
   42    12    43     5
    3    13    14     5
    3    13    16     5
    3    13    17     5
   14    13    16     5
   14    13    17     5
   16    13    17     5
    2    14     4     5
    2    14    13     5
    4    14    13     5
    1    15    44     5
    1    15    45     5
    1    15    46     5
   44    15    45     5
   44    15    46     5
   45    15    46     5
   13    16    18     5
   13    16    20     5
   18    16    20     5
   13    17    19     5
   13    17    21     5
   19    17    21     5
   16    18    22     5
   16    18    48     5
   22    18    48     5
   17    19    23     5
   17    19    49     5
   23    19    49     5
   16    20    24     5
   16    20    50     5
   24    20    50     5
   17    21    25     5
   17    21    51     5
   25    21    51     5
   18    22    26     5
   18    22    52     5
   26    22    52     5
   19    23    27     5
   19    23    53     5
   27    23    53     5
   20    24    26     5
   20    24    54     5
   26    24    54     5
   21    25    27     5
   21    25    55     5
   27    25    55     5
   22    26    24     5
   22    26    56     5
   24    26    56     5
   23    27    25     5
   23    27    57     5
   25    27    57     5

[ dihedrals ]
; ai	aj	ak	al	funct	phi0	cp	mult
   15     1     9    34     9
   15     1     9    35     9
    9     1    15    44     9
    9     1    15    45     9
    9     1    15    46     9
   14     2    10    36     9
   14     2    10    37     9
   10     2    14    13     9
    7     5     6    10     9
    7     5     6    28     9
    7     5     6    29     9
    8     5     6    10     9
    8     5     6    28     9
    8     5     6    29     9
    9     5     6    10     9
    9     5     6    28     9
    9     5     6    29     9
    6     5     7    11     9
    6     5     7    30     9
    6     5     7    31     9
    8     5     7    11     9
    8     5     7    30     9
    8     5     7    31     9
    9     5     7    11     9
    9     5     7    30     9
    9     5     7    31     9
    6     5     8    12     9
    6     5     8    32     9
    6     5     8    33     9
    7     5     8    12     9
    7     5     8    32     9
    7     5     8    33     9
    9     5     8    12     9
    9     5     8    32     9
    9     5     8    33     9
    6     5     9    34     9
    6     5     9    35     9
    7     5     9    34     9
    7     5     9    35     9
    8     5     9    34     9
    8     5     9    35     9
    5     6    10    36     9
    5     6    10    37     9
   28     6    10    36     9
   28     6    10    37     9
   29     6    10    36     9
   29     6    10    37     9
    5     7    11    38     9
    5     7    11    39     9
    5     7    11    40     9
   30     7    11    38     9
   30     7    11    39     9
   30     7    11    40     9
   31     7    11    38     9
   31     7    11    39     9
   31     7    11    40     9
    5     8    12    41     9
    5     8    12    42     9
    5     8    12    43     9
   32     8    12    41     9
   32     8    12    42     9
   32     8    12    43     9
   33     8    12    41     9
   33     8    12    42     9
   33     8    12    43     9
    5     9     1    15     9
    1     9     5     6     9
    1     9     5     7     9
    1     9     5     8     9
    6    10     2    14     9
    2    10     6     5     9
    2    10     6    28     9
    2    10     6    29     9
   14    13     3    47     9
   16    13     3    47     9
   17    13     3    47     9
    3    13    14     4     9
    3    13    16    18     9
    3    13    16    20     9
   14    13    16    18     9
   14    13    16    20     9
   17    13    16    18     9
   17    13    16    20     9
    3    13    17    19     9
    3    13    17    21     9
   14    13    17    19     9
   14    13    17    21     9
   16    13    17    19     9
   16    13    17    21     9
    4    14     2    10     9
    2    14    13     3     9
    2    14    13    16     9
    2    14    13    17     9
    4    14    13    16     9
    4    14    13    17     9
   13    16    18    22     9
   13    16    18    48     9
   20    16    18    22     9
   20    16    18    48     9
   13    16    20    24     9
   13    16    20    50     9
   18    16    20    24     9
   18    16    20    50     9
   13    17    19    23     9
   13    17    19    49     9
   21    17    19    23     9
   21    17    19    49     9
   13    17    21    25     9
   13    17    21    51     9
   19    17    21    25     9
   19    17    21    51     9
   16    18    22    26     9
   16    18    22    52     9
   48    18    22    52     9
   17    19    23    27     9
   17    19    23    53     9
   49    19    23    53     9
   16    20    24    26     9
   16    20    24    54     9
   50    20    24    54     9
   17    21    25    27     9
   17    21    25    55     9
   51    21    25    55     9
   26    22    18    48     9
   18    22    26    24     9
   18    22    26    56     9
   52    22    26    56     9
   27    23    19    49     9
   19    23    27    25     9
   19    23    27    57     9
   53    23    27    57     9
   26    24    20    50     9
   20    24    26    22     9
   20    24    26    56     9
   54    24    26    56     9
   27    25    21    51     9
   21    25    27    23     9
   21    25    27    57     9
   55    25    27    57     9
   24    26    22    52     9
   22    26    24    54     9
   25    27    23    53     9
   23    27    25    55     9

[ dihedrals ]
; ai	aj	ak	al	funct	q0	cq
   14    13     4     2     2
